Title
55513
    1DOPE     N    1   5.883   5.172   6.991  0.8256  0.0367 -0.2482
    1DOPE   HN1    2   5.972   5.136   6.950  0.1686 -3.2061  0.8407
    1DOPE   HN2    3   5.808   5.188   6.922  0.5585 -0.6191 -0.1211
    1DOPE   HN3    4   5.909   5.253   7.051  0.9048 -1.0361  1.2248
    1DOPE   C12    5   5.828   5.058   7.078  0.0596 -0.2135 -0.4700
    1DOPE  H12A    6   5.734   5.091   7.126 -0.2774 -1.5430 -0.1823
    1DOPE  H12B    7   5.897   5.050   7.165  0.3312 -1.1023 -0.7535
    1DOPE   C11    8   5.829   4.919   7.012 -0.3484 -0.1009  0.2280
    1DOPE  H11A    9   5.771   4.913   6.918  1.0972 -1.9993 -0.5920
    1DOPE  H11B   10   5.787   4.841   7.079 -0.3662  1.3593  2.0269
    1DOPE     P   11   6.026   4.747   6.983 -0.7865 -0.3209  0.2125
    1DOPE   O13   12   5.944   4.656   7.067 -0.3506 -0.5870  0.2438
    1DOPE   O14   13   6.175   4.760   7.013  0.0130 -0.4418  0.0979
    1DOPE   O11   14   6.020   4.700   6.828  0.4751  0.4603  0.3957
    1DOPE   O12   15   5.963   4.889   6.979  0.2887 -0.0872 -0.3110
    1DOPE    C1   16   6.063   4.780   6.721 -0.2461  0.1435 -0.4519
    1DOPE    HA   17   6.038   4.887   6.738 -2.0944 -0.5453  1.5469
    1DOPE    HB   18   6.000   4.751   6.635 -1.6788  1.9270 -0.0637
    1DOPE    C2   19   6.208   4.753   6.681  0.1968  0.7745  0.8704
    1DOPE    HS   20   6.264   4.815   6.755  1.1554 -0.0596  0.8739
    1DOPE   O21   21   6.214   4.802   6.545 -0.5949 -0.0764  0.4514
    1DOPE   C21   22   6.332   4.813   6.497  0.5637 -0.3498 -0.8049
    1DOPE   O22   23   6.435   4.798   6.563 -0.1862 -0.1039  0.6410
    1DOPE   C22   24   6.323   4.845   6.342  0.0461 -0.4112 -0.2165
    1DOPE   H2R   25   6.424   4.864   6.301 -0.1158 -2.7130 -1.8651
    1DOPE   H2S   26   6.259   4.936   6.335 -0.0829 -0.6434 -3.0409
    1DOPE    C3   27   6.243   4.602   6.699  0.4145 -0.1731 -0.0192
    1DOPE    HX   28   6.218   4.573   6.803  0.3347 -0.0873 -0.0151
    1DOPE    HY   29   6.354   4.597   6.687  0.0657 -1.5290 -4.7674
    1DOPE   O31   30   6.168   4.520   6.603 -0.3203 -0.5483 -0.2460
    1DOPE   C31   31   6.137   4.400   6.640 -0.4841 -0.6030 -0.2509
    1DOPE   O32   32   6.173   4.341   6.742 -0.5818 -0.2428  0.8317
    1DOPE   C32   33   6.045   4.338   6.537 -0.1079 -0.7999 -0.5601
    1DOPE   H2X   34   5.993   4.256   6.591  1.2369 -0.1437  1.9178
    1DOPE   H2Y   35   5.960   4.408   6.524 -0.0671 -0.0194  2.5008
    1DOPE   C23   36   6.264   4.730   6.262  0.4631 -0.0169  0.5825
    1DOPE   H3R   37   6.161   4.702   6.292  0.3892 -0.8344 -0.3850
    1DOPE   H3S   38   6.323   4.637   6.273  1.0576  0.2319 -0.3487
    1DOPE   C24   39   6.258   4.743   6.106  0.3895 -0.7145  0.3498
    1DOPE   H4R   40   6.362   4.770   6.078  1.8964 -3.7355  2.5277
    1DOPE   H4S   41   6.183   4.824   6.092  0.7702 -0.3697  0.2804
    1DOPE   C25   42   6.216   4.610   6.040 -0.7167  0.2276  0.7960
    1DOPE   H5R   43   6.124   4.565   6.081 -1.0292  0.0245 -0.0936
    1DOPE   H5S   44   6.296   4.537   6.064 -0.9466 -0.6840 -1.0421
    1DOPE   C26   45   6.203   4.639   5.890 -0.3111  0.9021  0.1297
    1DOPE   H6R   46   6.298   4.675   5.846 -0.8801  2.6087  0.2220
    1DOPE   H6S   47   6.127   4.719   5.876 -2.9331 -1.4859 -0.1722
    1DOPE   C27   48   6.150   4.509   5.811  0.0833 -0.4316 -1.1103
    1DOPE   H7R   49   6.039   4.502   5.823  0.3284 -1.2310  1.4348
    1DOPE   H7S   50   6.201   4.423   5.859  0.5828  0.9022  0.8640
    1DOPE   C28   51   6.193   4.527   5.663 -0.0726 -0.1051 -0.2488
    1DOPE   H8R   52   6.302   4.523   5.646 -0.1036  1.2137 -0.8206
    1DOPE   H8S   53   6.160   4.627   5.628 -1.0077 -0.9362 -1.8868
    1DOPE   C29   54   6.127   4.417   5.578  0.1690  0.3015 -0.4862
    1DOPE   H9R   55   6.117   4.318   5.624  0.8152  0.1279 -0.7146
    1DOPE  C210   56   6.070   4.436   5.457 -0.5112  0.9394  0.0092
    1DOPE  H10R   57   6.017   4.355   5.405  0.1802  0.9434 -0.7141
    1DOPE  C211   58   6.058   4.568   5.388 -0.5037 -0.0491 -0.3518
    1DOPE  H11R   59   6.065   4.553   5.278 -1.8227 -0.2971 -0.4206
    1DOPE  H11S   60   6.142   4.634   5.420  1.8404 -2.7694 -0.4827
    1DOPE  C212   61   5.917   4.643   5.406  0.0934 -0.2226 -0.5881
    1DOPE  H12R   62   5.835   4.568   5.405 -1.3058  1.2518 -0.8270
    1DOPE  H12S   63   5.906   4.702   5.312 -2.5188 -0.4399 -0.4956
    1DOPE  C213   64   5.898   4.715   5.539 -0.9019 -0.6460 -0.3083
    1DOPE  H13R   65   5.928   4.649   5.623 -0.3077  0.9697  0.8087
    1DOPE  H13S   66   5.790   4.733   5.558 -0.4846  0.4457  1.2582
    1DOPE  C214   67   5.975   4.846   5.551 -0.7511  0.4205 -0.2302
    1DOPE  H14R   68   5.917   4.925   5.500 -0.9058  0.5201  0.0992
    1DOPE  H14S   69   6.073   4.836   5.499 -0.1112  0.2030  0.9734
    1DOPE  C215   70   5.990   4.884   5.699 -0.0325 -0.0640 -0.1334
    1DOPE  H15R   71   6.089   4.855   5.740 -0.2591 -0.1821  0.3443
    1DOPE  H15S   72   5.910   4.840   5.762 -0.7978  0.6688 -0.5788
    1DOPE  C216   73   5.976   5.039   5.735  0.8326  0.1407 -0.4886
    1DOPE  H16R   74   5.877   5.071   5.696 -0.2668 -3.1767 -0.6834
    1DOPE  H16S   75   6.059   5.078   5.672  0.5967 -1.5012 -1.8636
    1DOPE  C217   76   5.984   5.085   5.881  0.5366  0.3014  0.2159
    1DOPE  H17R   77   5.922   5.017   5.943 -0.4870  1.0907  0.0829
    1DOPE  H17S   78   5.951   5.191   5.879 -3.8515 -0.9051 -0.1294
    1DOPE  C218   79   6.120   5.070   5.933 -0.1099  0.1920 -0.5340
    1DOPE  H18R   80   6.161   4.967   5.924  1.2573  0.7188 -0.5157
    1DOPE  H18S   81   6.134   5.102   6.039 -2.1963  0.5151 -0.3018
    1DOPE  H18T   82   6.191   5.122   5.867  0.6233 -1.0459 -0.7640
    1DOPE   C33   83   6.119   4.298   6.409  0.2411 -0.3536  0.2089
    1DOPE   H3X   84   6.200   4.228   6.438 -0.6488 -1.1006  0.9699
    1DOPE   H3Y   85   6.158   4.390   6.361  0.7889 -0.0662  1.1618
    1DOPE   C34   86   6.020   4.219   6.319 -0.1074 -0.0440  0.4517
    1DOPE   H4X   87   6.008   4.123   6.373  1.7402  0.0301  1.0704
    1DOPE   H4Y   88   5.930   4.284   6.311  0.3236  0.8897  2.5339
    1DOPE   C35   89   6.084   4.191   6.182 -0.0113 -0.3719  0.1386
    1DOPE   H5X   90   6.176   4.129   6.189  1.6971  2.1500  1.8615
    1DOPE   H5Y   91   6.119   4.286   6.137 -0.0872 -0.0788  0.6800
    1DOPE   C36   92   5.989   4.130   6.082 -0.0324  0.9698 -0.2378
    1DOPE   H6X   93   5.895   4.187   6.070 -1.9045 -1.5948  1.3236
    1DOPE   H6Y   94   5.947   4.047   6.142 -2.1669  1.7230 -0.6054
    1DOPE   C37   95   6.060   4.102   5.949 -0.4012 -0.3262 -0.6768
    1DOPE   H7X   96   6.060   4.202   5.899 -0.8103  0.5630  1.0197
    1DOPE   H7Y   97   6.162   4.060   5.957  0.1256  0.8214 -1.1289
    1DOPE   C38   98   5.974   4.009   5.859 -0.1224  0.5294 -0.0938
    1DOPE   H8X   99   5.989   3.906   5.900 -1.2887  0.6155  0.5869
    1DOPE   H8Y  100   6.023   4.007   5.759  1.1085  1.8971  0.4479
    1DOPE   C39  101   5.823   4.028   5.837  0.1682 -0.1492  0.0855
    1DOPE   H9X  102   5.749   4.007   5.915  0.4494 -1.4303  0.0441
    1DOPE  C310  103   5.775   4.091   5.727 -0.6066 -0.3050 -0.2832
    1DOPE  H10X  104   5.668   4.114   5.721 -0.4995 -0.2228 -2.5649
    1DOPE  C311  105   5.863   4.145   5.614  0.3282  0.3856  0.7046
    1DOPE  H11X  106   5.919   4.235   5.648  2.4209 -1.1438  1.5278
    1DOPE  H11Y  107   5.931   4.066   5.575  1.7139  1.6112  0.5651
    1DOPE  C312  108   5.774   4.187   5.499  0.4172 -0.3408  0.7978
    1DOPE  H12X  109   5.826   4.265   5.439  0.8621 -1.2627 -0.0404
    1DOPE  H12Y  110   5.680   4.234   5.535 -0.8260 -1.5775 -0.6760
    1DOPE  C313  111   5.740   4.068   5.406  0.0544  0.8002 -0.3540
    1DOPE  H13X  112   5.837   4.018   5.384  0.4560  0.5560  1.7758
    1DOPE  H13Y  113   5.684   3.988   5.460 -0.1327  1.5696  0.6133
    1DOPE  C314  114   5.666   4.109   5.281 -0.4315 -0.2492 -0.1809
    1DOPE  H14X  115   5.731   4.175   5.219 -0.9799  1.3648  0.8824
    1DOPE  H14Y  116   5.575   4.168   5.305  1.6056  3.3629 -0.6264
    1DOPE  C315  117   5.643   3.983   5.193  0.1681  0.4054  0.1021
    1DOPE  H15X  118   5.588   3.910   5.256 -0.6092  1.3090  0.4886
    1DOPE  H15Y  119   5.748   3.959   5.168  0.9377  2.1723  1.4455
    1DOPE  C316  120   5.566   4.015   5.065  0.4963 -0.4530 -0.0579
    1DOPE  H16X  121   5.628   4.084   5.004  0.7973 -0.9338 -0.3073
    1DOPE  H16Y  122   5.470   4.070   5.079  0.5670 -0.2506 -0.3660
    1DOPE  C317  123   5.551   3.888   4.982  0.5252  0.5488  0.1864
    1DOPE  H17X  124   5.505   3.921   4.886  0.6004 -2.5461 -1.0010
    1DOPE  H17Y  125   5.649   3.840   4.963  0.1902 -0.5958  1.2216
    1DOPE  C318  126   5.447   3.788   5.040 -0.6336 -0.8084 -0.3939
    1DOPE  H18X  127   5.357   3.842   5.077 -0.4441 -1.1818  0.6408
    1DOPE  H18Y  128   5.421   3.713   4.962 -1.7638 -0.9833  0.1244
    1DOPE  H18Z  129   5.490   3.736   5.128  1.8363  3.3243  1.1307
    2DOPE     N  130   6.326   6.124   6.861  0.2317 -0.3167  0.1621
    2DOPE   HN1  131   6.349   6.218   6.897  1.0230 -0.7473  0.8233
    2DOPE   HN2  132   6.414   6.071   6.843  0.0863 -0.2066 -0.9852
    2DOPE   HN3  133   6.278   6.150   6.773 -0.1972 -0.7447  0.2618
    2DOPE   C12  134   6.225   6.057   6.947  1.0136  0.4881 -0.4238
    2DOPE  H12A  135   6.131   6.116   6.956 -1.3300 -2.3442 -3.6182
    2DOPE  H12B  136   6.276   6.037   7.043  0.1131 -0.5637 -0.1471
    2DOPE   C11  137   6.180   5.917   6.890 -0.8375  0.0312  0.0990
    2DOPE  H11A  138   6.136   5.936   6.790  1.4769 -1.0823 -1.2063
    2DOPE  H11B  139   6.096   5.889   6.957  0.4448  0.9368  2.1645
    2DOPE     P  140   6.269   5.669   6.903 -0.2814 -0.1368  0.2234
    2DOPE   O13  141   6.247   5.650   7.043  0.4384 -0.0282 -0.4225
    2DOPE   O14  142   6.388   5.598   6.844  0.2314 -0.1941  0.0011
    2DOPE   O11  143   6.130   5.639   6.829 -0.4412 -0.1341 -0.8769
    2DOPE   O12  144   6.287   5.827   6.874  0.2225  0.4741  0.0973
    2DOPE    C1  145   6.109   5.683   6.695 -0.1025  0.7699  0.1616
    2DOPE    HA  146   6.173   5.768   6.661  2.9628 -1.7840 -0.9457
    2DOPE    HB  147   6.003   5.710   6.674 -0.0982 -0.1921 -1.2064
    2DOPE    C2  148   6.136   5.563   6.601  0.4771 -0.3137  0.2250
    2DOPE    HS  149   6.245   5.551   6.586  0.5103  0.8572 -0.5832
    2DOPE   O21  150   6.065   5.578   6.477  0.4670 -0.4342 -0.1302
    2DOPE   C21  151   6.130   5.640   6.388 -0.3622 -0.1830 -0.1112
    2DOPE   O22  152   6.226   5.717   6.398  0.3195  0.0862 -0.4875
    2DOPE   C22  153   6.060   5.607   6.249  0.0919  0.8606 -0.0351
    2DOPE   H2R  154   5.955   5.639   6.263 -0.8254 -2.2157  0.9137
    2DOPE   H2S  155   6.064   5.496   6.247 -1.8352  0.6779  2.3907
    2DOPE    C3  156   6.070   5.432   6.648 -0.1121  0.0022 -0.1489
    2DOPE    HX  157   5.964   5.444   6.679  0.2319 -1.0225  1.5437
    2DOPE    HY  158   6.121   5.405   6.743 -1.9024  1.4931  1.3102
    2DOPE   O31  159   6.088   5.329   6.547 -0.0826  0.6992 -0.0250
    2DOPE   C31  160   6.014   5.220   6.564 -0.6293 -0.0348 -0.2321
    2DOPE   O32  161   5.932   5.206   6.653  0.2188 -0.5656 -0.6305
    2DOPE   C32  162   6.048   5.113   6.457  0.1355 -0.2940  0.3509
    2DOPE   H2X  163   6.060   5.167   6.361 -1.3844  0.5058  0.5882
    2DOPE   H2Y  164   6.143   5.062   6.485  1.1299  0.9051 -0.7342
    2DOPE   C23  165   6.129   5.683   6.132 -0.0646 -1.1697 -0.2269
    2DOPE   H3R  166   6.239   5.671   6.125  0.5717  3.4951 -1.6231
    2DOPE   H3S  167   6.113   5.792   6.141  0.9997 -1.1113  1.4684
    2DOPE   C24  168   6.082   5.653   5.990 -0.1404 -0.5399 -0.4780
    2DOPE   H4R  169   6.098   5.744   5.929  1.5508 -0.7797 -0.4216
    2DOPE   H4S  170   5.971   5.644   5.988 -0.3252  0.9476  1.0211
    2DOPE   C25  171   6.128   5.527   5.928  0.2573  0.4611 -0.7423
    2DOPE   H5R  172   6.081   5.443   5.982  0.9495  1.0394  0.8061
    2DOPE   H5S  173   6.235   5.499   5.940  0.0268 -1.3355 -2.4217
    2DOPE   C26  174   6.093   5.521   5.778 -1.2846  0.8916 -0.2726
    2DOPE   H6R  175   6.126   5.422   5.740 -0.0937  0.9900  0.4628
    2DOPE   H6S  176   6.155   5.596   5.724  1.2099 -1.3427 -0.7330
    2DOPE   C27  177   5.945   5.537   5.731 -0.4166 -0.0344 -0.0890
    2DOPE   H7R  178   5.918   5.645   5.737 -0.4646 -0.0204 -0.5168
    2DOPE   H7S  179   5.882   5.478   5.801 -1.1141  1.6194  0.7399
    2DOPE   C28  180   5.919   5.480   5.587  0.5923  0.3867 -0.8654
    2DOPE   H8R  181   5.810   5.477   5.567  0.9794 -1.9972 -3.2158
    2DOPE   H8S  182   5.947   5.372   5.591 -0.0426  0.2178 -0.8185
    2DOPE   C29  183   5.997   5.563   5.482  0.0772  0.3020  0.0941
    2DOPE   H9R  184   6.073   5.637   5.512 -1.6966  2.2942 -0.0390
    2DOPE  C210  185   5.974   5.553   5.350  0.4541 -0.1052 -0.2390
    2DOPE  H10R  186   6.018   5.632   5.287  2.7309  0.9480  2.4459
    2DOPE  C211  187   5.875   5.465   5.277  0.0613 -0.4988 -0.1711
    2DOPE  H11R  188   5.848   5.377   5.339  0.6621  1.4513  3.0482
    2DOPE  H11S  189   5.923   5.427   5.184  0.1639 -1.1150  0.1328
    2DOPE  C212  190   5.745   5.547   5.244 -0.2653 -0.0012  0.8713
    2DOPE  H12R  191   5.774   5.654   5.237  0.2792  0.0873  3.6394
    2DOPE  H12S  192   5.679   5.548   5.333  0.7540 -1.4964  1.6883
    2DOPE  C213  193   5.677   5.500   5.113  0.8325 -0.4162 -0.3755
    2DOPE  H13R  194   5.662   5.390   5.116 -0.7196 -0.2135  0.5609
    2DOPE  H13S  195   5.735   5.533   5.024  0.2252  0.4623 -0.4609
    2DOPE  C214  196   5.544   5.575   5.105 -0.2742  0.1208  0.7818
    2DOPE  H14R  197   5.552   5.686   5.112  0.4307  0.2371 -1.2012
    2DOPE  H14S  198   5.490   5.529   5.191 -1.0613 -2.3357 -0.9307
    2DOPE  C215  199   5.460   5.546   4.982  0.1657  0.2374 -0.1372
    2DOPE  H15R  200   5.475   5.440   4.949 -1.3798  0.8877 -3.2960
    2DOPE  H15S  201   5.485   5.605   4.892  0.8736 -1.2426 -0.9585
    2DOPE  C216  202   5.316   5.549   5.011 -0.4650  0.8216  0.0842
    2DOPE  H16R  203   5.283   5.646   5.055 -0.6149  0.2220  1.3231
    2DOPE  H16S  204   5.300   5.464   5.081 -1.0563 -1.3554 -2.5356
    2DOPE  C217  205   5.230   5.511   4.889  0.5202  0.0982  0.5105
    2DOPE  H17R  206   5.136   5.471   4.932  0.1587 -1.1325 -1.3271
    2DOPE  H17S  207   5.273   5.423   4.836  2.6330  0.9479  0.7252
    2DOPE  C218  208   5.201   5.608   4.778  0.0448 -0.1406  0.1158
    2DOPE  H18R  209   5.128   5.690   4.798  1.5226  1.3695 -0.4101
    2DOPE  H18S  210   5.167   5.544   4.694  1.0366 -0.2858 -0.1790
    2DOPE  H18T  211   5.296   5.657   4.748 -0.2085  0.1993 -0.1459
    2DOPE   C33  212   5.924   5.015   6.454 -0.4106 -0.1271  0.7506
    2DOPE   H3X  213   5.826   5.063   6.435 -0.4707  0.4079  2.2529
    2DOPE   H3Y  214   5.907   4.955   6.546 -0.7736  1.2363  1.5991
    2DOPE   C34  215   5.938   4.922   6.333  0.3100 -0.0317  0.0148
    2DOPE   H4X  216   5.910   4.974   6.239 -1.3062 -2.7678 -1.1579
    2DOPE   H4Y  217   6.042   4.883   6.339  0.2131 -0.4313 -0.7555
    2DOPE   C35  218   5.867   4.785   6.347 -0.7081  0.6307  0.0280
    2DOPE   H5X  219   5.757   4.799   6.359 -0.6676  0.2894  0.8698
    2DOPE   H5Y  220   5.912   4.727   6.430  0.3645  0.8486 -0.3873
    2DOPE   C36  221   5.886   4.692   6.226  0.5257  0.0225 -0.4195
    2DOPE   H6X  222   5.835   4.602   6.265 -0.7873  1.3068  0.9600
    2DOPE   H6Y  223   5.991   4.659   6.213 -0.2011 -1.6309 -2.4683
    2DOPE   C37  224   5.829   4.746   6.093  0.1364 -0.4914 -0.3594
    2DOPE   H7X  225   5.892   4.828   6.053  1.4730 -0.6657  1.2805
    2DOPE   H7Y  226   5.847   4.666   6.019  0.3591 -0.3837 -0.4235
    2DOPE   C38  227   5.677   4.790   6.089 -0.4469  0.4622  0.5507
    2DOPE   H8X  228   5.660   4.872   6.162 -0.0463 -0.2057  1.4137
    2DOPE   H8Y  229   5.611   4.705   6.116 -0.7173  0.7006  0.6400
    2DOPE   C39  230   5.655   4.843   5.948 -0.0778 -0.1869 -0.0954
    2DOPE   H9X  231   5.668   4.951   5.933 -0.7873  0.2553  2.0411
    2DOPE  C310  232   5.615   4.773   5.842 -0.1743 -0.1746 -0.1709
    2DOPE  H10X  233   5.590   4.829   5.750 -0.4800 -0.4923 -0.2821
    2DOPE  C311  234   5.572   4.622   5.843 -0.4826  0.2483 -0.1313
    2DOPE  H11X  235   5.660   4.561   5.813  1.2611  2.5978 -0.0919
    2DOPE  H11Y  236   5.547   4.590   5.946  1.3803 -2.2099 -0.3356
    2DOPE  C312  237   5.453   4.586   5.755  0.0737  0.7024 -0.5326
    2DOPE  H12X  238   5.354   4.634   5.776  0.4687  0.5901  1.8144
    2DOPE  H12Y  239   5.448   4.475   5.767  0.1099  0.5112 -2.1173
    2DOPE  C313  240   5.490   4.617   5.610 -0.1527  0.0987  0.0830
    2DOPE  H13X  241   5.490   4.728   5.612 -0.7406  0.1332  2.9572
    2DOPE  H13Y  242   5.591   4.574   5.593  0.2141  1.3149 -0.9711
    2DOPE  C314  243   5.373   4.583   5.511  0.3416 -0.2185 -0.3745
    2DOPE  H14X  244   5.283   4.627   5.559  0.4630 -1.6611  1.2671
    2DOPE  H14Y  245   5.349   4.475   5.504  0.9895 -0.3299 -1.0676
    2DOPE  C315  246   5.387   4.636   5.366 -0.4442 -0.4830 -0.4519
    2DOPE  H15X  247   5.470   4.583   5.314 -0.4664  0.9765 -2.0755
    2DOPE  H15Y  248   5.412   4.744   5.373  1.7540 -1.0430  1.8951
    2DOPE  C316  249   5.251   4.629   5.295  0.1257  0.0521  0.6616
    2DOPE  H16X  250   5.265   4.702   5.212 -0.6085 -0.5776 -0.0313
    2DOPE  H16Y  251   5.170   4.662   5.363 -0.3290  1.6633 -0.5886
    2DOPE  C317  252   5.226   4.485   5.232 -0.3614  0.6890  0.3322
    2DOPE  H17X  253   5.189   4.423   5.317 -1.0788  0.2673 -0.2765
    2DOPE  H17Y  254   5.139   4.494   5.163 -1.7394 -1.5363  1.6502
    2DOPE  C318  255   5.340   4.411   5.168  0.3224 -0.5875  0.6255
    2DOPE  H18X  256   5.398   4.353   5.243  0.7766 -1.6154 -0.4903
    2DOPE  H18Y  257   5.295   4.337   5.099  1.0169 -2.0918  1.7279
    2DOPE  H18Z  258   5.410   4.473   5.108  1.5302 -2.3837  0.1068
    3DOPE     N  259   3.876   6.090   7.467 -0.3041 -0.5303 -0.4859
    3DOPE   HN1  260   3.825   6.015   7.416 -0.5107 -1.3871  0.9132
    3DOPE   HN2  261   3.919   6.039   7.548  1.3254  0.3068 -0.7923
    3DOPE   HN3  262   3.810   6.166   7.492  0.0702 -0.0517 -0.9390
    3DOPE   C12  263   4.003   6.124   7.390  0.6038 -0.1063 -0.1058
    3DOPE  H12A  264   4.076   6.158   7.466 -1.1625 -0.6698  1.9551
    3DOPE  H12B  265   3.978   6.218   7.337  0.1012  0.0599  0.4069
    3DOPE   C11  266   4.048   6.013   7.301  0.5581 -0.4611 -0.6813
    3DOPE  H11A  267   4.070   5.931   7.372 -0.9426 -0.9104 -0.7085
    3DOPE  H11B  268   4.145   6.029   7.250  1.6398 -2.2024  0.7037
    3DOPE     P  269   3.952   5.959   7.068  0.1361  0.1813  0.0838
    3DOPE   O13  270   3.905   6.082   7.004  0.5124  0.1016  0.0648
    3DOPE   O14  271   3.870   5.841   7.039  0.4962  0.7954  0.1978
    3DOPE   O11  272   4.105   5.930   7.033 -0.5991  0.1904 -0.3127
    3DOPE   O12  273   3.938   5.975   7.217 -0.1412 -0.5392 -0.8219
    3DOPE    C1  274   4.184   6.007   6.940 -0.2095  0.3290  0.2334
    3DOPE    HA  275   4.288   6.011   6.979 -0.7323  1.8772  1.5857
    3DOPE    HB  276   4.147   6.112   6.931 -4.3268 -1.0871 -1.6947
    3DOPE    C2  277   4.187   5.940   6.794  0.0587 -0.4377 -0.6633
    3DOPE    HS  278   4.263   5.990   6.729 -0.6661  1.0157 -0.4268
    3DOPE   O21  279   4.057   5.943   6.730  0.4527  0.0571 -0.4305
    3DOPE   C21  280   4.015   6.060   6.682 -0.5499 -0.3206 -0.4023
    3DOPE   O22  281   4.085   6.160   6.674  0.8210 -0.7365 -0.7716
    3DOPE   C22  282   3.873   6.036   6.625  0.2943  0.0795  0.9037
    3DOPE   H2R  283   3.843   6.111   6.549  0.9780  0.2284  0.7745
    3DOPE   H2S  284   3.811   6.061   6.714 -0.6640  0.6380  0.0959
    3DOPE    C3  285   4.212   5.787   6.809 -0.0045 -0.0257 -0.1165
    3DOPE    HX  286   4.130   5.731   6.859  0.1067 -0.8842 -0.8706
    3DOPE    HY  287   4.294   5.776   6.882 -1.5971 -3.8708  1.3442
    3DOPE   O31  288   4.232   5.721   6.680 -0.0465  0.5818  0.3521
    3DOPE   C31  289   4.353   5.735   6.624 -0.2461 -0.3036 -0.2181
    3DOPE   O32  290   4.447   5.791   6.676 -0.1788  0.7528  0.2473
    3DOPE   C32  291   4.353   5.670   6.486 -0.0439 -0.1079  0.6303
    3DOPE   H2X  292   4.438   5.600   6.474  0.7011  0.7857  0.5910
    3DOPE   H2Y  293   4.274   5.592   6.491 -0.0647 -0.1601 -0.4452
    3DOPE   C23  294   3.833   5.897   6.574 -0.1560  0.3587  0.5065
    3DOPE   H3R  295   3.722   5.893   6.561  0.0153 -1.6103 -0.9020
    3DOPE   H3S  296   3.852   5.815   6.647  0.8708  0.0924 -0.0399
    3DOPE   C24  297   3.903   5.855   6.444 -0.6722 -0.7048 -0.0068
    3DOPE   H4R  298   4.011   5.838   6.461 -0.2760  1.4077 -0.0395
    3DOPE   H4S  299   3.913   5.949   6.384 -1.5013 -1.2670 -1.0612
    3DOPE   C25  300   3.834   5.750   6.362  0.3784  0.1319 -0.0458
    3DOPE   H5R  301   3.724   5.764   6.355  0.5119  0.7808 -1.0744
    3DOPE   H5S  302   3.852   5.654   6.414 -2.8522  0.1437  1.3499
    3DOPE   C26  303   3.900   5.737   6.222  0.2087 -0.0167  0.7669
    3DOPE   H6R  304   3.859   5.649   6.170 -1.8561  0.0348  2.1928
    3DOPE   H6S  305   4.009   5.735   6.243  0.3280  0.2650  0.1829
    3DOPE   C27  306   3.870   5.860   6.122  0.3065  0.0174  0.6965
    3DOPE   H7R  307   3.915   5.953   6.163  0.6859 -0.0119  0.3562
    3DOPE   H7S  308   3.761   5.874   6.107  0.2766 -0.0010  0.9004
    3DOPE   C28  309   3.926   5.829   5.980 -0.8228 -0.0694  0.1493
    3DOPE   H8R  310   3.905   5.721   5.964 -0.9811  0.1551 -1.3391
    3DOPE   H8S  311   4.035   5.847   5.989 -1.2423  1.3416  5.4325
    3DOPE   C29  312   3.878   5.905   5.867  0.7575  0.0272 -0.0996
    3DOPE   H9R  313   3.901   6.012   5.876 -0.4058  0.2439  0.4678
    3DOPE  C210  314   3.813   5.861   5.757  0.4557  0.2831  0.2756
    3DOPE  H10R  315   3.800   5.935   5.677  2.3855  1.2726  0.8345
    3DOPE  C211  316   3.782   5.717   5.720 -0.0318  0.3432 -0.5078
    3DOPE  H11R  317   3.759   5.663   5.815 -1.1646  1.2697 -0.2325
    3DOPE  H11S  318   3.866   5.660   5.675 -0.1428  1.3172 -1.9947
    3DOPE  C212  319   3.669   5.711   5.617  0.5260 -0.1021 -0.1914
    3DOPE  H12R  320   3.593   5.781   5.658 -1.9760 -2.7646  0.0206
    3DOPE  H12S  321   3.616   5.614   5.621  1.3932 -0.5510  2.4362
    3DOPE  C213  322   3.706   5.752   5.466 -0.3599 -0.4889 -0.2087
    3DOPE  H13R  323   3.757   5.851   5.463 -0.3103 -0.5016  0.1742
    3DOPE  H13S  324   3.614   5.772   5.407 -1.0739 -0.7893  0.7607
    3DOPE  C214  325   3.783   5.636   5.393  0.3882  0.4479  0.1058
    3DOPE  H14R  326   3.720   5.544   5.398  2.1245 -0.7312  1.5633
    3DOPE  H14S  327   3.875   5.621   5.453  0.1344  0.9360  0.6198
    3DOPE  C215  328   3.822   5.678   5.250 -0.2244  0.0513  0.3084
    3DOPE  H15R  329   3.868   5.779   5.263 -1.1167  0.9432 -2.6024
    3DOPE  H15S  330   3.734   5.703   5.187  0.5747 -1.8663 -1.7216
    3DOPE  C216  331   3.923   5.582   5.179  0.4854 -0.4565 -0.2681
    3DOPE  H16R  332   3.873   5.490   5.143 -1.7218  1.1163 -1.3981
    3DOPE  H16S  333   4.014   5.564   5.241  0.5384  0.7814  0.0452
    3DOPE  C217  334   3.986   5.639   5.048  0.6087 -0.1395  0.2009
    3DOPE  H17R  335   4.070   5.568   5.031 -0.6441 -1.7502  0.4624
    3DOPE  H17S  336   4.009   5.746   5.066 -2.7184  0.9924 -1.3481
    3DOPE  C218  337   3.889   5.631   4.930  0.4379 -0.0522 -0.6224
    3DOPE  H18R  338   3.934   5.623   4.829 -0.3159 -1.2060 -0.8864
    3DOPE  H18S  339   3.832   5.726   4.928 -0.1392 -0.3797 -0.0628
    3DOPE  H18T  340   3.826   5.540   4.939  0.0895  0.3705  1.7666
    3DOPE   C33  341   4.330   5.770   6.369 -0.8914  0.4661  0.2067
    3DOPE   H3X  342   4.396   5.859   6.378 -0.7702  0.4199 -0.2067
    3DOPE   H3Y  343   4.225   5.806   6.376 -0.6588  1.4834 -1.1144
    3DOPE   C34  344   4.341   5.697   6.233 -0.5618  0.2240 -0.1666
    3DOPE   H4X  345   4.447   5.663   6.231 -0.2104  0.4274  4.4252
    3DOPE   H4Y  346   4.279   5.605   6.228 -1.6976  1.0004 -1.0358
    3DOPE   C35  347   4.306   5.792   6.119  0.3738 -0.1097  0.7720
    3DOPE   H5X  348   4.379   5.876   6.128  0.9922 -0.3835 -1.2366
    3DOPE   H5Y  349   4.201   5.822   6.136  0.4081  1.1580 -0.9863
    3DOPE   C36  350   4.328   5.736   5.976  0.6387 -0.2191  0.5414
    3DOPE   H6X  351   4.433   5.700   5.974 -0.3073 -3.2359  0.3953
    3DOPE   H6Y  352   4.315   5.818   5.902 -0.0950 -1.6337 -0.9655
    3DOPE   C37  353   4.237   5.616   5.940 -0.0884  0.6995  1.0714
    3DOPE   H7X  354   4.236   5.534   6.015 -1.6533 -0.1397  0.1927
    3DOPE   H7Y  355   4.134   5.651   5.918 -0.7097  0.3865  3.2405
    3DOPE   C38  356   4.283   5.548   5.809  0.2101 -0.1794  0.1742
    3DOPE   H8X  357   4.240   5.446   5.817 -0.8039  0.0217 -1.9442
    3DOPE   H8Y  358   4.394   5.537   5.813  0.2719  0.6268  0.7537
    3DOPE   C39  359   4.231   5.616   5.684  0.2202 -0.1673 -0.1896
    3DOPE   H9X  360   4.262   5.721   5.674  0.5929 -0.3389 -0.9306
    3DOPE  C310  361   4.141   5.564   5.600  0.0613  1.2484  0.6445
    3DOPE  H10X  362   4.114   5.618   5.508  2.0355 -1.6355 -1.8258
    3DOPE  C311  363   4.080   5.431   5.611  0.0163 -0.3681 -0.0530
    3DOPE  H11X  364   4.063   5.399   5.716  0.2558 -0.3647 -0.0115
    3DOPE  H11Y  365   3.983   5.424   5.558 -0.0837 -0.5430  0.1511
    3DOPE  C312  366   4.168   5.323   5.545  0.1666 -0.0901  0.5355
    3DOPE  H12X  367   4.270   5.329   5.589  0.6242 -2.2748 -0.1188
    3DOPE  H12Y  368   4.173   5.339   5.436  0.4993  0.3575  0.6149
    3DOPE  C313  369   4.116   5.184   5.573 -0.6344 -0.7260 -0.6423
    3DOPE  H13X  370   4.197   5.109   5.564 -1.2707 -1.4620 -0.3556
    3DOPE  H13Y  371   4.097   5.174   5.682  0.7097 -0.4726 -0.3754
    3DOPE  C314  372   3.989   5.144   5.492 -0.1151  0.2999  0.0722
    3DOPE  H14X  373   3.999   5.168   5.384 -2.5251 -1.5112 -0.6278
    3DOPE  H14Y  374   3.903   5.202   5.531  0.5555  2.1532 -1.0647
    3DOPE  C315  375   3.958   4.991   5.506  0.0416 -0.7181  0.3951
    3DOPE  H15X  376   3.960   4.967   5.614  2.8699 -1.9632  0.1557
    3DOPE  H15Y  377   4.036   4.932   5.453  0.3014 -1.5463  1.6860
    3DOPE  C316  378   3.817   4.952   5.448 -0.1244  0.1894 -0.0333
    3DOPE  H16X  379   3.735   5.024   5.468  2.0085  2.6398  0.4887
    3DOPE  H16Y  380   3.791   4.861   5.506  1.2541  0.8543  1.7205
    3DOPE  C317  381   3.821   4.916   5.294 -0.4215  0.3031 -0.0914
    3DOPE  H17X  382   3.873   4.818   5.287 -1.0770 -0.0032 -0.7245
    3DOPE  H17Y  383   3.717   4.888   5.269  0.6812 -1.7214 -2.9254
    3DOPE  C318  384   3.875   5.030   5.196  0.0680  0.1237  0.1550
    3DOPE  H18X  385   3.822   5.128   5.204  0.6342  0.7304 -2.6746
    3DOPE  H18Y  386   3.984   5.047   5.209  0.0306 -0.7126  1.8269
    3DOPE  H18Z  387   3.859   4.988   5.095 -0.1774  4.2468 -1.7204
    4DOPE     N  388   6.128   3.036   7.016 -0.3255  0.3280 -1.2163
    4DOPE   HN1  389   6.109   3.114   7.082  2.4929 -0.2759  0.5116
    4DOPE   HN2  390   6.223   3.002   7.041 -0.9534 -1.1183 -0.6471
    4DOPE   HN3  391   6.129   3.058   6.914  0.3786 -2.7654 -1.9846
    4DOPE   C12  392   6.019   2.930   7.041 -0.1526 -0.2679  0.4214
    4DOPE  H12A  393   5.924   2.963   6.994 -1.4285 -0.6288  2.6221
    4DOPE  H12B  394   6.008   2.917   7.151  2.0440 -0.0500  0.7055
    4DOPE   C11  395   6.050   2.792   6.985  0.6666 -0.1301  1.2481
    4DOPE  H11A  396   6.070   2.789   6.876 -2.0432 -1.0891  0.6925
    4DOPE  H11B  397   5.963   2.726   7.007  1.0565 -1.1487 -0.1689
    4DOPE     P  398   6.218   2.593   7.030  0.2679 -0.2020 -0.1300
    4DOPE   O13  399   6.250   2.536   7.158  0.2620 -0.0311 -0.6685
    4DOPE   O14  400   6.322   2.590   6.927 -0.0215  0.4726  0.4269
    4DOPE   O11  401   6.088   2.516   6.979 -0.0832  0.4693  0.0651
    4DOPE   O12  402   6.171   2.744   7.045 -0.1866 -0.2824  0.4032
    4DOPE    C1  403   6.107   2.409   6.881  0.1491 -0.1431  0.2238
    4DOPE    HA  404   6.142   2.317   6.933  0.8246 -0.0681 -0.0859
    4DOPE    HB  405   6.186   2.426   6.805 -2.0749  1.6145 -1.8345
    4DOPE    C2  406   5.976   2.382   6.805  0.1816  0.0286  0.1985
    4DOPE    HS  407   6.008   2.303   6.733 -0.8407  0.0260 -0.2762
    4DOPE   O21  408   5.936   2.500   6.734 -0.4228 -0.1086  0.1854
    4DOPE   C21  409   6.014   2.545   6.643 -0.5334  0.7830 -0.5931
    4DOPE   O22  410   6.121   2.497   6.614  0.3306 -0.4128 -0.5564
    4DOPE   C22  411   5.953   2.677   6.587 -0.4292  0.5944  0.8048
    4DOPE   H2R  412   5.956   2.761   6.660  3.1833  1.6285 -0.2824
    4DOPE   H2S  413   5.847   2.653   6.566  0.2573 -0.8024 -1.3938
    4DOPE    C3  414   5.854   2.329   6.890 -0.2304 -0.0363  0.2133
    4DOPE    HX  415   5.811   2.413   6.948 -1.9317 -1.1350  0.6201
    4DOPE    HY  416   5.900   2.261   6.965 -0.0989 -1.3684 -1.0094
    4DOPE   O31  417   5.750   2.249   6.828 -0.6183  0.4069  0.4426
    4DOPE   C31  418   5.639   2.314   6.786  0.0858 -0.1531  0.3408
    4DOPE   O32  419   5.630   2.434   6.768 -0.4197 -0.1394  0.1668
    4DOPE   C32  420   5.524   2.212   6.768  0.2058 -0.4202 -0.1320
    4DOPE   H2X  421   5.558   2.107   6.760  0.0464 -0.3773 -1.6611
    4DOPE   H2Y  422   5.454   2.231   6.853  1.6332  1.9619  0.6315
    4DOPE   C23  423   6.019   2.707   6.446  0.5158 -0.0561 -0.0947
    4DOPE   H3R  424   5.942   2.768   6.394 -0.1000 -0.2802  0.5299
    4DOPE   H3S  425   6.032   2.614   6.388  0.4070 -0.6254  0.7800
    4DOPE   C24  426   6.150   2.793   6.469  0.3111 -0.4108 -0.0773
    4DOPE   H4R  427   6.205   2.721   6.532 -2.4973 -2.1720  0.5375
    4DOPE   H4S  428   6.117   2.879   6.532 -1.7733  1.0718 -2.9318
    4DOPE   C25  429   6.222   2.849   6.352 -0.5067 -0.3013  0.3206
    4DOPE   H5R  430   6.303   2.917   6.388  0.3852 -2.0299  1.7722
    4DOPE   H5S  431   6.142   2.909   6.304  0.3953  0.7942  0.1190
    4DOPE   C26  432   6.268   2.755   6.242 -0.3323  0.1920 -0.2526
    4DOPE   H6R  433   6.206   2.663   6.248  1.3893 -1.1154 -1.3989
    4DOPE   H6S  434   6.368   2.708   6.259 -1.1500 -2.0305 -1.2794
    4DOPE   C27  435   6.275   2.805   6.099  0.2747 -0.2193  0.2943
    4DOPE   H7R  436   6.382   2.808   6.069  0.9047  0.0317  2.4364
    4DOPE   H7S  437   6.255   2.914   6.091  1.1564 -0.1557 -1.8184
    4DOPE   C28  438   6.176   2.743   6.004  0.9594  0.6180 -0.6710
    4DOPE   H8R  439   6.197   2.634   5.998 -0.0784  0.2724  1.1884
    4DOPE   H8S  440   6.188   2.784   5.901  0.5637  1.4644 -0.3841
    4DOPE   C29  441   6.037   2.759   6.061  0.8376 -0.2094  0.0939
    4DOPE   H9R  442   6.021   2.758   6.170  1.7770  0.4942  0.2512
    4DOPE  C210  443   5.927   2.796   5.986 -0.2289 -0.4134 -0.1662
    4DOPE  H10R  444   5.825   2.804   6.024 -0.3997  2.7883 -1.0336
    4DOPE  C211  445   5.927   2.816   5.838  0.1015  0.4262 -0.1611
    4DOPE  H11R  446   6.025   2.832   5.788  0.5200 -1.1906  0.1095
    4DOPE  H11S  447   5.870   2.907   5.808 -1.3313 -0.7137 -0.9931
    4DOPE  C212  448   5.849   2.702   5.777  0.0807  0.5117  0.1427
    4DOPE  H12R  449   5.812   2.721   5.674 -0.2915  0.5904  0.2877
    4DOPE  H12S  450   5.754   2.686   5.832 -1.1855  0.9515 -1.8302
    4DOPE  C213  451   5.927   2.565   5.787  0.0729  0.4512  1.0840
    4DOPE  H13R  452   5.914   2.517   5.886  2.4567 -1.3428  0.6105
    4DOPE  H13S  453   6.036   2.571   5.766 -0.1056 -0.3077 -0.1620
    4DOPE  C214  454   5.869   2.462   5.679 -0.0462  0.2292  0.9201
    4DOPE  H14R  455   5.829   2.518   5.591 -0.3251  0.3821  1.1425
    4DOPE  H14S  456   5.780   2.412   5.720 -0.8617 -0.8751 -1.9442
    4DOPE  C215  457   5.982   2.366   5.631  0.9459 -0.0315  0.1640
    4DOPE  H15R  458   6.049   2.346   5.717  0.0092  2.8700  1.7084
    4DOPE  H15S  459   6.047   2.420   5.558  1.0467 -2.2048 -1.4604
    4DOPE  C216  460   5.937   2.224   5.592  1.1488 -0.2845 -0.1099
    4DOPE  H16R  461   5.885   2.168   5.672 -0.9274  0.5138 -0.8286
    4DOPE  H16S  462   6.036   2.173   5.585  2.2413  1.3214  2.2755
    4DOPE  C217  463   5.859   2.215   5.461  0.4112  0.2628  0.5061
    4DOPE  H17R  464   5.883   2.113   5.426 -1.3674 -0.0626  0.1385
    4DOPE  H17S  465   5.905   2.285   5.388 -0.3010  0.2769  0.0573
    4DOPE  C218  466   5.711   2.235   5.448  0.0091 -0.4224  0.1274
    4DOPE  H18R  467   5.677   2.341   5.452 -0.9832 -0.6979 -0.5273
    4DOPE  H18S  468   5.669   2.196   5.543  0.0754  0.1236  0.3827
    4DOPE  H18T  469   5.677   2.191   5.352 -0.4756  2.4443 -1.1318
    4DOPE   C33  470   5.428   2.244   6.646 -0.4967 -0.7647 -0.0628
    4DOPE   H3X  471   5.393   2.349   6.656  0.6020 -0.5549  2.0737
    4DOPE   H3Y  472   5.334   2.189   6.670 -1.3734  0.3247 -0.8636
    4DOPE   C34  473   5.482   2.220   6.509 -0.3690  0.4717  0.5990
    4DOPE   H4X  474   5.589   2.192   6.516 -0.7459 -1.4662 -0.6476
    4DOPE   H4Y  475   5.427   2.139   6.456 -0.2385  0.4112  0.5558
    4DOPE   C35  476   5.479   2.341   6.411  0.4794  0.9659 -0.0393
    4DOPE   H5X  477   5.375   2.379   6.400 -0.2374 -0.7132  0.6186
    4DOPE   H5Y  478   5.511   2.313   6.309 -1.5906 -0.2552 -0.4171
    4DOPE   C36  479   5.561   2.462   6.461 -0.6485 -0.1048  0.1614
    4DOPE   H6X  480   5.654   2.419   6.503 -0.8423 -0.4116  0.2819
    4DOPE   H6Y  481   5.520   2.508   6.553  0.5420 -0.7219  1.0336
    4DOPE   C37  482   5.598   2.571   6.353 -0.4485 -0.3433  0.2775
    4DOPE   H7X  483   5.650   2.647   6.415  0.6000 -0.6480 -0.2071
    4DOPE   H7Y  484   5.669   2.518   6.286 -1.3473  0.1542 -1.1034
    4DOPE   C38  485   5.481   2.623   6.279  0.8252  0.6265  0.5218
    4DOPE   H8X  486   5.414   2.671   6.354  0.2552 -0.7776  0.9560
    4DOPE   H8Y  487   5.423   2.535   6.242 -2.0155  2.2086  0.8728
    4DOPE   C39  488   5.525   2.722   6.173  0.1177 -0.3428 -0.5289
    4DOPE   H9X  489   5.533   2.828   6.201 -2.4015 -0.1407 -0.3412
    4DOPE  C310  490   5.564   2.689   6.051  0.2487 -0.7756 -0.5131
    4DOPE  H10X  491   5.583   2.772   5.982 -1.6881  0.0597 -0.0807
    4DOPE  C311  492   5.572   2.560   5.980 -0.2905 -0.0877  0.0593
    4DOPE  H11X  493   5.675   2.538   5.944 -0.0954  0.8267  0.0304
    4DOPE  H11Y  494   5.545   2.474   6.044 -1.0004  0.2323  0.2053
    4DOPE  C312  495   5.473   2.549   5.859  0.8726  0.1311  0.2070
    4DOPE  H12X  496   5.528   2.492   5.782 -2.0156 -1.0450 -1.1492
    4DOPE  H12Y  497   5.470   2.651   5.816  0.6974 -0.0237 -0.1485
    4DOPE  C313  498   5.344   2.474   5.899 -0.5198  0.2099  0.3843
    4DOPE  H13X  499   5.352   2.390   5.971 -2.5741  0.2712  0.7367
    4DOPE  H13Y  500   5.279   2.546   5.952 -1.9085 -0.7387  0.0230
    4DOPE  C314  501   5.268   2.424   5.772 -0.4416  0.9862  0.4886
    4DOPE  H14X  502   5.272   2.512   5.705 -0.0168  0.3237 -0.3898
    4DOPE  H14Y  503   5.162   2.403   5.795 -1.1697  0.1316 -2.9828
    4DOPE  C315  504   5.323   2.288   5.714  0.3719  0.2004  0.7894
    4DOPE  H15X  505   5.329   2.209   5.792 -0.6548 -0.3032  0.3788
    4DOPE  H15Y  506   5.428   2.303   5.683  0.0908 -1.2393 -1.0232
    4DOPE  C316  507   5.248   2.241   5.587 -1.1528  0.6603  0.2420
    4DOPE  H16X  508   5.143   2.211   5.606 -1.1664  0.2570 -0.4271
    4DOPE  H16Y  509   5.307   2.154   5.551  2.0453  2.5437  0.5318
    4DOPE  C317  510   5.253   2.342   5.474 -0.6227  0.5612 -0.6782
    4DOPE  H17X  511   5.178   2.423   5.481 -0.4556  0.8211 -1.6096
    4DOPE  H17Y  512   5.352   2.394   5.477 -1.2830  1.7807  2.0458
    4DOPE  C318  513   5.224   2.275   5.340 -0.2354 -0.2795  0.8502
    4DOPE  H18X  514   5.123   2.229   5.336  0.9483 -2.9617 -1.2915
    4DOPE  H18Y  515   5.214   2.351   5.260  0.6357 -0.2693  0.7397
    4DOPE  H18Z  516   5.307   2.210   5.306  1.5736  1.8896  0.9278
    5DOPE     N  517   4.196   5.362   7.401 -0.3550  0.4399  0.6767
    5DOPE   HN1  518   4.209   5.322   7.306  0.9060  0.3503  0.8753
    5DOPE   HN2  519   4.276   5.423   7.427  1.7420 -2.1651  0.7270
    5DOPE   HN3  520   4.178   5.283   7.466 -1.7265  2.1817  2.5518
    5DOPE   C12  521   4.066   5.440   7.410  1.0356  0.1952 -0.3824
    5DOPE  H12A  522   4.081   5.546   7.381  0.6193 -0.4698 -3.3517
    5DOPE  H12B  523   4.046   5.442   7.519  3.6515  2.0509  0.1559
    5DOPE   C11  524   3.950   5.375   7.336  0.0710 -0.0162  0.7621
    5DOPE  H11A  525   3.960   5.356   7.227 -0.4362 -1.0364  0.8789
    5DOPE  H11B  526   3.874   5.454   7.356  0.9063  2.0047 -3.0974
    5DOPE     P  527   3.760   5.221   7.430  0.3214  0.0810  0.0307
    5DOPE   O13  528   3.708   5.322   7.529  0.2797 -1.0823  0.7041
    5DOPE   O14  529   3.745   5.078   7.476  0.4460 -0.2748 -0.8207
    5DOPE   O11  530   3.686   5.241   7.295 -0.3518  0.4261 -0.8851
    5DOPE   O12  531   3.910   5.254   7.395 -0.0337 -0.1529 -0.0770
    5DOPE    C1  532   3.553   5.201   7.287 -0.2553  0.1852  0.3977
    5DOPE    HA  533   3.496   5.292   7.260 -0.4303 -0.3665 -1.2068
    5DOPE    HB  534   3.505   5.157   7.377  0.8830  0.5481  1.2059
    5DOPE    C2  535   3.536   5.094   7.171  0.2451  0.5338  0.0649
    5DOPE    HS  536   3.615   5.018   7.188  1.4839  2.2340  2.4761
    5DOPE   O21  537   3.548   5.160   7.046  0.4273  0.1597 -0.0701
    5DOPE   C21  538   3.583   5.081   6.939  0.0745 -0.2367  0.0703
    5DOPE   O22  539   3.621   4.966   6.944 -0.0946  0.3111  0.0374
    5DOPE   C22  540   3.564   5.163   6.811  0.4114 -0.1380  0.2106
    5DOPE   H2R  541   3.633   5.250   6.805 -0.5188  0.5301 -1.5556
    5DOPE   H2S  542   3.457   5.190   6.798  1.2346  2.3095 -2.4439
    5DOPE    C3  543   3.398   5.017   7.187 -0.5968  0.1291 -0.1817
    5DOPE    HX  544   3.325   5.101   7.184 -1.2287 -0.3668  0.7397
    5DOPE    HY  545   3.398   4.972   7.289 -0.7278  1.5718  0.4931
    5DOPE   O31  546   3.353   4.927   7.083 -0.7273 -0.4620  0.1395
    5DOPE   C31  547   3.360   4.798   7.104 -0.5932  0.2659  0.6838
    5DOPE   O32  548   3.429   4.750   7.195 -0.7319  0.1918 -0.5255
    5DOPE   C32  549   3.278   4.714   7.007  0.0873 -0.7063  0.0915
    5DOPE   H2X  550   3.259   4.616   7.056  0.2309  0.2859  2.2295
    5DOPE   H2Y  551   3.186   4.773   6.986  0.6459 -0.2550 -1.1719
    5DOPE   C23  552   3.595   5.075   6.693 -0.6274 -0.5288 -0.0933
    5DOPE   H3R  553   3.520   4.993   6.698 -1.3881  0.1501 -0.2345
    5DOPE   H3S  554   3.692   5.022   6.699 -1.2880 -1.6453  2.6103
    5DOPE   C24  555   3.591   5.159   6.561  0.1121  1.2119 -0.5449
    5DOPE   H4R  556   3.679   5.227   6.554 -0.3701  1.7575 -1.3964
    5DOPE   H4S  557   3.496   5.215   6.549 -1.8661 -1.7548  0.0738
    5DOPE   C25  558   3.603   5.062   6.432  0.0913 -0.1738  1.1609
    5DOPE   H5R  559   3.506   5.007   6.441 -0.9360  0.9685 -1.7160
    5DOPE   H5S  560   3.688   4.991   6.443  0.3516 -0.3812 -1.5318
    5DOPE   C26  561   3.599   5.139   6.301  0.2950  0.7046  1.6210
    5DOPE   H6R  562   3.683   5.212   6.299  0.1131  0.9143  1.5837
    5DOPE   H6S  563   3.515   5.209   6.280  0.5158  0.2960 -0.9657
    5DOPE   C27  564   3.598   5.038   6.186 -0.2370 -0.2713  1.2963
    5DOPE   H7R  565   3.528   4.952   6.202 -0.0942 -2.0826 -5.1704
    5DOPE   H7S  566   3.692   4.980   6.186 -0.2200 -0.2449  0.5063
    5DOPE   C28  567   3.572   5.110   6.047 -0.1076 -0.0965 -0.2747
    5DOPE   H8R  568   3.500   5.190   6.074 -0.6486 -1.0386  1.2265
    5DOPE   H8S  569   3.508   5.045   5.983 -0.4905  1.4739 -1.5386
    5DOPE   C29  570   3.693   5.171   5.973 -0.4458 -0.2872  0.2918
    5DOPE   H9R  571   3.745   5.249   6.031  0.3557 -2.2430  2.3604
    5DOPE  C210  572   3.718   5.146   5.842  0.3310  0.5890 -0.3483
    5DOPE  H10R  573   3.818   5.166   5.801  1.5765 -2.0583  1.0806
    5DOPE  C211  574   3.637   5.061   5.748 -0.1090  0.8386 -0.1205
    5DOPE  H11R  575   3.591   4.973   5.800 -0.1684 -0.4413 -2.2263
    5DOPE  H11S  576   3.710   5.004   5.687 -1.4115 -0.5770 -0.4302
    5DOPE  C212  577   3.551   5.140   5.653 -0.0531  0.3892  0.2063
    5DOPE  H12R  578   3.548   5.094   5.552  2.4618  0.3672  0.0852
    5DOPE  H12S  579   3.592   5.241   5.630  0.9412 -0.0109  0.1832
    5DOPE  C213  580   3.402   5.146   5.684 -0.1110 -0.5938  0.1099
    5DOPE  H13R  581   3.376   5.210   5.771 -1.9247  0.9580 -1.4698
    5DOPE  H13S  582   3.362   5.045   5.706 -1.1912 -1.1711 -3.7399
    5DOPE  C214  583   3.320   5.202   5.566  0.7451  0.6500 -0.2505
    5DOPE  H14R  584   3.329   5.135   5.478 -2.8169 -1.0368  0.4790
    5DOPE  H14S  585   3.350   5.304   5.535  3.5241 -0.6451 -2.1470
    5DOPE  C215  586   3.170   5.205   5.599  0.2232  0.3079 -0.0283
    5DOPE  H15R  587   3.108   5.284   5.550 -2.1042 -0.8123  0.9625
    5DOPE  H15S  588   3.162   5.210   5.710 -0.1885  0.4850 -0.0633
    5DOPE  C216  589   3.096   5.075   5.563 -0.5909  0.5636 -0.0628
    5DOPE  H16R  590   3.152   4.989   5.606  0.2468 -0.6001 -3.2457
    5DOPE  H16S  591   3.081   5.058   5.454 -3.4505 -2.2425  0.6012
    5DOPE  C217  592   2.953   5.069   5.621 -0.1668  0.5826  0.2855
    5DOPE  H17R  593   2.930   5.177   5.621 -3.1804  0.0189 -0.4557
    5DOPE  H17S  594   2.962   5.052   5.731 -1.0010  0.8701  0.4045
    5DOPE  C218  595   2.856   4.992   5.530 -0.2258 -0.2040  0.1004
    5DOPE  H18R  596   2.911   4.899   5.505  1.5620  0.8558 -0.1344
    5DOPE  H18S  597   2.838   5.053   5.439 -0.5401 -0.4239  0.0164
    5DOPE  H18T  598   2.757   4.974   5.577 -0.6489  0.9719 -0.3012
    5DOPE   C33  599   3.356   4.699   6.875 -0.4659 -0.1876 -0.6782
    5DOPE   H3X  600   3.409   4.792   6.849 -1.1097  0.5730  0.6269
    5DOPE   H3Y  601   3.299   4.663   6.787  1.1879 -1.0153 -1.4594
    5DOPE   C34  602   3.469   4.597   6.888  0.6828  0.6638 -0.6597
    5DOPE   H4X  603   3.539   4.641   6.962 -1.7327  0.6679  1.7772
    5DOPE   H4Y  604   3.427   4.502   6.926  0.8000 -0.0899 -2.3398
    5DOPE   C35  605   3.539   4.564   6.756  0.2010  0.3625  0.0063
    5DOPE   H5X  606   3.640   4.523   6.777 -0.0431 -0.2577  0.0199
    5DOPE   H5Y  607   3.561   4.656   6.699  1.3619 -0.9201 -1.7270
    5DOPE   C36  608   3.463   4.457   6.680 -0.2094  0.7473 -0.7563
    5DOPE   H6X  609   3.358   4.493   6.664 -0.1601  0.4192 -1.8997
    5DOPE   H6Y  610   3.467   4.358   6.729 -0.2098  2.4459  3.0083
    5DOPE   C37  611   3.509   4.431   6.536 -0.5542  0.3290  0.0613
    5DOPE   H7X  612   3.490   4.525   6.480  2.6484  0.1564 -1.5339
    5DOPE   H7Y  613   3.616   4.405   6.548 -1.2686 -1.9724  2.7253
    5DOPE   C38  614   3.450   4.313   6.462  0.4360 -0.2915 -0.4097
    5DOPE   H8X  615   3.347   4.308   6.503 -0.1094 -0.2206 -1.7231
    5DOPE   H8Y  616   3.513   4.226   6.490  1.2871  0.4997  0.2086
    5DOPE   C39  617   3.439   4.335   6.316 -0.8747 -0.0778 -0.1395
    5DOPE   H9X  618   3.371   4.414   6.280 -1.3280 -0.0563  0.7436
    5DOPE  C310  619   3.516   4.272   6.223  0.0851  0.3753 -0.1071
    5DOPE  H10X  620   3.517   4.309   6.119 -0.9831  1.7572  0.3517
    5DOPE  C311  621   3.621   4.172   6.250 -0.2253  0.3805  0.2210
    5DOPE  H11X  622   3.615   4.140   6.356 -0.1700  1.4864  0.5711
    5DOPE  H11Y  623   3.602   4.083   6.186  1.2079  0.8346 -0.8872
    5DOPE  C312  624   3.772   4.211   6.213 -0.3647  0.7222 -0.0726
    5DOPE  H12X  625   3.779   4.221   6.102  1.0337  2.9496  0.1726
    5DOPE  H12Y  626   3.830   4.119   6.239 -1.2538 -0.4568 -2.0183
    5DOPE  C313  627   3.832   4.333   6.286 -0.3477  0.5170  0.0355
    5DOPE  H13X  628   3.769   4.418   6.253 -0.1149  1.8430  2.7290
    5DOPE  H13Y  629   3.817   4.309   6.393 -0.6768  1.1480  0.1303
    5DOPE  C314  630   3.976   4.374   6.267 -0.1370 -0.1135 -0.0305
    5DOPE  H14X  631   3.987   4.404   6.160 -0.4421 -1.6217 -0.5120
    5DOPE  H14Y  632   4.049   4.297   6.299 -1.6296 -1.5956 -0.0736
    5DOPE  C315  633   4.017   4.503   6.342 -0.2918  0.6193 -0.3195
    5DOPE  H15X  634   3.930   4.570   6.361 -0.5346 -0.0643  1.1391
    5DOPE  H15Y  635   4.085   4.571   6.285 -2.8246  0.9745 -3.2052
    5DOPE  C316  636   4.080   4.480   6.478  0.0036 -0.1065 -0.3060
    5DOPE  H16X  637   4.168   4.412   6.480 -1.1903 -1.6823  1.0987
    5DOPE  H16Y  638   3.997   4.435   6.537  0.1258  1.6018  1.2627
    5DOPE  C317  639   4.111   4.611   6.541 -0.2057 -0.0160 -0.4819
    5DOPE  H17X  640   4.199   4.652   6.487  0.8352 -0.6510  0.6850
    5DOPE  H17Y  641   4.027   4.683   6.535 -0.5605 -0.4310 -0.5548
    5DOPE  C318  642   4.147   4.598   6.692 -0.2956  0.7227 -0.1064
    5DOPE  H18X  643   4.208   4.509   6.717 -0.8599  0.1397 -0.7801
    5DOPE  H18Y  644   4.197   4.695   6.716 -1.1354  1.1714 -0.1281
    5DOPE  H18Z  645   4.054   4.600   6.753  0.4794  0.0773  1.1295
    6DOPE     N  646   3.082   5.893   7.444 -0.2436 -0.3260  0.1171
    6DOPE   HN1  647   3.096   5.965   7.372 -2.0469  0.5504  0.5771
    6DOPE   HN2  648   2.983   5.861   7.436 -0.1673 -1.8576  3.4569
    6DOPE   HN3  649   3.089   5.932   7.540 -1.8172  0.2683  0.0250
    6DOPE   C12  650   3.170   5.770   7.413 -0.3581  0.2263  0.4428
    6DOPE  H12A  651   3.246   5.768   7.494  0.0029 -2.2133  0.1072
    6DOPE  H12B  652   3.225   5.787   7.318  2.0889  2.4962  2.1156
    6DOPE   C11  653   3.076   5.647   7.410  0.1549  0.4768 -0.1098
    6DOPE  H11A  654   3.018   5.652   7.505 -1.8221  1.6856 -1.2915
    6DOPE  H11B  655   3.127   5.549   7.401 -2.2778 -1.0868  1.7280
    6DOPE     P  656   2.900   5.526   7.250  0.0126  0.3318 -0.3388
    6DOPE   O13  657   2.773   5.562   7.174  0.9544 -0.6397  0.0914
    6DOPE   O14  658   2.880   5.445   7.371 -0.4546 -0.2974  0.1982
    6DOPE   O11  659   2.994   5.453   7.152  0.3528  0.5694  0.9538
    6DOPE   O12  660   2.978   5.656   7.302  0.0589  0.1538 -0.5352
    6DOPE    C1  661   3.132   5.465   7.134 -0.4617 -0.4433 -0.1852
    6DOPE    HA  662   3.185   5.390   7.197 -0.8956  0.0271  0.7590
    6DOPE    HB  663   3.169   5.562   7.173 -0.5149 -1.2768  2.0830
    6DOPE    C2  664   3.177   5.444   6.992  0.3954 -0.2185  0.1865
    6DOPE    HS  665   3.104   5.499   6.928 -3.1162 -2.8895  1.5582
    6DOPE   O21  666   3.162   5.303   6.963  0.1471  0.0306 -0.5548
    6DOPE   C21  667   3.110   5.273   6.845 -0.1950 -0.7940 -0.1499
    6DOPE   O22  668   3.077   5.357   6.756  0.0568  0.1092 -0.5749
    6DOPE   C22  669   3.130   5.123   6.822 -0.8536 -0.6157  0.6401
    6DOPE   H2R  670   3.083   5.078   6.912  1.8870 -0.3608  2.3449
    6DOPE   H2S  671   3.239   5.099   6.830 -0.8170  0.0111  2.6406
    6DOPE    C3  672   3.322   5.484   6.959 -0.5076 -0.1018 -0.0083
    6DOPE    HX  673   3.389   5.413   7.012 -1.4472 -0.5949  0.5454
    6DOPE    HY  674   3.338   5.583   7.006 -2.0765  0.0978  0.1516
    6DOPE   O31  675   3.366   5.481   6.818  0.2864 -1.1183  0.4545
    6DOPE   C31  676   3.311   5.581   6.741  0.1579  0.3483 -0.2344
    6DOPE   O32  677   3.247   5.676   6.785  0.0186  0.5024 -0.5469
    6DOPE   C32  678   3.338   5.540   6.601 -0.0868  0.1674  0.1834
    6DOPE   H2X  679   3.314   5.432   6.590  0.2497  0.1229 -0.1415
    6DOPE   H2Y  680   3.277   5.616   6.548  1.1969  0.4524 -0.9396
    6DOPE   C23  681   3.055   5.067   6.699  0.4702  0.0444  0.0052
    6DOPE   H3R  682   3.079   5.138   6.617  0.0991 -2.1015 -2.0772
    6DOPE   H3S  683   2.946   5.079   6.716  0.1753  0.0105 -1.7139
    6DOPE   C24  684   3.095   4.924   6.659  0.2513 -0.6263 -0.6329
    6DOPE   H4R  685   3.082   4.863   6.750 -2.9452 -0.2898 -0.7562
    6DOPE   H4S  686   3.202   4.918   6.628  0.1376 -1.9181 -0.8321
    6DOPE   C25  687   3.005   4.866   6.544  0.6128 -0.5010 -0.1623
    6DOPE   H5R  688   2.979   4.955   6.482 -1.2336  0.7372  2.1933
    6DOPE   H5S  689   2.905   4.840   6.583 -1.5860  4.3993 -1.7221
    6DOPE   C26  690   3.075   4.765   6.465  0.6732  0.1306 -0.3805
    6DOPE   H6R  691   3.133   4.697   6.529 -0.9238  0.6249  1.6937
    6DOPE   H6S  692   3.156   4.813   6.405  0.6065 -1.9128 -2.2449
    6DOPE   C27  693   2.970   4.684   6.383  0.5552 -0.5914  0.7008
    6DOPE   H7R  694   2.897   4.755   6.339  0.6289 -1.0864 -0.2639
    6DOPE   H7S  695   2.907   4.624   6.452 -1.8033  0.2118 -0.6433
    6DOPE   C28  696   3.039   4.610   6.266  0.1675 -0.0209  0.3237
    6DOPE   H8R  697   3.119   4.549   6.312 -0.4262 -1.1811 -0.1598
    6DOPE   H8S  698   3.089   4.683   6.197 -2.3204 -0.8703 -2.6183
    6DOPE   C29  699   2.941   4.537   6.184  0.1734 -0.4160  0.0816
    6DOPE   H9R  700   2.853   4.596   6.154  0.9439  1.1133  0.7081
    6DOPE  C210  701   2.949   4.405   6.154 -0.1877  0.3276 -0.3510
    6DOPE  H10R  702   2.862   4.373   6.094 -1.7151  1.5999  1.0742
    6DOPE  C211  703   3.053   4.308   6.197 -0.4553 -0.4141 -0.3352
    6DOPE  H11R  704   3.004   4.216   6.235 -1.6631 -0.0972 -1.0798
    6DOPE  H11S  705   3.118   4.344   6.280 -1.2291 -0.6070  0.3686
    6DOPE  C212  706   3.133   4.265   6.074 -0.0933  0.3236 -0.1559
    6DOPE  H12R  707   3.058   4.230   6.000 -0.1947  0.7386 -0.2515
    6DOPE  H12S  708   3.198   4.181   6.106 -1.6337 -0.4705  1.0210
    6DOPE  C213  709   3.200   4.378   6.000  0.0979 -0.3852  0.2529
    6DOPE  H13R  710   3.291   4.406   6.057  1.0292 -2.7019  0.0414
    6DOPE  H13S  711   3.130   4.463   5.987  0.6841 -0.0949 -1.1674
    6DOPE  C214  712   3.238   4.337   5.860  0.2704  0.3095 -0.0009
    6DOPE  H14R  713   3.147   4.304   5.806  1.5433  1.2385 -2.9279
    6DOPE  H14S  714   3.295   4.242   5.866 -0.3381 -0.0973 -0.5430
    6DOPE  C215  715   3.313   4.449   5.793  0.1278 -0.0289  1.1527
    6DOPE  H15R  716   3.414   4.450   5.837  0.3640  0.3897  0.6112
    6DOPE  H15S  717   3.257   4.544   5.803 -0.5237 -0.3678  0.8217
    6DOPE  C216  718   3.320   4.440   5.647  0.3148  0.0607  0.3753
    6DOPE  H16R  719   3.213   4.440   5.616  0.7325  0.3629 -1.1796
    6DOPE  H16S  720   3.366   4.341   5.623  0.9114  0.0463  1.4879
    6DOPE  C217  721   3.399   4.549   5.587  0.3150 -0.3467  0.3010
    6DOPE  H17R  722   3.410   4.537   5.477 -0.4022 -1.4071  0.3288
    6DOPE  H17S  723   3.501   4.549   5.630  0.6256 -1.6786 -0.3966
    6DOPE  C218  724   3.342   4.697   5.592 -0.1780  0.1463 -0.2993
    6DOPE  H18R  725   3.330   4.740   5.694  2.4064  1.8330 -0.6214
    6DOPE  H18S  726   3.242   4.704   5.545  0.2295  0.4205 -1.1525
    6DOPE  H18T  727   3.400   4.772   5.534  0.6442 -0.2591 -0.0239
    6DOPE   C33  728   3.478   5.581   6.550 -0.2905  0.0997 -0.1382
    6DOPE   H3X  729   3.556   5.571   6.628 -0.1120  2.3780  0.0479
    6DOPE   H3Y  730   3.480   5.692   6.541 -1.8681  0.2133  0.5805
    6DOPE   C34  731   3.521   5.541   6.402 -0.7027  0.3139 -0.5064
    6DOPE   H4X  732   3.627   5.575   6.395 -0.1230 -0.9940  1.2290
    6DOPE   H4Y  733   3.519   5.431   6.388  2.1218  0.3552 -2.0178
    6DOPE   C35  734   3.433   5.606   6.294 -0.2962 -0.0216 -0.8261
    6DOPE   H5X  735   3.455   5.714   6.290  1.9761 -0.4299 -1.1495
    6DOPE   H5Y  736   3.326   5.600   6.321 -0.0975 -0.3270 -0.0546
    6DOPE   C36  737   3.459   5.544   6.158  0.4336  0.8711 -0.8003
    6DOPE   H6X  738   3.469   5.434   6.172  0.2091  0.8932 -0.4389
    6DOPE   H6Y  739   3.555   5.580   6.117  0.4715  0.0042 -1.4983
    6DOPE   C37  740   3.345   5.570   6.059  0.5653 -0.6802 -0.1397
    6DOPE   H7X  741   3.266   5.494   6.076 -0.3993  0.1701 -0.6912
    6DOPE   H7Y  742   3.312   5.673   6.085 -0.4056 -0.7447 -1.0539
    6DOPE   C38  743   3.393   5.578   5.914 -0.1262 -0.1974  0.7238
    6DOPE   H8X  744   3.488   5.523   5.898  0.6524  1.3046 -0.0518
    6DOPE   H8Y  745   3.415   5.685   5.895 -1.1420  0.2284  1.8693
    6DOPE   C39  746   3.294   5.514   5.825  0.9456 -0.0891 -0.0819
    6DOPE   H9X  747   3.254   5.415   5.851 -2.5035  1.1429 -0.1725
    6DOPE  C310  748   3.239   5.571   5.717  0.1373 -0.2144  0.3395
    6DOPE  H10X  749   3.166   5.515   5.658 -0.1201 -1.0611  1.4351
    6DOPE  C311  750   3.275   5.706   5.663 -0.0705 -0.1620  0.1870
    6DOPE  H11X  751   3.215   5.784   5.714  0.4355  0.6148 -0.3871
    6DOPE  H11Y  752   3.378   5.739   5.689 -0.3442 -0.5384  1.8731
    6DOPE  C312  753   3.254   5.729   5.512 -0.1622 -0.3427 -0.2498
    6DOPE  H12X  754   3.290   5.830   5.482  1.4931 -1.1373 -1.0794
    6DOPE  H12Y  755   3.146   5.723   5.487  0.0642  0.7628 -1.6179
    6DOPE  C313  756   3.329   5.630   5.420  0.2675 -0.5812  0.6750
    6DOPE  H13X  757   3.430   5.614   5.464  1.8033  1.2241 -1.9084
    6DOPE  H13Y  758   3.285   5.528   5.422  0.8509 -0.9396 -1.7675
    6DOPE  C314  759   3.342   5.689   5.282  0.2411 -0.5263  0.4425
    6DOPE  H14X  760   3.395   5.785   5.298 -2.4258  0.9688  0.9366
    6DOPE  H14Y  761   3.241   5.716   5.243  0.5168 -0.0452  0.0451
    6DOPE  C315  762   3.424   5.599   5.191 -0.3246  0.2506  0.0848
    6DOPE  H15X  763   3.385   5.496   5.201  1.0704 -0.2387  0.7032
    6DOPE  H15Y  764   3.530   5.583   5.220 -0.7361  0.0092  1.5175
    6DOPE  C316  765   3.411   5.642   5.041  0.5560  0.1843  0.5804
    6DOPE  H16X  766   3.458   5.741   5.023  3.4638 -1.1461  0.2658
    6DOPE  H16Y  767   3.306   5.638   5.004  0.7610 -1.0528  0.1075
    6DOPE  C317  768   3.504   5.566   4.951  0.2807 -0.0832  0.7088
    6DOPE  H17X  769   3.601   5.565   5.004  1.1857 -1.3597 -0.8916
    6DOPE  H17Y  770   3.475   5.459   4.949  1.0737 -0.3015 -0.4051
    6DOPE  C318  771   3.528   5.617   4.805 -0.2395 -0.5454 -0.0237
    6DOPE  H18X  772   3.586   5.710   4.820 -0.8999 -0.2696  0.8537
    6DOPE  H18Y  773   3.598   5.542   4.759  2.2710  1.0550  0.9611
    6DOPE  H18Z  774   3.440   5.642   4.743 -0.1068 -0.1981 -0.0740
    7DOPE     N  775   5.144   5.577   7.201  0.2655 -0.4066 -0.0676
    7DOPE   HN1  776   5.083   5.523   7.266 -2.2101  0.8149 -1.2393
    7DOPE   HN2  777   5.180   5.514   7.127  0.7157 -0.4269  0.1669
    7DOPE   HN3  778   5.219   5.621   7.258  0.3091 -0.1864 -0.2949
    7DOPE   C12  779   5.050   5.679   7.144  0.0225  0.0509 -0.9875
    7DOPE  H12A  780   5.031   5.641   7.041 -2.2678 -2.3161  0.2053
    7DOPE  H12B  781   5.102   5.776   7.137  0.2127  0.1918  1.5120
    7DOPE   C11  782   4.925   5.680   7.215  0.1562 -0.1975  0.3279
    7DOPE  H11A  783   4.836   5.718   7.160  0.1248  3.0260  2.2760
    7DOPE  H11B  784   4.939   5.758   7.294  0.3100 -0.5020  0.6047
    7DOPE     P  785   4.812   5.453   7.180  0.0072 -0.2725 -0.3363
    7DOPE   O13  786   4.684   5.421   7.246  0.0966  0.7847  0.0196
    7DOPE   O14  787   4.907   5.339   7.155  0.0589 -0.0135 -0.0353
    7DOPE   O11  788   4.787   5.523   7.042 -0.0131  0.0345 -0.4685
    7DOPE   O12  789   4.893   5.551   7.278 -0.3580 -0.0653  0.4343
    7DOPE    C1  790   4.653   5.569   7.003 -0.1568  0.4210  0.3641
    7DOPE    HA  791   4.624   5.669   7.045  0.2826  1.5030 -1.7799
    7DOPE    HB  792   4.578   5.499   7.044  1.6130 -0.9134  1.4874
    7DOPE    C2  793   4.639   5.566   6.842  0.1298  0.1514 -0.5069
    7DOPE    HS  794   4.550   5.627   6.816 -0.4566 -1.3640 -2.3381
    7DOPE   O21  795   4.631   5.433   6.790 -0.0780  0.7088 -0.4032
    7DOPE   C21  796   4.516   5.368   6.807 -1.1990  0.3817 -0.2797
    7DOPE   O22  797   4.416   5.421   6.851  0.0734  0.1591  0.0131
    7DOPE   C22  798   4.524   5.226   6.742 -0.2508 -0.0872 -0.3311
    7DOPE   H2R  799   4.512   5.163   6.832  1.7066 -0.6971 -0.4447
    7DOPE   H2S  800   4.627   5.207   6.705  0.8224  0.0790  2.3371
    7DOPE    C3  801   4.767   5.637   6.782 -0.3012  0.0746 -0.2634
    7DOPE    HX  802   4.858   5.574   6.791 -1.4244 -1.7598 -1.0053
    7DOPE    HY  803   4.787   5.726   6.845 -0.6822 -0.7840  1.1209
    7DOPE   O31  804   4.738   5.671   6.651  0.0248 -0.1527  0.3386
    7DOPE   C31  805   4.790   5.786   6.605  0.3734 -0.1114 -0.6426
    7DOPE   O32  806   4.856   5.867   6.668 -0.0140 -0.2436 -0.5712
    7DOPE   C32  807   4.751   5.807   6.457  0.0561  0.4138 -0.4860
    7DOPE   H2X  808   4.820   5.743   6.399 -0.8273  0.6365 -1.8408
    7DOPE   H2Y  809   4.651   5.764   6.437 -0.5353  1.3659  0.3111
    7DOPE   C23  810   4.414   5.183   6.653  0.5199  0.3098  0.2919
    7DOPE   H3R  811   4.320   5.169   6.710  0.2461  0.9071 -0.0059
    7DOPE   H3S  812   4.455   5.086   6.619 -0.7419  0.0949 -0.7024
    7DOPE   C24  813   4.398   5.259   6.512 -0.8300 -0.3719 -0.4410
    7DOPE   H4R  814   4.356   5.356   6.546  1.5265  0.7175 -0.3832
    7DOPE   H4S  815   4.330   5.214   6.437 -2.6126  2.1930 -0.4805
    7DOPE   C25  816   4.540   5.291   6.452 -0.2344 -0.1798  0.1162
    7DOPE   H5R  817   4.602   5.200   6.440  1.7079  1.4435 -4.0148
    7DOPE   H5S  818   4.593   5.350   6.530 -0.3650 -1.2276  1.0313
    7DOPE   C26  819   4.523   5.368   6.318 -0.2625  0.0103 -0.0353
    7DOPE   H6R  820   4.622   5.385   6.271  0.3218  1.8750  1.7484
    7DOPE   H6S  821   4.484   5.471   6.330  0.0246  0.4400 -2.4209
    7DOPE   C27  822   4.452   5.284   6.216 -0.2067  0.1603  0.8606
    7DOPE   H7R  823   4.345   5.295   6.243 -0.1064  3.0478  0.3855
    7DOPE   H7S  824   4.499   5.184   6.227 -1.4323 -0.3174  1.9878
    7DOPE   C28  825   4.466   5.328   6.067  0.1738 -0.2606 -0.2139
    7DOPE   H8R  826   4.574   5.349   6.052  0.2158 -0.8760 -0.8359
    7DOPE   H8S  827   4.419   5.423   6.034 -0.0666 -0.4088 -0.3011
    7DOPE   C29  828   4.409   5.220   5.973  0.0584  0.4425 -0.1355
    7DOPE   H9R  829   4.300   5.213   5.976  0.0144 -1.5649 -2.9218
    7DOPE  C210  830   4.469   5.152   5.873 -0.3057 -0.2995 -0.2750
    7DOPE  H10R  831   4.419   5.075   5.811  1.9541 -2.4929  0.4422
    7DOPE  C211  832   4.616   5.166   5.832 -0.3125  0.3912 -0.4837
    7DOPE  H11R  833   4.673   5.076   5.863  0.6861  0.2100 -2.6850
    7DOPE  H11S  834   4.654   5.258   5.881  1.3381 -1.0063  1.0024
    7DOPE  C212  835   4.635   5.175   5.680  0.4888  0.2069  0.1037
    7DOPE  H12R  836   4.571   5.099   5.630 -0.4391 -0.1168  1.7274
    7DOPE  H12S  837   4.739   5.157   5.645 -0.4652 -3.3120 -1.3303
    7DOPE  C213  838   4.586   5.317   5.622 -0.8221  0.9441 -0.2931
    7DOPE  H13R  839   4.661   5.394   5.652  0.7508 -0.9582  0.9045
    7DOPE  H13S  840   4.493   5.347   5.673 -0.0448  0.9188  1.1985
    7DOPE  C214  841   4.573   5.319   5.468 -0.5930 -0.1891 -0.2378
    7DOPE  H14R  842   4.547   5.424   5.446  1.0824  0.8753  2.3473
    7DOPE  H14S  843   4.489   5.256   5.431  0.4280 -1.3789 -0.6114
    7DOPE  C215  844   4.702   5.265   5.393  0.1467  0.1668  0.2206
    7DOPE  H15R  845   4.731   5.163   5.427  3.0256  0.7063 -0.3532
    7DOPE  H15S  846   4.789   5.330   5.418  0.6630 -0.6541  0.6020
    7DOPE  C216  847   4.695   5.278   5.242  0.2706  0.2671 -0.4028
    7DOPE  H16R  848   4.659   5.378   5.209 -2.6575 -0.6351 -0.2267
    7DOPE  H16S  849   4.626   5.198   5.207  2.0673 -1.7492  0.4139
    7DOPE  C217  850   4.825   5.233   5.164 -0.2731  0.0700  0.4598
    7DOPE  H17R  851   4.841   5.126   5.186 -1.2255 -0.4791 -1.3154
    7DOPE  H17S  852   4.903   5.303   5.202  0.8488 -1.2427  0.6682
    7DOPE  C218  853   4.817   5.249   5.015 -0.7619 -0.0091 -1.1235
    7DOPE  H18R  854   4.779   5.351   4.994  1.8550  0.6654 -3.1361
    7DOPE  H18S  855   4.750   5.171   4.972  0.4751 -2.4060  1.0032
    7DOPE  H18T  856   4.917   5.235   4.970 -0.3545  1.9097 -0.8938
    7DOPE   C33  857   4.769   5.953   6.414  0.0889  1.0456 -0.1280
    7DOPE   H3X  858   4.877   5.982   6.416  0.5310 -0.5348  1.6725
    7DOPE   H3Y  859   4.715   6.018   6.486 -1.4511  0.2511 -0.5476
    7DOPE   C34  860   4.707   5.991   6.279 -0.2023 -0.2131  0.1395
    7DOPE   H4X  861   4.755   5.930   6.200  0.1993 -2.2810  1.8885
    7DOPE   H4Y  862   4.601   5.958   6.279  0.0056 -0.9750  1.3781
    7DOPE   C35  863   4.716   6.139   6.248 -0.8470 -0.0104 -0.6099
    7DOPE   H5X  864   4.824   6.166   6.253 -1.0285  0.6829 -0.3671
    7DOPE   H5Y  865   4.669   6.207   6.322 -2.1687  0.2952 -1.7163
    7DOPE   C36  866   4.660   6.147   6.103  0.4487 -0.9834  0.4748
    7DOPE   H6X  867   4.559   6.104   6.088  0.6876 -0.7365 -2.3869
    7DOPE   H6Y  868   4.723   6.083   6.037  0.3309 -0.1141 -0.5013
    7DOPE   C37  869   4.661   6.294   6.056  0.1880 -0.6388 -0.5809
    7DOPE   H7X  870   4.579   6.342   6.114 -0.0038  1.4370 -2.4087
    7DOPE   H7Y  871   4.760   6.340   6.076  0.4528  0.2605 -3.4565
    7DOPE   C38  872   4.642   6.282   5.905  0.0123 -0.2494 -0.0854
    7DOPE   H8X  873   4.544   6.237   5.880 -0.6102  1.5245 -1.0215
    7DOPE   H8Y  874   4.721   6.214   5.869 -0.6120 -0.3976 -1.2122
    7DOPE   C39  875   4.663   6.420   5.844  1.4141  0.1565  0.1421
    7DOPE   H9X  876   4.658   6.505   5.913  0.4676  0.2862 -0.0628
    7DOPE  C310  877   4.672   6.443   5.713  1.0865 -0.0370  0.0303
    7DOPE  H10X  878   4.710   6.544   5.691  2.2602 -0.0135  1.8961
    7DOPE  C311  879   4.667   6.333   5.604  1.1078 -0.8520  0.4406
    7DOPE  H11X  880   4.745   6.362   5.531 -1.1675  0.3886 -1.6551
    7DOPE  H11Y  881   4.688   6.229   5.639 -2.8277 -1.8110  0.4692
    7DOPE  C312  882   4.537   6.329   5.522 -0.0539 -0.2417 -0.9253
    7DOPE  H12X  883   4.499   6.432   5.504 -0.8487 -0.3221  0.1565
    7DOPE  H12Y  884   4.461   6.278   5.586  2.1527 -3.1717 -0.4395
    7DOPE  C313  885   4.552   6.263   5.385 -0.3058 -0.6956 -0.1705
    7DOPE  H13X  886   4.647   6.291   5.333  0.9654 -0.8869  1.9164
    7DOPE  H13Y  887   4.558   6.153   5.403  1.4053 -0.8490 -1.3994
    7DOPE  C314  888   4.428   6.279   5.294 -0.3330 -0.2547  0.0703
    7DOPE  H14X  889   4.338   6.314   5.348 -0.7609 -0.5872 -0.4181
    7DOPE  H14Y  890   4.402   6.181   5.249  3.3908 -1.4842  0.3102
    7DOPE  C315  891   4.469   6.377   5.180  0.3635 -0.7966 -0.3291
    7DOPE  H15X  892   4.544   6.321   5.121 -0.3692 -0.6813 -1.3937
    7DOPE  H15Y  893   4.509   6.471   5.223  0.4643 -1.1927  0.4611
    7DOPE  C316  894   4.357   6.421   5.090 -1.0394 -0.1315  0.6097
    7DOPE  H16X  895   4.286   6.337   5.076 -0.5316 -0.2431 -1.7069
    7DOPE  H16Y  896   4.393   6.453   4.990  0.4928  1.7439  1.6868
    7DOPE  C317  897   4.286   6.544   5.136  0.3461 -0.5217  0.0011
    7DOPE  H17X  898   4.273   6.544   5.246 -2.5839  2.3145 -0.1751
    7DOPE  H17Y  899   4.358   6.627   5.118 -0.3740  0.0261 -0.3956
    7DOPE  C318  900   4.153   6.576   5.070  0.0338  0.3183  0.1065
    7DOPE  H18X  901   4.150   6.546   4.963 -0.4845  1.9051 -0.3562
    7DOPE  H18Y  902   4.069   6.520   5.116 -0.2235  0.8914  0.3373
    7DOPE  H18Z  903   4.128   6.684   5.074  0.5546  0.4013  1.5198
    8DOPE     N  904   6.586   5.722   6.720 -0.7098 -0.3306 -0.0264
    8DOPE   HN1  905   6.569   5.811   6.771  0.9554 -0.0342  0.0874
    8DOPE   HN2  906   6.544   5.722   6.625 -0.3812  1.8563 -0.2285
    8DOPE   HN3  907   6.536   5.652   6.778  0.2062 -0.8872  0.1195
    8DOPE   C12  908   6.738   5.694   6.726 -0.3779  0.5782 -0.4604
    8DOPE  H12A  909   6.758   5.603   6.666  0.0669  0.8516 -0.7357
    8DOPE  H12B  910   6.758   5.666   6.832 -1.6521  1.8930  0.1748
    8DOPE   C11  911   6.811   5.819   6.680  0.5016  0.2204  0.4744
    8DOPE  H11A  912   6.763   5.849   6.584 -0.0873  0.5417  0.8638
    8DOPE  H11B  913   6.917   5.793   6.663  0.6375  0.6917  0.6041
    8DOPE     P  914   6.706   6.041   6.782  0.2969  0.1251 -0.1640
    8DOPE   O13  915   6.759   6.160   6.849 -0.2213 -0.2187 -0.0490
    8DOPE   O14  916   6.578   5.994   6.836  0.1582  0.2607  0.5266
    8DOPE   O11  917   6.682   6.091   6.634  0.2534  0.2993 -0.6022
    8DOPE   O12  918   6.804   5.920   6.777 -0.8132  0.1870  0.0862
    8DOPE    C1  919   6.783   6.167   6.573 -0.3313  0.3628 -0.4564
    8DOPE    HA  920   6.880   6.113   6.566 -0.8261 -0.6084  0.1402
    8DOPE    HB  921   6.785   6.263   6.630 -1.8273  1.0252 -1.4514
    8DOPE    C2  922   6.730   6.189   6.432 -0.3557 -0.0567 -0.2522
    8DOPE    HS  923   6.641   6.253   6.449 -0.5655 -0.1481 -0.9756
    8DOPE   O21  924   6.712   6.056   6.374 -0.5326 -0.1702 -0.0703
    8DOPE   C21  925   6.617   6.055   6.275  0.7902  0.0378 -0.4744
    8DOPE   O22  926   6.547   6.148   6.240 -0.2312 -0.0580  0.2511
    8DOPE   C22  927   6.610   5.912   6.210 -0.4101 -0.0369 -0.4696
    8DOPE   H2R  928   6.631   5.839   6.292  0.1538 -0.3938 -0.9222
    8DOPE   H2S  929   6.692   5.912   6.135  0.8206 -0.9089  0.8316
    8DOPE    C3  930   6.837   6.272   6.351 -0.1351 -0.0443  0.3220
    8DOPE    HX  931   6.936   6.231   6.379  1.3458  1.6896 -2.0388
    8DOPE    HY  932   6.836   6.374   6.396 -0.4238 -0.7105  1.9266
    8DOPE   O31  933   6.820   6.275   6.203  0.2291  1.6316  0.0066
    8DOPE   C31  934   6.728   6.369   6.169  0.3532  0.3838  0.4335
    8DOPE   O32  935   6.674   6.440   6.247  0.3473 -0.9638 -0.0693
    8DOPE   C32  936   6.725   6.383   6.018  0.5474 -0.1011  1.2724
    8DOPE   H2X  937   6.824   6.430   5.999 -0.4829  2.0966  1.0109
    8DOPE   H2Y  938   6.720   6.288   5.961 -1.3478  0.3912  0.5517
    8DOPE   C23  939   6.472   5.889   6.153 -1.3617  0.5890  0.2801
    8DOPE   H3R  940   6.403   5.944   6.219 -2.1318  1.7499 -1.4163
    8DOPE   H3S  941   6.453   5.782   6.177  0.6267  0.7459  2.9513
    8DOPE   C24  942   6.441   5.917   6.005  0.2937 -0.3922  0.0218
    8DOPE   H4R  943   6.438   6.024   5.977 -3.0363  0.3642  2.6069
    8DOPE   H4S  944   6.333   5.891   6.006  0.2877 -0.3695  0.4354
    8DOPE   C25  945   6.522   5.826   5.911 -0.3032 -0.1057  0.2637
    8DOPE   H5R  946   6.534   5.727   5.960 -0.5819  0.7308  2.1047
    8DOPE   H5S  947   6.617   5.881   5.901 -0.6623  0.5514  0.4053
    8DOPE   C26  948   6.434   5.825   5.783 -0.8504  0.3759 -0.8893
    8DOPE   H6R  949   6.426   5.932   5.755 -0.7252  0.3240 -1.1210
    8DOPE   H6S  950   6.339   5.775   5.811 -0.5156 -1.6868 -3.1559
    8DOPE   C27  951   6.504   5.757   5.663 -0.2445 -0.4195 -0.4500
    8DOPE   H7R  952   6.586   5.690   5.696  0.2035  0.9603  1.3698
    8DOPE   H7S  953   6.551   5.836   5.601 -2.1863 -0.3616 -1.9701
    8DOPE   C28  954   6.397   5.686   5.575 -0.4250  0.1650  0.2122
    8DOPE   H8R  955   6.350   5.613   5.643  1.2207 -1.4342 -0.3098
    8DOPE   H8S  956   6.454   5.626   5.501 -0.6291 -0.9005  0.9020
    8DOPE   C29  957   6.295   5.776   5.516 -0.4990 -0.0399  0.4799
    8DOPE   H9R  958   6.268   5.863   5.577 -0.2767 -0.3548  1.0361
    8DOPE  C210  959   6.265   5.778   5.386  0.0391 -0.6181  0.3912
    8DOPE  H10R  960   6.191   5.853   5.355 -1.0210 -1.5682  0.5642
    8DOPE  C211  961   6.320   5.702   5.272 -0.1920 -0.0389  1.2989
    8DOPE  H11R  962   6.254   5.715   5.184  0.3848  1.3192  1.0387
    8DOPE  H11S  963   6.318   5.594   5.296 -1.4912 -0.6645 -1.3527
    8DOPE  C212  964   6.470   5.739   5.243 -0.3034  0.0498  0.1636
    8DOPE  H12R  965   6.506   5.675   5.160  0.1315  2.3609 -1.5516
    8DOPE  H12S  966   6.544   5.731   5.326 -0.4535 -0.2164  0.2718
    8DOPE  C213  967   6.489   5.879   5.201  0.3902 -0.5190 -0.1523
    8DOPE  H13R  968   6.595   5.894   5.173  0.2565  1.4256  0.2931
    8DOPE  H13S  969   6.472   5.942   5.291 -0.6333 -0.6374 -0.2441
    8DOPE  C214  970   6.403   5.925   5.076 -0.4099  0.8613 -0.4264
    8DOPE  H14R  971   6.294   5.930   5.098 -0.8331  0.6360 -2.2949
    8DOPE  H14S  972   6.425   5.855   4.993  0.9354 -1.3306  1.6266
    8DOPE  C215  973   6.466   6.054   5.025  0.0621  0.5275  0.5278
    8DOPE  H15R  974   6.491   6.122   5.109  0.8903  0.6388  0.2021
    8DOPE  H15S  975   6.392   6.104   4.959 -1.2270 -1.6194  0.2549
    8DOPE  C216  976   6.592   6.032   4.942  0.0837  0.2639  0.1052
    8DOPE  H16R  977   6.651   5.942   4.970  0.1342 -0.2454 -1.5295
    8DOPE  H16S  978   6.648   6.128   4.956 -0.1970  0.3750  0.4994
    8DOPE  C217  979   6.571   6.028   4.791 -0.0835  1.1783  0.2715
    8DOPE  H17R  980   6.644   6.104   4.755 -1.2179  2.0755 -0.2088
    8DOPE  H17S  981   6.469   6.064   4.767 -0.5070 -0.1401  0.0137
    8DOPE  C218  982   6.603   5.891   4.739 -0.7202 -0.2507 -0.1673
    8DOPE  H18R  983   6.626   5.899   4.631  1.8112  0.8848  0.4073
    8DOPE  H18S  984   6.515   5.822   4.742 -0.1923 -1.0203 -1.5740
    8DOPE  H18T  985   6.675   5.827   4.794 -1.8050  0.1900  1.8826
    8DOPE   C33  986   6.604   6.468   5.955 -0.1808  0.2881 -0.6487
    8DOPE   H3X  987   6.647   6.521   5.867  0.4730  4.4147  1.8623
    8DOPE   H3Y  988   6.578   6.550   6.026  0.4048  0.6183 -0.8056
    8DOPE   C34  989   6.484   6.383   5.923 -0.1424 -0.0638  0.0447
    8DOPE   H4X  990   6.445   6.320   6.006 -1.7316  0.4845 -0.2485
    8DOPE   H4Y  991   6.406   6.461   5.910 -0.2815  0.1606  1.9678
    8DOPE   C35  992   6.503   6.299   5.792  0.3701  0.2145  0.4509
    8DOPE   H5X  993   6.585   6.227   5.817  1.8569  1.7981  0.3447
    8DOPE   H5Y  994   6.538   6.360   5.707 -0.7360 -0.5391 -0.5817
    8DOPE   C36  995   6.375   6.218   5.766 -0.4094  0.8922  0.4337
    8DOPE   H6X  996   6.341   6.179   5.864  0.6898  0.2281  0.5641
    8DOPE   H6Y  997   6.399   6.128   5.707 -2.4785  1.4488 -1.4145
    8DOPE   C37  998   6.275   6.304   5.687 -0.2502 -0.5968  0.3242
    8DOPE   H7X  999   6.206   6.338   5.768  1.3067 -0.5400  1.6893
    8DOPE   H7Y 1000   6.309   6.393   5.629 -2.8466 -1.5441 -2.9966
    8DOPE   C38 1001   6.188   6.226   5.591 -0.8887 -0.0803  0.1003
    8DOPE   H8X 1002   6.086   6.268   5.573 -0.6842  0.5190  0.3429
    8DOPE   H8Y 1003   6.177   6.128   5.642  1.8766  0.1005  1.1968
    8DOPE   C39 1004   6.265   6.210   5.460  0.6895  0.6617  0.8829
    8DOPE   H9X 1005   6.370   6.176   5.467  1.1528  1.2814 -1.9026
    8DOPE  C310 1006   6.208   6.229   5.335  0.6984  0.8791 -0.9167
    8DOPE  H10X 1007   6.262   6.196   5.244  0.5460  0.3371 -0.8104
    8DOPE  C311 1008   6.065   6.272   5.317  0.5163 -0.4421 -0.7528
    8DOPE  H11X 1009   6.050   6.364   5.378  0.9524 -1.1650  0.4800
    8DOPE  H11Y 1010   6.061   6.315   5.214  1.3321 -0.5171 -0.8250
    8DOPE  C312 1011   5.966   6.160   5.342  0.7768 -0.2194  0.7057
    8DOPE  H12X 1012   5.873   6.204   5.384  0.5244  0.2489 -0.3130
    8DOPE  H12Y 1013   6.003   6.085   5.416  1.3831 -0.3460  0.2843
    8DOPE  C313 1014   5.943   6.097   5.202 -0.4343  0.0507 -0.6019
    8DOPE  H13X 1015   5.915   6.177   5.130 -0.7907 -1.7397 -2.5442
    8DOPE  H13Y 1016   6.040   6.066   5.158  0.7800  0.4668  1.6213
    8DOPE  C314 1017   5.833   5.988   5.198 -1.1845 -0.3898  0.0106
    8DOPE  H14X 1018   5.741   6.016   5.254 -2.1489 -1.3872 -1.0190
    8DOPE  H14Y 1019   5.870   5.892   5.240 -2.3821 -1.5014 -1.3662
    8DOPE  C315 1020   5.794   5.951   5.051  0.2113 -0.3225 -0.4169
    8DOPE  H15X 1021   5.758   6.046   5.007 -0.5931 -0.2254  0.4110
    8DOPE  H15Y 1022   5.707   5.881   5.051  0.3795 -0.5990  1.5933
    8DOPE  C316 1023   5.913   5.891   4.979 -0.2780 -0.3145 -0.4090
    8DOPE  H16X 1024   5.991   5.970   4.974 -1.2588  0.5932 -2.8054
    8DOPE  H16Y 1025   5.879   5.876   4.875  0.4063  1.2385 -0.8927
    8DOPE  C317 1026   5.970   5.764   5.048 -0.0975  0.1111  1.0391
    8DOPE  H17X 1027   6.017   5.800   5.142  3.6197  1.6801 -1.1781
    8DOPE  H17Y 1028   5.885   5.694   5.061  0.1862 -0.7242 -1.1098
    8DOPE  C318 1029   6.077   5.690   4.972  0.4114 -0.7567 -0.0247
    8DOPE  H18X 1030   6.164   5.758   4.957  0.4977 -0.8231  0.1686
    8DOPE  H18Y 1031   6.037   5.661   4.873  0.3337 -1.4757  0.2129
    8DOPE  H18Z 1032   6.102   5.601   5.033 -0.1966 -0.3594  0.8339
    9DOPE     N 1033   1.723   4.800   6.767  0.7337 -0.5256  0.5973
    9DOPE   HN1 1034   1.796   4.830   6.835  1.6803  0.9989 -1.0001
    9DOPE   HN2 1035   1.631   4.847   6.778  0.3245 -1.7961  3.5598
    9DOPE   HN3 1036   1.697   4.702   6.789 -1.2736  0.0700  1.0657
    9DOPE   C12 1037   1.760   4.826   6.626 -0.3384  0.2302  0.1833
    9DOPE  H12A 1038   1.671   4.847   6.563  0.0360 -2.5956 -1.4790
    9DOPE  H12B 1039   1.807   4.734   6.585 -3.3441 -0.4098 -2.1735
    9DOPE   C11 1040   1.857   4.947   6.622 -0.8552 -0.2312 -0.3888
    9DOPE  H11A 1041   1.891   4.961   6.517 -1.3775 -3.5525 -1.1187
    9DOPE  H11B 1042   1.951   4.918   6.672 -0.4197  0.4205 -0.8116
    9DOPE     P 1043   1.875   5.189   6.728  0.4986  0.1197 -0.0612
    9DOPE   O13 1044   1.971   5.144   6.834  0.0347  0.4863 -0.1948
    9DOPE   O14 1045   1.787   5.297   6.761  0.2656 -0.7730  0.5271
    9DOPE   O11 1046   1.958   5.244   6.614 -0.3029 -1.2160 -0.3859
    9DOPE   O12 1047   1.797   5.066   6.674  0.4034 -0.0150  0.0936
    9DOPE    C1 1048   2.083   5.311   6.625  0.2109  0.2743  0.1215
    9DOPE    HA 1049   2.162   5.238   6.652 -0.0685 -0.8782 -1.9566
    9DOPE    HB 1050   2.066   5.395   6.696 -4.3229  0.6486 -1.0824
    9DOPE    C2 1051   2.128   5.382   6.492  0.1096 -0.3134 -0.1366
    9DOPE    HS 1052   2.045   5.452   6.466 -0.6238 -0.9480  0.4335
    9DOPE   O21 1053   2.152   5.277   6.399 -0.6979 -0.4140 -0.4110
    9DOPE   C21 1054   2.124   5.304   6.272 -0.3368  0.7504  0.3093
    9DOPE   O22 1055   2.069   5.409   6.240 -0.3968  0.3916  0.3815
    9DOPE   C22 1056   2.167   5.186   6.184 -0.1684  0.8357  0.3305
    9DOPE   H2R 1057   2.243   5.121   6.233 -0.5818  0.5790  0.6404
    9DOPE   H2S 1058   2.212   5.232   6.093  0.8077  0.5604  0.6618
    9DOPE    C3 1059   2.262   5.462   6.511  0.6573 -0.1521 -0.2466
    9DOPE    HX 1060   2.340   5.386   6.533 -0.1311 -2.3116 -4.0068
    9DOPE    HY 1061   2.235   5.523   6.600  1.4969 -2.1390  1.4502
    9DOPE   O31 1062   2.296   5.554   6.402 -0.1012 -0.3362  0.0733
    9DOPE   C31 1063   2.407   5.511   6.326  0.5636  0.4799 -0.4485
    9DOPE   O32 1064   2.460   5.401   6.337  0.1663 -0.7244  0.6856
    9DOPE   C32 1065   2.452   5.628   6.240  0.5803  0.1236  0.0815
    9DOPE   H2X 1066   2.407   5.722   6.278  3.0984  1.2888  0.3818
    9DOPE   H2Y 1067   2.562   5.621   6.250  0.3235 -3.2776  2.3089
    9DOPE   C23 1068   2.050   5.103   6.129  0.4478  0.3346  0.6475
    9DOPE   H3R 1069   2.100   5.029   6.063  0.9081 -1.7242  3.1276
    9DOPE   H3S 1070   1.971   5.155   6.071 -1.4529 -1.3846  1.5934
    9DOPE   C24 1071   1.991   5.015   6.243 -0.0142  0.9078 -0.0605
    9DOPE   H4R 1072   1.957   5.079   6.327 -1.4709 -2.3044  1.9472
    9DOPE   H4S 1073   2.073   4.952   6.283 -0.8944 -0.5570 -0.4779
    9DOPE   C25 1074   1.884   4.915   6.204 -0.0225  0.1414 -0.3742
    9DOPE   H5R 1075   1.791   4.971   6.180  0.9947  1.1256 -2.2242
    9DOPE   H5S 1076   1.867   4.850   6.293  1.4496  0.3479  0.0850
    9DOPE   C26 1077   1.920   4.818   6.093 -1.2421 -0.9482  0.0813
    9DOPE   H6R 1078   2.011   4.763   6.124 -0.3291  0.1133 -0.6557
    9DOPE   H6S 1079   1.949   4.877   6.003 -1.2150  0.9845  1.2912
    9DOPE   C27 1080   1.807   4.718   6.057 -0.1511  0.0806  0.2479
    9DOPE   H7R 1081   1.724   4.762   5.999 -0.1045 -1.4001 -0.9981
    9DOPE   H7S 1082   1.772   4.687   6.158 -0.8688  1.4542  0.4416
    9DOPE   C28 1083   1.864   4.593   5.981  0.4358  0.4171  0.0690
    9DOPE   H8R 1084   1.780   4.520   5.981  0.4457  0.4003  0.6501
    9DOPE   H8S 1085   1.939   4.555   6.054  0.4366  0.6436  0.1866
    9DOPE   C29 1086   1.910   4.625   5.839  0.3709 -0.0799 -0.3686
    9DOPE   H9R 1087   1.942   4.728   5.822  0.3669 -0.5780 -4.1451
    9DOPE  C210 1088   1.899   4.537   5.736  0.0696 -0.0959 -0.8961
    9DOPE  H10R 1089   1.943   4.569   5.641 -0.2348  1.0392 -0.6827
    9DOPE  C211 1090   1.846   4.399   5.734  0.9106 -0.0184  0.6219
    9DOPE  H11R 1091   1.758   4.380   5.799 -0.1133 -0.5258 -0.8496
    9DOPE  H11S 1092   1.930   4.343   5.779  1.6356  1.2410  0.8847
    9DOPE  C212 1093   1.822   4.333   5.594  0.2285  0.3319 -0.3866
    9DOPE  H12R 1094   1.907   4.360   5.528  0.4906 -2.1856 -1.1573
    9DOPE  H12S 1095   1.727   4.374   5.554 -0.4243  0.1075  0.8715
    9DOPE  C213 1096   1.820   4.183   5.620 -0.3967  0.1956  0.1336
    9DOPE  H13R 1097   1.740   4.150   5.689 -0.7244 -0.6179 -0.6161
    9DOPE  H13S 1098   1.919   4.153   5.661 -0.7277 -1.1576 -0.0088
    9DOPE  C214 1099   1.803   4.102   5.497 -0.6837  0.6558  1.5238
    9DOPE  H14R 1100   1.867   4.135   5.413  1.8826 -0.8328  2.7901
    9DOPE  H14S 1101   1.698   4.121   5.464 -1.0265 -0.0252  2.1760
    9DOPE  C215 1102   1.832   3.948   5.520  0.0212  0.0040 -0.0797
    9DOPE  H15R 1103   1.745   3.906   5.575  0.8895  0.5528  1.8023
    9DOPE  H15S 1104   1.918   3.937   5.589  1.5133 -3.1570 -2.2296
    9DOPE  C216 1105   1.869   3.884   5.386  0.0872 -0.1126 -1.0604
    9DOPE  H16R 1106   1.816   3.916   5.294  0.2641 -3.2598 -2.3877
    9DOPE  H16S 1107   1.842   3.776   5.388  0.5435 -0.2378 -1.4452
    9DOPE  C217 1108   2.020   3.875   5.361  0.1041  0.2587  0.5421
    9DOPE  H17R 1109   2.086   3.940   5.422 -1.3613  1.6131  0.7385
    9DOPE  H17S 1110   2.035   3.909   5.256  1.5255 -2.9042 -0.3939
    9DOPE  C218 1111   2.065   3.729   5.378  0.1282  0.0709  0.0400
    9DOPE  H18R 1112   2.030   3.686   5.475 -1.0372 -1.6802 -1.1097
    9DOPE  H18S 1113   2.173   3.708   5.368 -0.1244 -1.5240  0.3844
    9DOPE  H18T 1114   2.012   3.675   5.297 -0.2454  0.7545 -0.1828
    9DOPE   C33 1115   2.425   5.611   6.085  0.2857 -0.0218  0.3753
    9DOPE   H3X 1116   2.476   5.526   6.035 -1.4844 -0.2075 -1.2716
    9DOPE   H3Y 1117   2.467   5.695   6.026  0.3369 -1.0133 -1.0416
    9DOPE   C34 1118   2.278   5.617   6.039  0.1040  0.0977 -0.3279
    9DOPE   H4X 1119   2.223   5.534   6.087  0.0911  0.0988 -0.3411
    9DOPE   H4Y 1120   2.230   5.711   6.074  1.3928  0.5945  0.1756
    9DOPE   C35 1121   2.269   5.588   5.886  0.0221  0.0403 -0.5433
    9DOPE   H5X 1122   2.170   5.548   5.856 -0.2827  0.1314  0.3104
    9DOPE   H5Y 1123   2.339   5.503   5.868  0.6648  0.2169  0.9225
    9DOPE   C36 1124   2.285   5.705   5.792  0.4813  0.4255  0.0500
    9DOPE   H6X 1125   2.384   5.756   5.787  0.5371  0.6472  2.3205
    9DOPE   H6Y 1126   2.213   5.784   5.823 -1.1268 -1.1332  0.4688
    9DOPE   C37 1127   2.253   5.661   5.646  0.6696 -0.3109 -0.0795
    9DOPE   H7X 1128   2.289   5.740   5.576 -2.5677  1.5387  0.1456
    9DOPE   H7Y 1129   2.314   5.569   5.630  0.9459 -0.6516  2.5895
    9DOPE   C38 1130   2.105   5.648   5.596 -0.0388  0.3129 -0.3303
    9DOPE   H8X 1131   2.057   5.749   5.600 -2.2522 -0.7114  0.9142
    9DOPE   H8Y 1132   2.046   5.585   5.666  1.3760 -0.0224  0.5995
    9DOPE   C39 1133   2.119   5.581   5.459  0.8160  0.1240  0.7635
    9DOPE   H9X 1134   2.167   5.649   5.386 -1.3520 -0.9577 -1.8360
    9DOPE  C310 1135   2.076   5.461   5.418 -0.1691  0.5737 -0.3611
    9DOPE  H10X 1136   2.100   5.427   5.317 -0.4934  1.5579 -0.7857
    9DOPE  C311 1137   2.001   5.360   5.510 -0.0629 -0.7413 -0.0607
    9DOPE  H11X 1138   1.980   5.391   5.615  0.4279 -3.1042  0.7871
    9DOPE  H11Y 1139   1.904   5.341   5.460  0.4082  0.5358 -1.5531
    9DOPE  C312 1140   2.093   5.243   5.546  0.3229 -0.6934  0.1414
    9DOPE  H12X 1141   2.136   5.197   5.454  1.9840 -1.1803  1.0967
    9DOPE  H12Y 1142   2.027   5.171   5.598  0.3604 -1.4883 -0.8786
    9DOPE  C313 1143   2.211   5.273   5.636 -0.3925  0.2204 -0.3738
    9DOPE  H13X 1144   2.273   5.352   5.588 -1.4405  2.0102  1.0910
    9DOPE  H13Y 1145   2.180   5.327   5.728 -0.9994  1.5008 -1.3091
    9DOPE  C314 1146   2.299   5.154   5.684 -0.7843  0.1964  0.2259
    9DOPE  H14X 1147   2.377   5.184   5.757 -0.9361  1.9110 -0.2665
    9DOPE  H14Y 1148   2.350   5.122   5.590 -0.7230 -1.2052  0.7144
    9DOPE  C315 1149   2.214   5.038   5.747  0.2613  0.4851  0.2011
    9DOPE  H15X 1150   2.156   5.002   5.659 -0.8583  0.1126  1.0597
    9DOPE  H15Y 1151   2.151   5.063   5.835  1.3354 -0.0713  1.1574
    9DOPE  C316 1152   2.294   4.908   5.791 -0.6955  0.2861 -0.2972
    9DOPE  H16X 1153   2.216   4.837   5.824 -0.4531 -0.1539 -0.6614
    9DOPE  H16Y 1154   2.359   4.927   5.879 -3.5258  1.3683  1.6827
    9DOPE  C317 1155   2.378   4.830   5.682 -0.4270 -0.8016 -1.1968
    9DOPE  H17X 1156   2.329   4.819   5.583 -1.5923 -0.0965 -0.7269
    9DOPE  H17Y 1157   2.471   4.888   5.670  0.0490 -1.0313  0.9716
    9DOPE  C318 1158   2.430   4.692   5.724 -0.2102  0.1909 -0.9125
    9DOPE  H18X 1159   2.511   4.664   5.654  3.0657 -0.4592  2.7502
    9DOPE  H18Y 1160   2.484   4.694   5.821  1.6427  1.7091 -1.9305
    9DOPE  H18Z 1161   2.345   4.620   5.734 -1.1380  1.1637 -1.6199
   10DOPE     N 1162   3.634   6.051   7.022 -0.2991 -0.3242 -0.0881
   10DOPE   HN1 1163   3.593   6.005   6.939 -2.7433 -1.6588  1.7191
   10DOPE   HN2 1164   3.738   6.045   7.019 -0.2966 -0.7437  0.5732
   10DOPE   HN3 1165   3.600   5.999   7.106 -3.7027  0.0128 -1.1111
   10DOPE   C12 1166   3.602   6.195   7.033 -0.5939  0.2023 -0.1724
   10DOPE  H12A 1167   3.641   6.238   6.938 -3.4004  2.1739 -0.5373
   10DOPE  H12B 1168   3.648   6.236   7.125 -0.4797  1.1835 -0.6603
   10DOPE   C11 1169   3.442   6.220   7.023  0.3992 -0.0218  0.4342
   10DOPE  H11A 1170   3.407   6.323   7.044 -2.3098 -0.3241 -1.8889
   10DOPE  H11B 1171   3.409   6.160   7.111  1.7257 -1.4292  0.0179
   10DOPE     P 1172   3.246   6.114   6.900  0.0770  0.4952 -0.1024
   10DOPE   O13 1173   3.245   6.023   7.019  0.2657 -0.3986 -0.3601
   10DOPE   O14 1174   3.216   6.060   6.767 -0.2202  0.1607 -0.0762
   10DOPE   O11 1175   3.142   6.224   6.930 -0.1679  0.1559  0.6243
   10DOPE   O12 1176   3.381   6.181   6.899 -0.2455  0.1979 -0.3804
   10DOPE    C1 1177   3.172   6.366   6.911 -0.1201 -0.7080  0.2224
   10DOPE    HA 1178   3.265   6.389   6.856 -0.6234  0.8557 -0.0392
   10DOPE    HB 1179   3.163   6.413   7.011  0.8972 -3.5705  1.7816
   10DOPE    C2 1180   3.070   6.439   6.818 -0.3085 -0.8140 -0.6239
   10DOPE    HS 1181   2.966   6.427   6.857  0.4636  0.6887  2.1223
   10DOPE   O21 1182   3.095   6.384   6.688  0.2012  0.5350  0.1450
   10DOPE   C21 1183   2.981   6.355   6.623 -0.0059 -0.3377 -0.1355
   10DOPE   O22 1184   2.871   6.380   6.665  0.1015  0.3773 -0.4659
   10DOPE   C22 1185   3.009   6.278   6.496  0.4146  0.2706  0.5138
   10DOPE   H2R 1186   3.029   6.169   6.508  0.0765  0.1647  0.1591
   10DOPE   H2S 1187   3.099   6.328   6.455  1.6077 -1.1319  1.3346
   10DOPE    C3 1188   3.085   6.602   6.825  0.4622 -0.9152  0.0218
   10DOPE    HX 1189   3.192   6.629   6.807  0.1753  0.8795  0.7988
   10DOPE    HY 1190   3.059   6.642   6.925  0.6518 -1.3404  0.2398
   10DOPE   O31 1191   3.001   6.656   6.716 -0.6552  0.0409 -0.6796
   10DOPE   C31 1192   2.868   6.678   6.751  0.1416 -0.2320  0.7196
   10DOPE   O32 1193   2.825   6.665   6.860 -0.8230 -0.2623 -0.1775
   10DOPE   C32 1194   2.797   6.718   6.629  0.8630  0.7284  0.2617
   10DOPE   H2X 1195   2.863   6.767   6.554  0.5729  0.3505 -0.2517
   10DOPE   H2Y 1196   2.783   6.619   6.580  0.2325  0.6971  0.5008
   10DOPE   C23 1197   2.888   6.268   6.391 -0.1392  0.3286  0.3121
   10DOPE   H3R 1198   2.846   6.370   6.382  1.6759  0.9937 -1.2655
   10DOPE   H3S 1199   2.810   6.201   6.432 -0.4308 -0.1010 -0.9224
   10DOPE   C24 1200   2.936   6.237   6.248  0.2957  0.2035 -0.1339
   10DOPE   H4R 1201   2.977   6.134   6.256 -0.1330  0.1311  1.3580
   10DOPE   H4S 1202   3.023   6.305   6.233  0.3750 -0.1456 -1.4069
   10DOPE   C25 1203   2.839   6.259   6.131  0.1382 -0.1265 -0.0836
   10DOPE   H5R 1204   2.804   6.364   6.136 -0.2395 -0.2526 -0.0638
   10DOPE   H5S 1205   2.752   6.191   6.139  0.7680 -0.8363  1.0090
   10DOPE   C26 1206   2.916   6.239   5.995 -0.9021 -0.3051  0.3518
   10DOPE   H6R 1207   2.947   6.134   5.979  0.7599  0.2862 -0.4828
   10DOPE   H6S 1208   3.007   6.302   6.003 -0.8664 -0.5174  1.8706
   10DOPE   C27 1209   2.834   6.289   5.882  0.9181 -0.2901 -0.2095
   10DOPE   H7R 1210   2.902   6.306   5.796  2.9628 -0.5059  1.2723
   10DOPE   H7S 1211   2.801   6.394   5.901  2.0299  0.0643 -0.1464
   10DOPE   C28 1212   2.712   6.202   5.856 -0.6791  0.5178 -0.2328
   10DOPE   H8R 1213   2.644   6.214   5.943  0.4875  0.9307  0.6583
   10DOPE   H8S 1214   2.753   6.099   5.860  1.4691  1.2707 -1.2340
   10DOPE   C29 1215   2.632   6.229   5.732 -0.1910 -0.2804  0.5938
   10DOPE   H9R 1216   2.539   6.287   5.738  0.7714  1.5324 -0.8313
   10DOPE  C210 1217   2.649   6.171   5.611 -0.2153  0.4958 -0.1180
   10DOPE  H10R 1218   2.581   6.199   5.529 -0.3535  0.5269  0.0085
   10DOPE  C211 1219   2.757   6.074   5.574 -0.0572 -0.8899  0.0820
   10DOPE  H11R 1220   2.796   6.025   5.667  0.1907 -0.5322  0.1687
   10DOPE  H11S 1221   2.846   6.130   5.539 -0.4739  0.5309  1.2125
   10DOPE  C212 1222   2.722   5.957   5.487  0.0004  0.4037  0.0957
   10DOPE  H12R 1223   2.812   5.897   5.463  0.3306  1.0450 -0.3121
   10DOPE  H12S 1224   2.690   5.992   5.387  1.4904  1.2651 -0.1113
   10DOPE  C213 1225   2.602   5.869   5.535 -0.0834 -0.2467 -1.3000
   10DOPE  H13R 1226   2.511   5.931   5.518 -1.0414 -1.0422  0.5795
   10DOPE  H13S 1227   2.603   5.846   5.643  0.5657 -1.3991 -1.5393
   10DOPE  C214 1228   2.570   5.731   5.459 -0.4485  0.5928 -0.9359
   10DOPE  H14R 1229   2.470   5.700   5.494  0.6540  0.5441  2.5083
   10DOPE  H14S 1230   2.649   5.660   5.490 -1.5230 -1.0573 -1.8585
   10DOPE  C215 1231   2.576   5.752   5.306 -0.0528 -0.5913  0.5524
   10DOPE  H15R 1232   2.579   5.650   5.260  1.7717 -0.8588  1.1981
   10DOPE  H15S 1233   2.676   5.796   5.287  0.3769 -1.6497  0.2590
   10DOPE  C216 1234   2.468   5.840   5.239  0.3896  0.2962 -0.0688
   10DOPE  H16R 1235   2.475   5.941   5.285  1.2145 -0.3382  1.2229
   10DOPE  H16S 1236   2.368   5.791   5.238  1.0115 -1.1129 -2.3446
   10DOPE  C217 1237   2.507   5.855   5.091  0.2506 -0.2939  0.3918
   10DOPE  H17R 1238   2.537   5.759   5.043  2.3605 -0.3134  1.6205
   10DOPE  H17S 1239   2.591   5.927   5.096 -0.3030  0.3036  1.6509
   10DOPE  C218 1240   2.397   5.931   5.010  0.0487 -0.8906  0.3079
   10DOPE  H18R 1241   2.427   5.935   4.903 -2.6371 -0.6449 -0.5098
   10DOPE  H18S 1242   2.395   6.038   5.039  0.6902 -0.4675 -1.1202
   10DOPE  H18T 1243   2.294   5.890   5.011 -0.5074  0.3563 -1.6162
   10DOPE   C33 1244   2.665   6.788   6.657 -0.1305 -0.3064  0.5440
   10DOPE   H3X 1245   2.671   6.864   6.738 -3.1888  0.1027  0.4889
   10DOPE   H3Y 1246   2.586   6.724   6.702 -1.1666  0.3654 -0.2766
   10DOPE   C34 1247   2.609   6.863   6.535  0.4453  0.2176 -0.1383
   10DOPE   H4X 1248   2.531   6.927   6.582 -0.3901 -0.9467  0.1105
   10DOPE   H4Y 1249   2.685   6.927   6.485 -0.4593 -0.2175 -2.1446
   10DOPE   C35 1250   2.560   6.779   6.412 -0.5702  0.1246 -0.1546
   10DOPE   H5X 1251   2.459   6.744   6.443  0.3116 -0.4480  2.2786
   10DOPE   H5Y 1252   2.625   6.689   6.404 -0.2743  0.4068 -1.0558
   10DOPE   C36 1253   2.560   6.866   6.283 -0.1819  0.6601 -0.0304
   10DOPE   H6X 1254   2.504   6.805   6.209  0.3389 -0.8058  0.7500
   10DOPE   H6Y 1255   2.665   6.881   6.250 -0.2202  0.5841 -0.1886
   10DOPE   C37 1256   2.475   7.002   6.286  0.2090 -0.1428 -0.4802
   10DOPE   H7X 1257   2.380   6.983   6.341 -2.4339  2.9211 -3.5669
   10DOPE   H7Y 1258   2.531   7.074   6.350 -0.1094 -1.0809  0.8900
   10DOPE   C38 1259   2.454   7.064   6.148  0.8712  0.2008 -0.1210
   10DOPE   H8X 1260   2.371   7.137   6.162 -2.3198 -2.5628 -3.0366
   10DOPE   H8Y 1261   2.428   6.988   6.072  0.2931  1.3110 -1.0697
   10DOPE   C39 1262   2.580   7.136   6.106  0.1299 -0.4035 -0.4439
   10DOPE   H9X 1263   2.651   7.162   6.186  0.2028  0.6236 -0.8289
   10DOPE  C310 1264   2.608   7.175   5.982  0.7915 -0.0637 -0.2500
   10DOPE  H10X 1265   2.679   7.259   5.975  0.4588  0.1551 -1.2245
   10DOPE  C311 1266   2.522   7.152   5.856  1.3066  0.0910 -0.1771
   10DOPE  H11X 1267   2.577   7.100   5.775  1.3745 -1.1150  0.6098
   10DOPE  H11Y 1268   2.432   7.094   5.886  1.4730  0.4080  0.9778
   10DOPE  C312 1269   2.468   7.290   5.818  0.4726 -0.0713  0.3453
   10DOPE  H12X 1270   2.558   7.356   5.820  0.0857  0.4424  2.2364
   10DOPE  H12Y 1271   2.398   7.326   5.895  1.4053 -0.3126  1.3328
   10DOPE  C313 1272   2.413   7.280   5.670  0.2316 -0.6904 -0.0480
   10DOPE  H13X 1273   2.407   7.384   5.631 -1.6530 -0.0741  1.6867
   10DOPE  H13Y 1274   2.479   7.233   5.595  0.2293 -0.8718  0.0642
   10DOPE  C314 1275   2.273   7.219   5.667 -0.0032 -0.3990 -0.4671
   10DOPE  H14X 1276   2.199   7.279   5.725 -0.3168  0.0786 -1.3392
   10DOPE  H14Y 1277   2.278   7.111   5.690  1.2690 -0.5228 -1.2119
   10DOPE  C315 1278   2.222   7.243   5.522  0.7986 -0.0909 -0.4828
   10DOPE  H15X 1279   2.280   7.177   5.454  1.8161  0.7170 -0.4282
   10DOPE  H15Y 1280   2.256   7.345   5.493  0.1810  0.4889  0.7377
   10DOPE  C316 1281   2.067   7.227   5.510 -0.3302  0.9942  1.4634
   10DOPE  H16X 1282   2.026   7.301   5.582 -0.0520  1.0937  1.5192
   10DOPE  H16Y 1283   2.037   7.124   5.539 -0.1398  1.0666  1.9272
   10DOPE  C317 1284   2.014   7.247   5.363  0.1342  0.2709 -0.6489
   10DOPE  H17X 1285   2.054   7.344   5.327  1.5975 -0.5182 -1.2134
   10DOPE  H17Y 1286   2.035   7.160   5.297  0.3634  1.0299 -1.5807
   10DOPE  C318 1287   1.864   7.259   5.355  0.3433 -0.0492 -0.2165
   10DOPE  H18X 1288   1.833   7.282   5.251  0.1818  0.6306 -0.0227
   10DOPE  H18Y 1289   1.810   7.167   5.387  2.0333 -0.7312  0.8328
   10DOPE  H18Z 1290   1.824   7.343   5.416  1.1263 -0.2078  0.5355
   11DOPE     N 1291   1.485   2.927   7.413 -0.2338 -0.1300  0.0818
   11DOPE   HN1 1292   1.559   2.964   7.477  0.1301 -1.3326  0.3773
   11DOPE   HN2 1293   1.406   2.993   7.399 -1.6191 -1.9158 -0.8688
   11DOPE   HN3 1294   1.447   2.845   7.463  2.6320 -0.6499  1.6497
   11DOPE   C12 1295   1.566   2.877   7.302  0.1300 -0.2593 -0.0470
   11DOPE  H12A 1296   1.498   2.832   7.227  1.2205 -1.0633 -0.5735
   11DOPE  H12B 1297   1.623   2.790   7.342  1.3239  0.1934 -0.6976
   11DOPE   C11 1298   1.653   2.986   7.240  0.1407  0.1524  0.3335
   11DOPE  H11A 1299   1.579   3.057   7.196  0.9669  1.1394  0.4865
   11DOPE  H11B 1300   1.703   2.935   7.155 -0.5755  0.0867 -0.0562
   11DOPE     P 1301   1.896   3.046   7.307 -0.3673 -0.2877 -0.0441
   11DOPE   O13 1302   1.954   2.911   7.340 -0.0999 -0.2117  0.4345
   11DOPE   O14 1303   1.959   3.157   7.386  0.0566  0.0445 -0.7986
   11DOPE   O11 1304   1.922   3.073   7.153  0.1046  0.1785  0.1838
   11DOPE   O12 1305   1.739   3.056   7.334 -0.3320  0.0455  0.1700
   11DOPE    C1 1306   1.881   3.195   7.097 -0.7239  0.1148 -0.2663
   11DOPE    HA 1307   1.923   3.282   7.152  0.5061 -0.3641 -0.4113
   11DOPE    HB 1308   1.771   3.200   7.107 -0.6292 -0.1615  1.2913
   11DOPE    C2 1309   1.934   3.219   6.947  0.3622  0.3354  0.4981
   11DOPE    HS 1310   1.859   3.290   6.907 -0.9715 -0.7635  0.9911
   11DOPE   O21 1311   1.936   3.105   6.863 -0.0516 -0.3504  0.6743
   11DOPE   C21 1312   1.813   3.054   6.847  0.1021 -0.3446 -0.4886
   11DOPE   O22 1313   1.710   3.109   6.887  0.6746  0.0691  0.3709
   11DOPE   C22 1314   1.810   2.920   6.774 -0.0190 -0.0557 -0.6631
   11DOPE   H2R 1315   1.730   2.855   6.816  2.3302 -0.0165  4.6405
   11DOPE   H2S 1316   1.904   2.862   6.779  0.9849  1.3888 -1.7864
   11DOPE    C3 1317   2.071   3.283   6.938 -0.3309  0.3784 -1.1107
   11DOPE    HX 1318   2.099   3.306   6.834 -0.3797 -0.0478 -1.2196
   11DOPE    HY 1319   2.142   3.214   6.988 -1.4105  0.5986  0.8328
   11DOPE   O31 1320   2.067   3.405   7.010  0.3894 -0.2779 -0.2069
   11DOPE   C31 1321   2.190   3.431   7.061  0.4263  0.2549  0.0173
   11DOPE   O32 1322   2.292   3.373   7.041 -0.0850 -0.2311 -0.6016
   11DOPE   C32 1323   2.181   3.560   7.144  0.1475 -0.3776 -0.0912
   11DOPE   H2X 1324   2.134   3.538   7.243  0.2847  3.7664  1.1026
   11DOPE   H2Y 1325   2.285   3.592   7.167  1.0002 -0.2789 -3.6267
   11DOPE   C23 1326   1.776   2.948   6.629  0.0941  0.3290 -0.5299
   11DOPE   H3R 1327   1.840   3.028   6.586  0.9798 -0.2360 -0.3058
   11DOPE   H3S 1328   1.667   2.969   6.626  0.2852  2.3893  2.6092
   11DOPE   C24 1329   1.802   2.821   6.554 -1.0068 -0.3597  0.1449
   11DOPE   H4R 1330   1.779   2.730   6.614 -0.9392 -0.3527  0.1812
   11DOPE   H4S 1331   1.907   2.815   6.516 -0.8767  0.7464  0.2890
   11DOPE   C25 1332   1.709   2.815   6.431 -0.2739  0.5808 -0.2808
   11DOPE   H5R 1333   1.718   2.906   6.368 -1.1397  0.6529 -0.3177
   11DOPE   H5S 1334   1.607   2.808   6.476  0.4553 -0.3540  1.3451
   11DOPE   C26 1335   1.724   2.683   6.349  0.6515 -0.1142 -0.0776
   11DOPE   H6R 1336   1.706   2.602   6.423 -2.4429  0.5117 -0.0027
   11DOPE   H6S 1337   1.827   2.671   6.310  0.8438 -1.3252  0.7402
   11DOPE   C27 1338   1.618   2.662   6.244  0.5245 -0.4055  0.4245
   11DOPE   H7R 1339   1.525   2.714   6.273  1.3612  2.0819 -1.0315
   11DOPE   H7S 1340   1.601   2.552   6.246  0.4944 -0.3926  1.1779
   11DOPE   C28 1341   1.664   2.698   6.101 -0.0432  0.1331  0.3746
   11DOPE   H8R 1342   1.577   2.681   6.034  0.0973 -0.0659  0.2425
   11DOPE   H8S 1343   1.749   2.635   6.068  0.2468  0.8358 -0.2623
   11DOPE   C29 1344   1.703   2.844   6.092 -0.1425  0.1383  0.0573
   11DOPE   H9R 1345   1.812   2.858   6.094 -0.0903 -0.2817  2.4360
   11DOPE  C210 1346   1.633   2.947   6.045  0.2848  0.1948  0.2286
   11DOPE  H10R 1347   1.679   3.047   6.053 -1.6032  1.3421 -2.0337
   11DOPE  C211 1348   1.490   2.941   5.992  0.5689  0.2692 -0.1611
   11DOPE  H11R 1349   1.428   2.970   6.080 -0.3610 -0.9011 -0.4119
   11DOPE  H11S 1350   1.462   2.835   5.977 -1.0184  0.5364  0.6690
   11DOPE  C212 1351   1.453   3.024   5.874  0.2054 -0.6932 -0.2294
   11DOPE  H12R 1352   1.440   3.133   5.889 -1.0934 -0.5339 -2.1134
   11DOPE  H12S 1353   1.350   2.986   5.853  1.2603 -3.1974 -1.2856
   11DOPE  C213 1354   1.537   2.999   5.745  0.7922 -0.1745 -0.0074
   11DOPE  H13R 1355   1.541   2.889   5.728 -2.3802 -0.4114  0.1835
   11DOPE  H13S 1356   1.637   3.044   5.765  0.9511 -1.2722  1.9537
   11DOPE  C214 1357   1.483   3.058   5.617  0.0081  0.2655  0.4274
   11DOPE  H14R 1358   1.501   3.167   5.609  0.3515  0.1717 -0.1708
   11DOPE  H14S 1359   1.372   3.047   5.615  0.2191 -3.7899 -1.7648
   11DOPE  C215 1360   1.546   3.003   5.487  0.4613 -0.1562  0.3127
   11DOPE  H15R 1361   1.499   3.059   5.403 -2.0170 -0.3987  1.4521
   11DOPE  H15S 1362   1.512   2.899   5.466 -3.2730  0.7578  1.0673
   11DOPE  C216 1363   1.693   3.017   5.474 -0.5532 -0.1069  0.2708
   11DOPE  H16R 1364   1.722   2.966   5.569  0.3098 -1.1595 -0.5283
   11DOPE  H16S 1365   1.733   3.120   5.485  1.3736 -0.5875 -1.6382
   11DOPE  C217 1366   1.768   2.934   5.368  0.3154  0.1240  0.4944
   11DOPE  H17R 1367   1.736   2.984   5.273  0.1126 -0.8477  0.0364
   11DOPE  H17S 1368   1.719   2.834   5.372  2.6491 -1.1409 -0.5000
   11DOPE  C218 1369   1.915   2.928   5.380  0.0953  0.1185 -0.3800
   11DOPE  H18R 1370   1.954   2.869   5.294 -1.4988 -1.7860  0.1193
   11DOPE  H18S 1371   1.946   2.867   5.468  0.6483  1.3967  0.3341
   11DOPE  H18T 1372   1.966   3.026   5.391 -0.7580  0.2895  3.9868
   11DOPE   C33 1373   2.094   3.684   7.092 -0.0034 -0.0271 -0.4752
   11DOPE   H3X 1374   2.071   3.745   7.182  2.2395 -2.1617  1.6980
   11DOPE   H3Y 1375   1.998   3.654   7.045  0.1761  2.5972 -2.7661
   11DOPE   C34 1376   2.176   3.766   6.987 -0.1532  0.2362 -0.4220
   11DOPE   H4X 1377   2.109   3.847   6.951 -2.0624 -1.0228  0.1059
   11DOPE   H4Y 1378   2.267   3.806   7.037  0.1854  2.3390 -2.5185
   11DOPE   C35 1379   2.213   3.689   6.866  0.2950  0.1765  0.4015
   11DOPE   H5X 1380   2.261   3.588   6.865  1.3282  0.6177 -2.1767
   11DOPE   H5Y 1381   2.275   3.756   6.803 -2.0384  1.0544 -1.1190
   11DOPE   C36 1382   2.091   3.657   6.781 -0.1645 -0.0592  0.7932
   11DOPE   H6X 1383   2.042   3.754   6.757  1.3956  0.5286 -0.1464
   11DOPE   H6Y 1384   2.013   3.596   6.832 -1.0660 -0.5499 -1.0844
   11DOPE   C37 1385   2.124   3.601   6.636 -0.1897  0.0659  0.0014
   11DOPE   H7X 1386   2.193   3.676   6.592 -0.9245 -1.1068 -3.4625
   11DOPE   H7Y 1387   2.189   3.511   6.643 -0.4994 -0.3493 -1.8688
   11DOPE   C38 1388   2.002   3.577   6.544 -0.3384 -0.5321 -0.4881
   11DOPE   H8X 1389   2.041   3.545   6.445 -0.1053 -1.2396 -0.1766
   11DOPE   H8Y 1390   1.946   3.672   6.536  2.5585  1.2616 -0.7607
   11DOPE   C39 1391   1.913   3.471   6.613  0.6511 -0.4744  0.0952
   11DOPE   H9X 1392   1.828   3.515   6.668 -0.0996 -2.1740  0.3649
   11DOPE  C310 1393   1.928   3.341   6.590  0.0022  0.1215  0.7738
   11DOPE  H10X 1394   1.848   3.280   6.633 -2.8985  2.2669 -1.1583
   11DOPE  C311 1395   2.022   3.270   6.502 -0.6327 -0.1208  0.4032
   11DOPE  H11X 1396   2.117   3.327   6.495 -1.1302  0.6275 -0.4713
   11DOPE  H11Y 1397   2.026   3.170   6.552  0.5096 -0.3278 -0.0812
   11DOPE  C312 1398   1.956   3.259   6.362 -0.2052  0.6299  0.6142
   11DOPE  H12X 1399   1.959   3.359   6.315  2.0378 -0.1595 -1.1425
   11DOPE  H12Y 1400   1.851   3.224   6.365 -0.1344  0.2847 -0.4979
   11DOPE  C313 1401   2.030   3.162   6.266  0.6118 -0.3164 -0.4283
   11DOPE  H13X 1402   2.135   3.191   6.245 -0.6542  2.3754 -3.9833
   11DOPE  H13Y 1403   2.035   3.068   6.324  1.9354  0.5529  0.9350
   11DOPE  C314 1404   1.959   3.126   6.131  0.1295  0.1947 -0.5028
   11DOPE  H14X 1405   1.932   3.226   6.092  0.4617  1.1676  1.6136
   11DOPE  H14Y 1406   1.868   3.066   6.154 -0.3419  0.0840 -2.4517
   11DOPE  C315 1407   2.047   3.048   6.029  0.0486  0.5446  0.2977
   11DOPE  H15X 1408   2.050   2.948   6.077 -1.5664  0.8343  1.0601
   11DOPE  H15Y 1409   2.146   3.096   6.009  0.4748  0.1066  1.2742
   11DOPE  C316 1410   1.973   3.026   5.896  0.0987  0.2820  0.6624
   11DOPE  H16X 1411   1.941   3.122   5.849 -0.3728 -1.2515 -2.3715
   11DOPE  H16Y 1412   1.885   2.958   5.897 -1.2500  1.8476 -1.6189
   11DOPE  C317 1413   2.063   2.946   5.799 -0.6014  0.3775  0.1772
   11DOPE  H17X 1414   2.001   2.937   5.708 -2.3875 -0.8913  1.4329
   11DOPE  H17Y 1415   2.149   3.013   5.776 -0.8213  0.8853  0.8088
   11DOPE  C318 1416   2.116   2.810   5.848  1.3814  0.6997 -0.3707
   11DOPE  H18X 1417   2.032   2.741   5.869  0.3569  1.7531 -0.9156
   11DOPE  H18Y 1418   2.175   2.748   5.778  1.1021 -0.3620  0.3214
   11DOPE  H18Z 1419   2.173   2.829   5.942  0.1005 -0.4234  0.6674
   12DOPE     N 1420   4.384   6.838   7.097  0.5587  0.0219 -0.1611
   12DOPE   HN1 1421   4.345   6.853   7.002 -1.7419  0.6125  0.8060
   12DOPE   HN2 1422   4.393   6.736   7.112  0.5885  0.0926  0.3354
   12DOPE   HN3 1423   4.310   6.862   7.166  1.6567 -0.5933  1.2890
   12DOPE   C12 1424   4.499   6.918   7.131  0.5460  0.7192  0.3559
   12DOPE  H12A 1425   4.574   6.909   7.049 -0.1581 -1.2505 -0.1281
   12DOPE  H12B 1426   4.545   6.866   7.218  1.2927  0.1459 -0.3552
   12DOPE   C11 1427   4.454   7.057   7.166  0.3617  0.2147  0.2782
   12DOPE  H11A 1428   4.545   7.114   7.194 -0.5752  0.7857  2.3514
   12DOPE  H11B 1429   4.384   7.053   7.252  0.9121 -0.2908  0.7138
   12DOPE     P 1430   4.397   7.274   7.018  0.1490  0.0190  0.0389
   12DOPE   O13 1431   4.510   7.330   7.098 -0.1308  0.3241 -0.1146
   12DOPE   O14 1432   4.265   7.316   7.058 -0.3121  0.1916 -0.3612
   12DOPE   O11 1433   4.410   7.292   6.868  0.1859  0.6123 -0.2290
   12DOPE   O12 1434   4.391   7.116   7.052  0.1062 -0.2426  0.3655
   12DOPE    C1 1435   4.495   7.215   6.786 -0.3428  0.3612 -0.1967
   12DOPE    HA 1436   4.464   7.238   6.682  0.4903  1.9653 -0.1145
   12DOPE    HB 1437   4.480   7.105   6.796  1.8820 -0.1212 -1.3274
   12DOPE    C2 1438   4.648   7.247   6.793 -0.5688  0.6230  0.1150
   12DOPE    HS 1439   4.676   7.223   6.897  2.3307 -0.2761 -0.7892
   12DOPE   O21 1440   4.680   7.381   6.754 -0.0649  0.1323 -0.1246
   12DOPE   C21 1441   4.794   7.419   6.797  0.2373 -0.7384  0.1224
   12DOPE   O22 1442   4.878   7.354   6.856 -0.5316 -0.5804  0.2144
   12DOPE   C22 1443   4.812   7.568   6.755  0.4235 -0.1918  0.5728
   12DOPE   H2R 1444   4.806   7.639   6.841  2.4214  0.9583 -0.1706
   12DOPE   H2S 1445   4.734   7.587   6.679  0.5856  1.0175  0.6897
   12DOPE    C3 1446   4.728   7.149   6.696  0.5146  0.3540 -0.6605
   12DOPE    HX 1447   4.685   7.047   6.707  0.6143  0.3630 -0.1730
   12DOPE    HY 1448   4.831   7.144   6.737  0.7818  2.4319 -0.9718
   12DOPE   O31 1449   4.730   7.179   6.553  0.0735 -0.4985 -0.0775
   12DOPE   C31 1450   4.796   7.080   6.490  0.1547  0.0595  0.3043
   12DOPE   O32 1451   4.847   6.987   6.544 -0.3428  0.2920  0.2458
   12DOPE   C32 1452   4.811   7.109   6.342 -0.6702 -0.4857 -0.5335
   12DOPE   H2X 1453   4.719   7.159   6.307 -1.0826  0.3338  1.5802
   12DOPE   H2Y 1454   4.899   7.176   6.329 -1.5864  0.3388 -2.9111
   12DOPE   C23 1455   4.943   7.600   6.677  0.6157 -0.0637 -0.4064
   12DOPE   H3R 1456   5.027   7.575   6.745 -0.3373 -1.2417  0.3665
   12DOPE   H3S 1457   4.954   7.709   6.659  1.7002 -0.5747 -3.4952
   12DOPE   C24 1458   4.950   7.530   6.544 -0.4890  0.8540 -0.4889
   12DOPE   H4R 1459   4.897   7.591   6.468  0.1521  0.2040 -1.4836
   12DOPE   H4S 1460   4.901   7.430   6.549 -0.2757  0.8069  0.9529
   12DOPE   C25 1461   5.098   7.497   6.499  0.3605 -1.0268  0.2326
   12DOPE   H5R 1462   5.127   7.405   6.555 -1.0525 -0.9396  1.1553
   12DOPE   H5S 1463   5.162   7.580   6.536 -0.1060  0.2600 -1.7439
   12DOPE   C26 1464   5.122   7.464   6.350 -0.3467  0.3738 -0.4083
   12DOPE   H6R 1465   5.069   7.374   6.311  1.3250 -1.0855  0.5086
   12DOPE   H6S 1466   5.231   7.444   6.339  0.2962  3.1935  0.0543
   12DOPE   C27 1467   5.086   7.586   6.260 -0.0420  0.0004  0.0935
   12DOPE   H7R 1468   5.120   7.678   6.311  1.4947 -1.0197  1.0323
   12DOPE   H7S 1469   4.975   7.590   6.254 -0.0598  1.8240  0.9219
   12DOPE   C28 1470   5.144   7.573   6.113  0.2371 -0.2979 -0.5425
   12DOPE   H8R 1471   5.095   7.477   6.084 -0.6433 -1.1850  3.3632
   12DOPE   H8S 1472   5.253   7.553   6.122  0.2729  0.5534  1.2261
   12DOPE   C29 1473   5.102   7.690   6.033  0.1586  0.1650  0.0251
   12DOPE   H9R 1474   4.995   7.715   6.033  0.2429  0.6693  1.6749
   12DOPE  C210 1475   5.174   7.771   5.954 -0.2450 -0.4656 -0.3987
   12DOPE  H10R 1476   5.128   7.850   5.893 -0.1966 -1.1589 -1.3616
   12DOPE  C211 1477   5.322   7.757   5.934 -0.4931  0.0122  0.7961
   12DOPE  H11R 1478   5.347   7.739   5.827 -1.9675 -0.5522  0.5226
   12DOPE  H11S 1479   5.367   7.678   5.998 -2.2096 -1.1295  0.6720
   12DOPE  C212 1480   5.387   7.891   5.979 -0.1010  0.1491 -0.7040
   12DOPE  H12R 1481   5.331   7.978   5.939 -0.6656 -0.2701 -0.8404
   12DOPE  H12S 1482   5.490   7.896   5.937 -0.2157 -0.5211 -1.0784
   12DOPE  C213 1483   5.401   7.906   6.135 -0.2566  0.3772  0.0354
   12DOPE  H13R 1484   5.497   7.961   6.150 -0.1348  0.8149 -2.0231
   12DOPE  H13S 1485   5.424   7.803   6.170  1.7023  0.4306 -0.9131
   12DOPE  C214 1486   5.283   7.957   6.216 -0.2457  0.9194 -0.2187
   12DOPE  H14R 1487   5.199   7.886   6.206 -0.0595  0.8536 -1.5528
   12DOPE  H14S 1488   5.263   8.056   6.170  0.9883  0.9518 -0.7445
   12DOPE  C215 1489   5.331   7.976   6.358  0.4011 -0.2902  0.5571
   12DOPE  H15R 1490   5.427   8.031   6.361  0.6956 -0.5286 -1.8969
   12DOPE  H15S 1491   5.345   7.879   6.410 -0.1933  0.1869  1.6277
   12DOPE  C216 1492   5.221   8.055   6.435 -0.2204 -0.1034 -0.4695
   12DOPE  H16R 1493   5.119   8.013   6.429 -0.7445  0.9245  0.7607
   12DOPE  H16S 1494   5.225   8.163   6.406 -2.5006  0.0975 -0.1864
   12DOPE  C217 1495   5.252   8.057   6.586  0.5339  0.1288  0.5187
   12DOPE  H17R 1496   5.217   8.157   6.619 -1.6185 -0.0111 -1.0946
   12DOPE  H17S 1497   5.358   8.062   6.616 -0.1369 -1.1214  3.4402
   12DOPE  C218 1498   5.184   7.941   6.661 -0.4485  0.1088  0.1668
   12DOPE  H18R 1499   5.194   7.957   6.770 -0.2937  1.6399 -0.0509
   12DOPE  H18S 1500   5.235   7.845   6.640  2.8161  1.3547  1.7535
   12DOPE  H18T 1501   5.077   7.936   6.629 -0.0939  0.2876 -1.1177
   12DOPE   C33 1502   4.841   6.977   6.258 -0.0816 -0.5454 -0.3794
   12DOPE   H3X 1503   4.750   6.915   6.272  1.2318 -2.8242 -1.3072
   12DOPE   H3Y 1504   4.928   6.913   6.285  0.0420  0.8530  2.9313
   12DOPE   C34 1505   4.836   7.010   6.110 -0.0621  0.0310  0.3691
   12DOPE   H4X 1506   4.782   7.106   6.094  0.5219  0.2112 -0.6887
   12DOPE   H4Y 1507   4.939   7.038   6.077  1.1888 -4.4364 -0.2592
   12DOPE   C35 1508   4.798   6.898   6.011  0.1754 -0.2654  0.1696
   12DOPE   H5X 1509   4.696   6.874   6.046  0.7519 -0.9898  1.4242
   12DOPE   H5Y 1510   4.861   6.808   6.029  0.6974  0.3951  1.7697
   12DOPE   C36 1511   4.796   6.933   5.864 -0.5003 -0.3132  0.6217
   12DOPE   H6X 1512   4.898   6.931   5.820 -0.5709 -2.6489  0.4834
   12DOPE   H6Y 1513   4.759   7.038   5.860 -2.6088 -1.0603 -3.0533
   12DOPE   C37 1514   4.701   6.844   5.780 -0.4876  0.4305 -0.2148
   12DOPE   H7X 1515   4.741   6.741   5.767 -1.8384 -0.1327 -0.1519
   12DOPE   H7Y 1516   4.607   6.847   5.840 -0.0115  1.9101  0.4910
   12DOPE   C38 1517   4.690   6.907   5.640  0.6606 -0.9322 -0.1763
   12DOPE   H8X 1518   4.789   6.907   5.590  1.5639  1.4606  1.4188
   12DOPE   H8Y 1519   4.659   7.013   5.649 -0.4016 -1.3107  0.9415
   12DOPE   C39 1520   4.585   6.834   5.556  0.5182 -0.3762 -0.2109
   12DOPE   H9X 1521   4.479   6.847   5.584 -0.1096 -1.4262 -1.9620
   12DOPE  C310 1522   4.618   6.761   5.439  0.7761  0.0447 -0.3398
   12DOPE  H10X 1523   4.545   6.695   5.391  1.1914  0.4502 -1.5522
   12DOPE  C311 1524   4.753   6.743   5.384 -0.3272 -0.1117 -0.2574
   12DOPE  H11X 1525   4.799   6.843   5.366  1.2100 -0.3078  2.1842
   12DOPE  H11Y 1526   4.815   6.698   5.465  1.9628  1.2541 -1.1441
   12DOPE  C312 1527   4.756   6.655   5.254 -0.3418 -0.3516  0.5745
   12DOPE  H12X 1528   4.734   6.548   5.272 -0.5647 -0.2158  1.1264
   12DOPE  H12Y 1529   4.863   6.655   5.224 -0.5812 -1.5846 -0.3548
   12DOPE  C313 1530   4.677   6.713   5.138  0.2408  0.3542  0.8439
   12DOPE  H13X 1531   4.570   6.742   5.150  0.6304  1.7144  1.1488
   12DOPE  H13Y 1532   4.730   6.802   5.100  0.9328 -0.8668 -1.1667
   12DOPE  C314 1533   4.678   6.608   5.022  0.4016  0.7576  1.3784
   12DOPE  H14X 1534   4.628   6.517   5.061 -0.5493  0.5628 -0.2216
   12DOPE  H14Y 1535   4.783   6.577   5.002 -0.5526 -1.7175 -0.2761
   12DOPE  C315 1536   4.615   6.655   4.884  0.0464 -0.3583 -0.7174
   12DOPE  H15X 1537   4.637   6.763   4.868 -1.9369  0.1942 -0.0590
   12DOPE  H15Y 1538   4.506   6.639   4.895 -0.1839  0.5262 -1.5354
   12DOPE  C316 1539   4.675   6.575   4.764 -0.1382  0.2266 -0.5936
   12DOPE  H16X 1540   4.672   6.465   4.778 -3.2175  0.3386  0.1191
   12DOPE  H16Y 1541   4.774   6.612   4.729 -0.3518  0.5526 -0.8619
   12DOPE  C317 1542   4.587   6.583   4.637 -0.2658  0.5004  0.5888
   12DOPE  H17X 1543   4.487   6.544   4.667  0.7650 -0.5311  2.9334
   12DOPE  H17Y 1544   4.585   6.689   4.603 -0.8402 -0.2670 -2.0247
   12DOPE  C318 1545   4.639   6.505   4.521 -0.7322 -0.3424 -0.6982
   12DOPE  H18X 1546   4.567   6.507   4.437 -1.5724 -1.5044 -0.0339
   12DOPE  H18Y 1547   4.740   6.546   4.498 -0.3510 -2.1157 -2.4135
   12DOPE  H18Z 1548   4.642   6.395   4.541  0.3689 -0.0510  0.9296
   13DOPE     N 1549   3.527   1.559   7.202  0.1478  0.5374  0.1216
   13DOPE   HN1 1550   3.431   1.598   7.198  0.7548  2.1089 -0.1091
   13DOPE   HN2 1551   3.581   1.607   7.277 -2.5477  0.1134  2.5005
   13DOPE   HN3 1552   3.570   1.582   7.110  2.2649 -0.5975  0.7540
   13DOPE   C12 1553   3.533   1.418   7.242  0.0538  0.2227  0.4521
   13DOPE  H12A 1554   3.445   1.393   7.304  0.3737 -1.9309  0.1318
   13DOPE  H12B 1555   3.623   1.397   7.303  0.3662 -0.7923 -0.3084
   13DOPE   C11 1556   3.531   1.328   7.112  0.0440  0.0346 -0.9932
   13DOPE  H11A 1557   3.437   1.320   7.053 -0.5717 -2.9097  0.2122
   13DOPE  H11B 1558   3.533   1.231   7.165  1.7966  0.8911  0.6581
   13DOPE     P 1559   3.666   1.426   6.919 -0.5757  0.1221 -0.1204
   13DOPE   O13 1560   3.800   1.406   6.856 -0.4083  0.3812  0.0346
   13DOPE   O14 1561   3.638   1.566   6.959  0.7689  0.3481 -0.5002
   13DOPE   O11 1562   3.549   1.374   6.832  0.3102 -0.5959 -0.3232
   13DOPE   O12 1563   3.654   1.329   7.041  0.2324  0.2568 -0.3047
   13DOPE    C1 1564   3.448   1.459   6.761  0.3862  0.4694 -0.0083
   13DOPE    HA 1565   3.398   1.530   6.831 -0.2347 -1.4501  1.5945
   13DOPE    HB 1566   3.357   1.396   6.750  0.1295  0.2114  2.6942
   13DOPE    C2 1567   3.505   1.510   6.630  0.5553 -0.1302  0.5226
   13DOPE    HS 1568   3.566   1.423   6.598 -0.2697 -0.0332 -1.4253
   13DOPE   O21 1569   3.583   1.630   6.660  0.4546  0.0513  0.6509
   13DOPE   C21 1570   3.691   1.647   6.581 -0.3194  0.5477  0.2299
   13DOPE   O22 1571   3.747   1.564   6.512  0.4573  0.8360 -0.2801
   13DOPE   C22 1572   3.724   1.792   6.599  0.8664 -0.3356 -0.4986
   13DOPE   H2R 1573   3.763   1.797   6.703 -2.2530 -4.4836  1.1696
   13DOPE   H2S 1574   3.631   1.848   6.576  0.5670 -0.6542 -0.0831
   13DOPE    C3 1575   3.392   1.544   6.528  0.2575  0.1036  0.6363
   13DOPE    HX 1576   3.333   1.631   6.566  0.9128  1.0473 -0.4271
   13DOPE    HY 1577   3.325   1.457   6.516 -1.1213  1.3189 -0.8243
   13DOPE   O31 1578   3.450   1.579   6.399 -0.5311 -0.1552  0.4218
   13DOPE   C31 1579   3.494   1.479   6.325 -0.0458 -0.1866  0.1753
   13DOPE   O32 1580   3.505   1.364   6.363 -0.6442  0.3997 -0.1422
   13DOPE   C32 1581   3.561   1.530   6.194  0.0564  0.9249 -0.3381
   13DOPE   H2X 1582   3.551   1.640   6.186  0.6441  1.0248  0.1946
   13DOPE   H2Y 1583   3.670   1.515   6.213  0.6696  3.1503 -1.6985
   13DOPE   C23 1584   3.842   1.835   6.503  0.4620  0.0324 -0.1207
   13DOPE   H3R 1585   3.837   1.946   6.500 -1.2810  0.0290  0.7816
   13DOPE   H3S 1586   3.821   1.801   6.400 -2.4515  2.0894 -0.3277
   13DOPE   C24 1587   3.978   1.805   6.555  0.5644  0.1093  0.0573
   13DOPE   H4R 1588   3.992   1.700   6.590 -0.6413  0.1455  0.7239
   13DOPE   H4S 1589   3.992   1.865   6.648  2.1513  1.9186 -1.2792
   13DOPE   C25 1590   4.089   1.842   6.453 -0.5773 -0.5056  0.3171
   13DOPE   H5R 1591   4.050   1.798   6.358 -2.1946  2.0863 -0.3458
   13DOPE   H5S 1592   4.193   1.808   6.467 -1.3773 -3.5617 -0.4088
   13DOPE   C26 1593   4.097   1.993   6.417  0.4545 -0.4961  0.1411
   13DOPE   H6R 1594   3.996   2.017   6.378 -0.7388 -1.8694  2.2504
   13DOPE   H6S 1595   4.164   2.017   6.331  1.3451  1.0256  1.1927
   13DOPE   C27 1596   4.151   2.075   6.532  0.3123  0.7055 -0.4731
   13DOPE   H7R 1597   4.248   2.028   6.559 -0.7274 -0.9348  0.5368
   13DOPE   H7S 1598   4.081   2.075   6.617  0.2626 -1.5503 -0.4703
   13DOPE   C28 1599   4.162   2.221   6.504 -0.7043  0.7075  0.8040
   13DOPE   H8R 1600   4.219   2.205   6.410 -0.5910  0.3869  0.9282
   13DOPE   H8S 1601   4.223   2.267   6.584 -0.2247 -0.5388  1.1694
   13DOPE   C29 1602   4.022   2.286   6.482  0.2890 -0.5291  0.5874
   13DOPE   H9R 1603   3.969   2.315   6.574 -0.9446  0.0927 -0.2871
   13DOPE  C210 1604   3.985   2.330   6.357  0.6445  1.0728  0.1155
   13DOPE  H10R 1605   3.905   2.405   6.353 -0.3531  0.0215 -0.2270
   13DOPE  C211 1606   4.061   2.320   6.227 -0.0074 -0.5211 -0.9304
   13DOPE  H11R 1607   4.109   2.220   6.230 -0.8424 -0.9061  0.9213
   13DOPE  H11S 1608   4.138   2.399   6.216 -0.4655  0.1039  0.1606
   13DOPE  C212 1609   3.963   2.313   6.108  0.7548 -1.0059 -0.2569
   13DOPE  H12R 1610   3.922   2.411   6.077 -1.6242 -2.0553 -0.6273
   13DOPE  H12S 1611   3.870   2.255   6.129 -0.1463  0.1286 -1.0268
   13DOPE  C213 1612   4.029   2.271   5.980  0.6025  0.2767 -0.3341
   13DOPE  H13R 1613   4.077   2.172   5.996  2.1197  0.9370 -0.6197
   13DOPE  H13S 1614   4.111   2.345   5.964 -0.1133  0.8843 -1.2876
   13DOPE  C214 1615   3.951   2.258   5.850  0.0423 -0.0661 -1.0897
   13DOPE  H14R 1616   3.890   2.350   5.839  1.0090  0.9938  1.5460
   13DOPE  H14S 1617   3.880   2.173   5.862 -1.2098  1.1659  0.6643
   13DOPE  C215 1618   4.036   2.235   5.722  0.0215 -0.3657 -0.8786
   13DOPE  H15R 1619   4.093   2.140   5.731  0.8582  0.2496  0.5498
   13DOPE  H15S 1620   4.109   2.317   5.712  0.3063 -0.7319 -1.9188
   13DOPE  C216 1621   3.954   2.244   5.594 -0.5916 -0.0340  0.2423
   13DOPE  H16R 1622   3.884   2.330   5.596 -2.7613 -1.5138 -3.0067
   13DOPE  H16S 1623   3.883   2.159   5.582 -0.5429 -0.0740  0.2361
   13DOPE  C217 1624   4.036   2.246   5.464  0.1008 -0.1714 -0.7264
   13DOPE  H17R 1625   4.081   2.145   5.455  2.1333  0.6102  0.1338
   13DOPE  H17S 1626   4.115   2.324   5.473  0.8963 -1.0415  0.0191
   13DOPE  C218 1627   3.960   2.262   5.335 -0.1238 -0.4222 -0.0311
   13DOPE  H18R 1628   4.033   2.245   5.254  2.2197  0.0559  1.8619
   13DOPE  H18S 1629   3.906   2.360   5.336 -0.3160 -0.5304  0.7809
   13DOPE  H18T 1630   3.885   2.180   5.329 -0.2830 -0.2782 -0.0293
   13DOPE   C33 1631   3.501   1.457   6.076 -0.0171 -0.3098  0.4979
   13DOPE   H3X 1632   3.397   1.491   6.059  0.1329 -0.6928 -1.3960
   13DOPE   H3Y 1633   3.508   1.349   6.103 -0.1483 -0.7875 -1.2789
   13DOPE   C34 1634   3.574   1.473   5.939 -0.5743 -0.1874  0.8691
   13DOPE   H4X 1635   3.567   1.582   5.920  2.2911 -0.3086 -1.8696
   13DOPE   H4Y 1636   3.682   1.448   5.952  0.1903  2.6542  0.6608
   13DOPE   C35 1637   3.508   1.387   5.825 -0.4934 -0.4805 -0.0276
   13DOPE   H5X 1638   3.409   1.437   5.822 -1.4891 -2.2289  1.5728
   13DOPE   H5Y 1639   3.495   1.282   5.859 -1.5398 -0.6291 -0.8529
   13DOPE   C36 1640   3.586   1.390   5.689 -0.5587  0.4822  0.2975
   13DOPE   H6X 1641   3.682   1.334   5.695  0.3358  1.7960 -1.1379
   13DOPE   H6Y 1642   3.615   1.496   5.674  1.4559 -0.1159 -0.4170
   13DOPE   C37 1643   3.494   1.354   5.564  0.1227 -0.5437 -0.6290
   13DOPE   H7X 1644   3.400   1.414   5.567 -0.0611 -0.8672  0.2641
   13DOPE   H7Y 1645   3.547   1.379   5.470 -1.4241 -0.8539 -1.6233
   13DOPE   C38 1646   3.456   1.204   5.556  0.5425  0.8643 -0.2684
   13DOPE   H8X 1647   3.431   1.175   5.660 -2.7686  1.6268 -0.7433
   13DOPE   H8Y 1648   3.551   1.152   5.529 -0.9819 -1.9665 -0.6183
   13DOPE   C39 1649   3.344   1.168   5.462 -0.4205  0.2615  0.1618
   13DOPE   H9X 1650   3.239   1.182   5.490 -0.5209 -0.7207  0.3111
   13DOPE  C310 1651   3.364   1.109   5.339 -1.0917 -0.6006  0.0039
   13DOPE  H10X 1652   3.277   1.091   5.274 -1.9545  2.9771  0.0083
   13DOPE  C311 1653   3.499   1.077   5.274  0.1061 -0.1691 -0.4510
   13DOPE  H11X 1654   3.485   1.131   5.178 -1.5972  1.7122  0.7692
   13DOPE  H11Y 1655   3.587   1.118   5.328  0.2982  0.1128 -0.9662
   13DOPE  C312 1656   3.522   0.931   5.238 -0.6778  0.4283  0.8628
   13DOPE  H12X 1657   3.428   0.881   5.207  0.2432 -0.3184 -0.8951
   13DOPE  H12Y 1658   3.550   0.870   5.326  1.6455  0.7404  0.4192
   13DOPE  C313 1659   3.629   0.899   5.126  0.1799  0.2976 -0.0879
   13DOPE  H13X 1660   3.611   0.943   5.025 -0.5555  0.2914  0.0373
   13DOPE  H13Y 1661   3.729   0.940   5.152 -0.1266  2.3731 -1.8587
   13DOPE  C314 1662   3.626   0.749   5.103 -0.6521 -0.3019 -0.0489
   13DOPE  H14X 1663   3.531   0.721   5.052 -0.4209 -1.0082 -0.1008
   13DOPE  H14Y 1664   3.635   0.693   5.198 -2.7489 -0.6738 -0.0265
   13DOPE  C315 1665   3.744   0.706   5.004 -0.2826 -0.1393 -0.6130
   13DOPE  H15X 1666   3.833   0.755   5.048  1.6713 -2.4830 -1.7288
   13DOPE  H15Y 1667   3.727   0.744   4.900 -0.4151  0.5157 -0.3582
   13DOPE  C316 1668   3.777   0.554   5.007 -0.8261 -0.3598  0.0782
   13DOPE  H16X 1669   3.679   0.503   4.994 -1.5974  0.6804  1.5760
   13DOPE  H16Y 1670   3.809   0.522   5.109  1.7048  3.0460  0.5415
   13DOPE  C317 1671   3.872   0.517   4.897 -0.7254 -0.3904  0.1876
   13DOPE  H17X 1672   3.839   0.554   4.798 -1.2659  1.0154  0.8589
   13DOPE  H17Y 1673   3.970   0.568   4.902 -0.7706  0.2778 -3.3747
   13DOPE  C318 1674   3.898   0.366   4.890 -0.3337  0.2376 -0.6291
   13DOPE  H18X 1675   3.804   0.307   4.885 -0.5863  0.1245  2.9010
   13DOPE  H18Y 1676   3.959   0.342   4.800  1.2857 -1.0133  0.7254
   13DOPE  H18Z 1677   3.942   0.322   4.982 -0.4797  1.3481 -0.0264
   14DOPE     N 1678   0.354   4.606   7.166  0.1155  0.8281 -0.1838
   14DOPE   HN1 1679   0.352   4.504   7.188 -1.2030  0.9006  0.0762
   14DOPE   HN2 1680   0.360   4.665   7.251  2.1938 -1.9103  1.7641
   14DOPE   HN3 1681   0.255   4.615   7.137 -0.0411 -1.2812 -0.4701
   14DOPE   C12 1682   0.443   4.637   7.055 -0.0622 -1.0217  0.6963
   14DOPE  H12A 1683   0.547   4.632   7.096 -0.0835  2.4646  1.4955
   14DOPE  H12B 1684   0.413   4.736   7.014  2.7372 -1.2806 -2.3479
   14DOPE   C11 1685   0.432   4.534   6.940 -0.4499 -0.3980 -0.1119
   14DOPE  H11A 1686   0.513   4.559   6.868 -0.0568 -0.3868  0.3259
   14DOPE  H11B 1687   0.332   4.543   6.894 -1.0407 -0.7299  1.0611
   14DOPE     P 1688   0.541   4.295   6.947  0.0716 -0.2918  0.1369
   14DOPE   O13 1689   0.493   4.164   6.990 -0.2538  0.7121 -0.3465
   14DOPE   O14 1690   0.680   4.336   6.993  0.0538  0.0271  0.1064
   14DOPE   O11 1691   0.529   4.299   6.791  0.1672  0.3598 -0.0501
   14DOPE   O12 1692   0.430   4.397   6.989 -0.0781  0.6174 -0.3577
   14DOPE    C1 1693   0.407   4.255   6.729 -0.3247 -0.1698  0.6250
   14DOPE    HA 1694   0.334   4.206   6.797 -0.0988  0.4052  1.2970
   14DOPE    HB 1695   0.433   4.175   6.657 -0.9907  1.4163 -1.4768
   14DOPE    C2 1696   0.330   4.365   6.650 -0.4524 -0.3901  0.0957
   14DOPE    HS 1697   0.282   4.439   6.717 -0.5102 -0.0826 -0.2839
   14DOPE   O21 1698   0.240   4.298   6.562  1.0086 -0.5065 -0.3016
   14DOPE   C21 1699   0.138   4.372   6.526  0.0792 -0.3906 -0.5675
   14DOPE   O22 1700   0.123   4.492   6.552  0.0518  0.4551 -0.0591
   14DOPE   C22 1701   0.026   4.287   6.468 -0.1912 -0.1732 -0.4319
   14DOPE   H2R 1702  -0.072   4.309   6.517 -0.3646 -2.7914  0.5461
   14DOPE   H2S 1703   0.046   4.178   6.478  4.2543  0.3509 -1.6814
   14DOPE    C3 1704   0.437   4.445   6.560 -0.2537  0.3259  0.3003
   14DOPE    HX 1705   0.505   4.501   6.628  1.6275 -1.7075  0.1955
   14DOPE    HY 1706   0.397   4.528   6.498 -1.5129 -0.6002 -0.1728
   14DOPE   O31 1707   0.523   4.351   6.484 -0.0326 -0.4110 -0.3519
   14DOPE   C31 1708   0.614   4.418   6.406 -0.1804  0.5812  0.3673
   14DOPE   O32 1709   0.638   4.537   6.412 -0.7779 -0.0838 -0.5258
   14DOPE   C32 1710   0.683   4.320   6.314 -0.1843  0.1560  0.1861
   14DOPE   H2X 1711   0.794   4.322   6.324  0.2265 -1.7791 -2.6385
   14DOPE   H2Y 1712   0.652   4.217   6.342 -0.5072  0.1053 -0.3434
   14DOPE   C23 1713  -0.001   4.316   6.317 -0.4730  0.7538 -0.0523
   14DOPE   H3R 1714   0.102   4.317   6.277  0.1491  2.4360  1.4520
   14DOPE   H3S 1715  -0.035   4.421   6.305 -1.4148  0.9650  3.3018
   14DOPE   C24 1716  -0.102   4.220   6.243  0.0572  0.3115 -0.3276
   14DOPE   H4R 1717  -0.204   4.256   6.265  0.1068  0.9367 -1.1061
   14DOPE   H4S 1718  -0.098   4.118   6.287 -2.5545  0.6198  0.8179
   14DOPE   C25 1719  -0.082   4.210   6.088  0.4406  0.5767  0.2092
   14DOPE   H5R 1720   0.022   4.180   6.061  0.0210  0.7008 -1.6639
   14DOPE   H5S 1721  -0.099   4.314   6.054 -0.5632  0.9152  1.6192
   14DOPE   C26 1722  -0.181   4.104   6.045  0.2372  0.6287  0.5669
   14DOPE   H6R 1723  -0.286   4.117   6.080  0.5441  1.3990  1.2258
   14DOPE   H6S 1724  -0.146   4.003   6.078 -2.6935 -0.0979  1.8137
   14DOPE   C27 1725  -0.187   4.113   5.891  0.7885  0.2829 -0.2603
   14DOPE   H7R 1726  -0.087   4.135   5.848  0.6830 -1.0733 -1.2563
   14DOPE   H7S 1727  -0.252   4.199   5.865  0.2683  0.2001  0.7018
   14DOPE   C28 1728  -0.264   3.998   5.821 -0.4725  1.1081  0.3912
   14DOPE   H8R 1729  -0.202   3.906   5.814 -1.3229  0.6810 -2.7086
   14DOPE   H8S 1730  -0.272   4.015   5.712  0.8715  0.2339  0.1345
   14DOPE   C29 1731  -0.394   3.973   5.888  0.4799  0.8049  0.5336
   14DOPE   H9R 1732  -0.392   3.941   5.994 -2.1997 -1.8963 -0.0880
   14DOPE  C210 1733  -0.521   4.000   5.837  0.3871 -0.2137 -0.4026
   14DOPE  H10R 1734  -0.607   3.988   5.905 -0.2538  0.5231 -1.0650
   14DOPE  C211 1735  -0.556   4.058   5.703 -0.0193  0.1446 -0.8280
   14DOPE  H11R 1736  -0.624   3.987   5.651  2.6303 -3.5734  0.3371
   14DOPE  H11S 1737  -0.468   4.063   5.636  0.4296  0.1157 -0.2542
   14DOPE  C212 1738  -0.610   4.195   5.699 -0.0272 -0.1649  0.6161
   14DOPE  H12R 1739  -0.702   4.205   5.760 -0.3513  2.5119 -0.2134
   14DOPE  H12S 1740  -0.630   4.212   5.591  1.9435  0.8590  0.3528
   14DOPE  C213 1741  -0.517   4.299   5.763  0.4554  0.2259  0.0238
   14DOPE  H13R 1742  -0.528   4.398   5.714 -2.0995  0.1008  0.2473
   14DOPE  H13S 1743  -0.411   4.267   5.752 -0.2774 -2.9646  1.1084
   14DOPE  C214 1744  -0.548   4.329   5.912 -0.2160 -0.0933  0.4358
   14DOPE  H14R 1745  -0.551   4.229   5.961  1.0654 -0.3795 -0.0256
   14DOPE  H14S 1746  -0.645   4.381   5.928 -0.0959  0.4372 -0.5031
   14DOPE  C215 1747  -0.447   4.421   5.977  0.1923  0.2212 -0.4361
   14DOPE  H15R 1748  -0.444   4.521   5.928 -2.1835  0.1519 -0.7994
   14DOPE  H15S 1749  -0.350   4.369   5.992  0.5654  1.2159  0.8160
   14DOPE  C216 1750  -0.498   4.456   6.121 -0.0782  0.3308  0.3263
   14DOPE  H16R 1751  -0.586   4.522   6.106  0.1320  0.6138  0.3170
   14DOPE  H16S 1752  -0.423   4.518   6.176 -2.8125  1.7941  2.6644
   14DOPE  C217 1753  -0.535   4.348   6.220  0.0144  0.9285 -0.0078
   14DOPE  H17R 1754  -0.453   4.275   6.233  0.9607  1.5973 -1.8877
   14DOPE  H17S 1755  -0.627   4.304   6.174  1.6138 -1.0710 -1.4717
   14DOPE  C218 1756  -0.564   4.397   6.365  0.5290 -0.2318 -0.4752
   14DOPE  H18R 1757  -0.587   4.313   6.434 -0.2041 -0.3808 -0.8956
   14DOPE  H18S 1758  -0.661   4.451   6.371  0.8500  0.2180  2.5979
   14DOPE  H18T 1759  -0.480   4.463   6.398 -0.7163  2.3524 -2.1382
   14DOPE   C33 1760   0.649   4.356   6.165 -0.2858 -0.1230 -0.6737
   14DOPE   H3X 1761   0.686   4.459   6.142  0.7070  0.0040  1.3150
   14DOPE   H3Y 1762   0.540   4.370   6.150  0.1049  1.0741 -2.9031
   14DOPE   C34 1763   0.703   4.245   6.081 -0.0994  1.1844  0.4629
   14DOPE   H4X 1764   0.793   4.194   6.123 -0.2648  0.6979  0.2273
   14DOPE   H4Y 1765   0.614   4.180   6.070  1.5498 -1.0846 -0.5120
   14DOPE   C35 1766   0.729   4.302   5.945 -0.1246  0.7728  0.1825
   14DOPE   H5X 1767   0.817   4.368   5.957 -1.6121  2.7275  0.8473
   14DOPE   H5Y 1768   0.643   4.362   5.909 -1.0455 -1.2784 -1.2108
   14DOPE   C36 1769   0.758   4.197   5.839  0.1890 -0.7786 -0.4960
   14DOPE   H6X 1770   0.676   4.128   5.811  0.9485 -1.5635 -0.8047
   14DOPE   H6Y 1771   0.832   4.131   5.890 -0.9223 -1.0875  0.7629
   14DOPE   C37 1772   0.837   4.232   5.719  0.2586 -0.4435  0.0273
   14DOPE   H7X 1773   0.919   4.297   5.755 -1.7307  0.7341  2.8013
   14DOPE   H7Y 1774   0.889   4.140   5.684 -2.1619 -2.0464  0.4415
   14DOPE   C38 1775   0.754   4.297   5.605  0.3353 -0.2444 -0.0703
   14DOPE   H8X 1776   0.718   4.398   5.635 -1.6252 -0.5150 -1.2799
   14DOPE   H8Y 1777   0.663   4.238   5.579  0.2410 -0.2707  0.3198
   14DOPE   C39 1778   0.835   4.336   5.481  0.1099  0.1041  0.0148
   14DOPE   H9X 1779   0.940   4.351   5.510  0.8665 -4.0190 -0.0145
   14DOPE  C310 1780   0.793   4.325   5.354 -0.5837 -0.8309 -0.1743
   14DOPE  H10X 1781   0.870   4.320   5.275  0.9292  0.6523  1.1119
   14DOPE  C311 1782   0.653   4.280   5.308  0.4067  0.0614 -0.0368
   14DOPE  H11X 1783   0.669   4.175   5.275  1.5373 -0.6917  2.6799
   14DOPE  H11Y 1784   0.574   4.277   5.386  0.8873 -2.7416  0.4529
   14DOPE  C312 1785   0.595   4.364   5.183 -0.2733  0.5727 -0.4383
   14DOPE  H12X 1786   0.497   4.317   5.160  0.2566  0.1878 -2.0655
   14DOPE  H12Y 1787   0.668   4.346   5.101  1.2178 -2.5609  1.4145
   14DOPE  C313 1788   0.571   4.512   5.212  0.3213  0.4700 -0.0730
   14DOPE  H13X 1789   0.517   4.517   5.309  1.3153 -2.0782  0.6917
   14DOPE  H13Y 1790   0.670   4.563   5.213  1.1030 -1.0182  0.4040
   14DOPE  C314 1791   0.484   4.588   5.110 -0.1999  0.0729  1.6859
   14DOPE  H14X 1792   0.386   4.539   5.089  0.5334 -1.1315  0.9584
   14DOPE  H14Y 1793   0.522   4.583   5.005 -0.5873 -2.2117  1.6192
   14DOPE  C315 1794   0.447   4.734   5.155 -0.5264 -0.3931  0.2974
   14DOPE  H15X 1795   0.537   4.783   5.198  0.5237 -1.9588 -0.0084
   14DOPE  H15Y 1796   0.370   4.716   5.233  0.1094 -0.0199  1.0305
   14DOPE  C316 1797   0.398   4.829   5.052  0.1922 -0.0166  0.2318
   14DOPE  H16X 1798   0.484   4.854   4.986 -0.2859 -1.1339 -0.8653
   14DOPE  H16Y 1799   0.365   4.925   5.099 -1.8239 -0.4950 -0.0915
   14DOPE  C317 1800   0.279   4.786   4.964  0.2374 -0.3408  0.5606
   14DOPE  H17X 1801   0.312   4.696   4.908 -0.4313 -0.7548  0.8283
   14DOPE  H17Y 1802   0.197   4.760   5.035 -1.1465  0.7939 -0.5786
   14DOPE  C318 1803   0.230   4.900   4.882 -0.1117 -0.4207 -0.5116
   14DOPE  H18X 1804   0.142   4.880   4.818  0.2019 -1.2447 -0.6984
   14DOPE  H18Y 1805   0.218   4.988   4.948  1.6942  0.1048 -0.8281
   14DOPE  H18Z 1806   0.308   4.941   4.815 -0.1615  0.0749 -0.2730
   15DOPE     N 1807   2.008   2.031   7.367 -0.2018  0.2434  0.1457
   15DOPE   HN1 1808   1.988   1.935   7.402 -1.4240  0.6736  0.6967
   15DOPE   HN2 1809   2.083   2.029   7.295  1.2966 -0.6346  1.6752
   15DOPE   HN3 1810   2.049   2.082   7.447  0.8068 -1.1199  0.5382
   15DOPE   C12 1811   1.886   2.096   7.308 -0.3887  0.5279  0.2747
   15DOPE  H12A 1812   1.915   2.189   7.254 -2.6102  0.8728 -0.4204
   15DOPE  H12B 1813   1.816   2.110   7.393 -0.4000 -0.7412  0.4908
   15DOPE   C11 1814   1.814   2.018   7.194 -0.6517 -0.3245 -0.6437
   15DOPE  H11A 1815   1.763   1.937   7.250  1.2095  0.3462  2.2324
   15DOPE  H11B 1816   1.888   1.986   7.119  0.6338  0.0591  0.4127
   15DOPE     P 1817   1.647   2.077   7.005  0.2010  0.0146 -0.4244
   15DOPE   O13 1818   1.529   2.164   6.999  0.4803  0.3691  0.1154
   15DOPE   O14 1819   1.624   1.934   6.983 -0.1184 -0.0126 -0.1158
   15DOPE   O11 1820   1.759   2.122   6.902 -0.2535  0.7805 -0.1220
   15DOPE   O12 1821   1.708   2.094   7.148  0.1326 -0.2011  0.0245
   15DOPE    C1 1822   1.838   2.241   6.928  0.0398 -0.1040 -0.2694
   15DOPE    HA 1823   1.902   2.233   7.019 -1.4996  0.1879  0.8928
   15DOPE    HB 1824   1.770   2.327   6.948 -0.3922  0.2254 -2.8045
   15DOPE    C2 1825   1.928   2.273   6.812  0.0990 -0.5638 -0.1486
   15DOPE    HS 1826   1.988   2.184   6.784  0.9819  0.2447 -0.9236
   15DOPE   O21 1827   2.009   2.386   6.850  0.4099  0.3969 -0.3232
   15DOPE   C21 1828   2.113   2.355   6.919 -0.2302 -0.6677 -0.2455
   15DOPE   O22 1829   2.143   2.244   6.952 -0.3628 -0.0586  0.0954
   15DOPE   C22 1830   2.192   2.486   6.951  0.0983 -0.6125 -0.1872
   15DOPE   H2R 1831   2.164   2.508   7.056  0.5105  0.5257 -0.2919
   15DOPE   H2S 1832   2.169   2.569   6.881 -0.4215  0.9755  1.7607
   15DOPE    C3 1833   1.847   2.326   6.685 -0.1832  0.4726 -0.1158
   15DOPE    HX 1834   1.791   2.415   6.721 -0.4885  0.9521 -1.6870
   15DOPE    HY 1835   1.775   2.245   6.660  0.0029  0.0767  0.6031
   15DOPE   O31 1836   1.935   2.356   6.569  0.0088  0.2536  0.6701
   15DOPE   C31 1837   1.981   2.479   6.577 -0.9564  0.8190 -0.1130
   15DOPE   O32 1838   1.956   2.570   6.653  0.0941 -0.0884  0.0777
   15DOPE   C32 1839   2.080   2.506   6.466 -0.1514 -0.0471 -0.4080
   15DOPE   H2X 1840   2.083   2.616   6.450  2.8893 -0.2116 -1.7703
   15DOPE   H2Y 1841   2.181   2.465   6.488  0.7552  0.0911 -3.7141
   15DOPE   C23 1842   2.349   2.467   6.945  0.3030 -0.1228 -0.2768
   15DOPE   H3R 1843   2.365   2.364   6.984  1.9327  0.1608 -0.1323
   15DOPE   H3S 1844   2.396   2.545   7.009  1.7247  1.1407 -2.7180
   15DOPE   C24 1845   2.405   2.472   6.801  0.1876  0.1404 -0.1245
   15DOPE   H4R 1846   2.368   2.560   6.743 -0.3477 -1.4546 -2.3290
   15DOPE   H4S 1847   2.369   2.389   6.738 -0.8941 -0.0090  0.6573
   15DOPE   C25 1848   2.556   2.466   6.796 -0.2780  0.2015  0.0277
   15DOPE   H5R 1849   2.605   2.501   6.702 -1.1761 -0.0746 -0.5572
   15DOPE   H5S 1850   2.597   2.365   6.817 -0.4811 -0.0127 -0.5970
   15DOPE   C26 1851   2.634   2.554   6.900  0.4764  0.0815 -0.4641
   15DOPE   H6R 1852   2.604   2.535   7.005 -0.8652  0.7434 -0.7134
   15DOPE   H6S 1853   2.598   2.659   6.892 -0.6744  0.0830  2.9146
   15DOPE   C27 1854   2.790   2.548   6.895 -0.3747 -0.1637  0.4939
   15DOPE   H7R 1855   2.825   2.589   6.798  1.0371 -0.9690  0.6393
   15DOPE   H7S 1856   2.823   2.442   6.891  1.1464  0.3015  0.1344
   15DOPE   C28 1857   2.853   2.618   7.019 -0.0631  0.4835 -0.0004
   15DOPE   H8R 1858   2.827   2.567   7.114 -0.0786 -0.0400 -0.2878
   15DOPE   H8S 1859   2.807   2.719   7.024 -0.4743  0.2475  1.7525
   15DOPE   C29 1860   3.003   2.642   7.002 -0.9509  0.6832 -0.7473
   15DOPE   H9R 1861   3.046   2.542   6.991 -0.8299  0.7576 -0.9689
   15DOPE  C210 1862   3.070   2.758   7.005  0.4677 -0.1903  0.2016
   15DOPE  H10R 1863   3.179   2.759   7.001  0.6865  0.1598  3.2508
   15DOPE  C211 1864   3.013   2.893   7.027 -0.0821 -0.4741 -0.2716
   15DOPE  H11R 1865   3.085   2.956   7.083 -0.5881 -0.8098  0.7874
   15DOPE  H11S 1866   2.920   2.902   7.088  0.3070 -2.2237  0.6279
   15DOPE  C212 1867   2.978   2.969   6.894 -0.0198 -0.4897  0.4215
   15DOPE  H12R 1868   2.922   2.903   6.825  0.6171  1.6558 -2.3445
   15DOPE  H12S 1869   3.068   2.979   6.829 -0.1939 -0.4494  0.1827
   15DOPE  C213 1870   2.917   3.107   6.914 -0.2439  0.4205 -0.2908
   15DOPE  H13R 1871   2.830   3.095   6.982  0.7800  1.0142  1.1819
   15DOPE  H13S 1872   2.869   3.147   6.822 -0.9577 -2.5027 -1.2799
   15DOPE  C214 1873   3.018   3.208   6.966  0.0700  0.4339  0.2007
   15DOPE  H14R 1874   3.103   3.198   6.894 -1.6302  1.3216 -2.0518
   15DOPE  H14S 1875   3.059   3.171   7.062  0.1078 -1.4455 -0.4951
   15DOPE  C215 1876   2.959   3.349   6.980 -1.1420  0.4772  0.9586
   15DOPE  H15R 1877   2.889   3.356   7.066 -0.0307 -1.5660  2.1158
   15DOPE  H15S 1878   2.919   3.392   6.886  1.0500 -0.8673 -0.6659
   15DOPE  C216 1879   3.077   3.445   6.998 -0.6288 -0.0627  0.4431
   15DOPE  H16R 1880   3.138   3.443   6.905 -0.6641 -0.1832  0.4214
   15DOPE  H16S 1881   3.158   3.406   7.063  0.2054  1.0697  0.1014
   15DOPE  C217 1882   3.032   3.588   7.030  0.2507 -0.1056  0.7463
   15DOPE  H17R 1883   2.948   3.574   7.102  0.3319  0.2255  0.9072
   15DOPE  H17S 1884   2.987   3.626   6.936 -0.5703 -3.7647 -0.5419
   15DOPE  C218 1885   3.136   3.689   7.077  0.6031  0.6188 -0.1748
   15DOPE  H18R 1886   3.189   3.657   7.169  0.8988  1.8741  0.1062
   15DOPE  H18S 1887   3.096   3.790   7.100  0.3184  0.5032 -0.1569
   15DOPE  H18T 1888   3.219   3.701   7.004  0.3415  4.3383 -0.0206
   15DOPE   C33 1889   2.045   2.430   6.335 -0.5191  0.9009  0.1170
   15DOPE   H3X 1890   1.939   2.454   6.308  0.5775  2.3995 -3.6376
   15DOPE   H3Y 1891   2.054   2.321   6.354 -0.8811  0.7889 -0.3190
   15DOPE   C34 1892   2.134   2.471   6.208 -0.4010 -0.2624  0.2202
   15DOPE   H4X 1893   2.099   2.570   6.174 -1.7453 -0.5899  0.5602
   15DOPE   H4Y 1894   2.239   2.480   6.243 -0.8063  1.8859  1.0275
   15DOPE   C35 1895   2.140   2.373   6.090 -0.0847  0.2551  0.7011
   15DOPE   H5X 1896   2.035   2.375   6.052 -0.4094  2.5172  1.5432
   15DOPE   H5Y 1897   2.157   2.270   6.126  0.7491  0.6010  1.3115
   15DOPE   C36 1898   2.226   2.411   5.968 -0.3435 -0.3263 -0.4690
   15DOPE   H6X 1899   2.226   2.518   5.940 -0.9538  0.1522  1.2754
   15DOPE   H6Y 1900   2.197   2.350   5.879 -0.0337 -2.1732  0.6335
   15DOPE   C37 1901   2.373   2.366   5.982  0.1499  0.1474 -0.5308
   15DOPE   H7X 1902   2.424   2.441   6.046 -1.2502 -1.6195  2.9197
   15DOPE   H7Y 1903   2.370   2.268   6.034  1.6549  0.4105  0.1097
   15DOPE   C38 1904   2.445   2.350   5.850 -0.0103 -0.6212  0.2577
   15DOPE   H8X 1905   2.445   2.450   5.802  0.0413 -0.3713  0.7725
   15DOPE   H8Y 1906   2.381   2.301   5.774  0.5072  1.3810 -1.5706
   15DOPE   C39 1907   2.578   2.288   5.857 -0.5701 -0.1876  0.2375
   15DOPE   H9X 1908   2.580   2.179   5.839  0.3406 -0.4165  1.5412
   15DOPE  C310 1909   2.696   2.356   5.876  0.1665  1.3122 -0.1732
   15DOPE  H10X 1910   2.794   2.307   5.860 -1.0283 -0.5800 -2.4137
   15DOPE  C311 1911   2.709   2.503   5.887 -0.1193  0.0994  0.3765
   15DOPE  H11X 1912   2.627   2.543   5.951 -0.8582 -0.1114 -0.4266
   15DOPE  H11Y 1913   2.800   2.525   5.946  0.2034  1.8053 -0.7078
   15DOPE  C312 1914   2.718   2.590   5.763 -0.2318 -0.1586 -0.1062
   15DOPE  H12X 1915   2.746   2.689   5.805  1.8900 -1.6667  2.3682
   15DOPE  H12Y 1916   2.618   2.593   5.714 -0.0920 -2.6324 -0.6961
   15DOPE  C313 1917   2.802   2.526   5.649 -0.3474  0.1362 -0.9729
   15DOPE  H13X 1918   2.761   2.428   5.615 -1.9051  0.0764  0.8956
   15DOPE  H13Y 1919   2.804   2.604   5.570  1.3983  0.6116 -0.5028
   15DOPE  C314 1920   2.956   2.523   5.680  0.5327  0.2298 -0.0611
   15DOPE  H14X 1921   2.985   2.441   5.750  1.2909  1.0755  0.6425
   15DOPE  H14Y 1922   2.969   2.616   5.740 -1.6168  1.5621 -1.5279
   15DOPE  C315 1923   3.043   2.510   5.557  0.0889  0.0459  0.2253
   15DOPE  H15X 1924   3.142   2.479   5.598  1.3140  0.2060 -2.4257
   15DOPE  H15Y 1925   3.061   2.608   5.507  1.8875  0.1273  0.9536
   15DOPE  C316 1926   2.988   2.416   5.446 -0.1108  0.0877  0.3613
   15DOPE  H16X 1927   2.893   2.450   5.400 -0.3662 -2.1401 -0.8724
   15DOPE  H16Y 1928   2.958   2.323   5.498 -0.6536 -0.2225 -0.4838
   15DOPE  C317 1929   3.088   2.365   5.342  0.0281 -0.4206 -0.4352
   15DOPE  H17X 1930   3.128   2.454   5.288  0.1068  0.4321  0.9949
   15DOPE  H17Y 1931   3.163   2.307   5.400  1.0922 -0.1211 -1.4600
   15DOPE  C318 1932   3.021   2.284   5.232 -0.4390  0.4479 -0.0746
   15DOPE  H18X 1933   3.086   2.244   5.152 -0.4637  0.0413  0.1053
   15DOPE  H18Y 1934   2.963   2.206   5.286  0.9622 -0.7378 -0.1959
   15DOPE  H18Z 1935   2.946   2.346   5.179  0.7390  3.1490  1.2074
   16DOPE     N 1936   2.201   5.059   6.940 -0.3451  0.4172 -0.0050
   16DOPE   HN1 1937   2.170   5.023   7.032  0.1273 -0.5459 -0.2056
   16DOPE   HN2 1938   2.260   5.142   6.961  0.8365 -0.2414 -0.6115
   16DOPE   HN3 1939   2.118   5.099   6.891  1.0211  1.4925 -1.5757
   16DOPE   C12 1940   2.273   4.962   6.853  0.5897  0.0544 -0.6642
   16DOPE  H12A 1941   2.364   4.928   6.907 -1.0643 -0.4374  2.0188
   16DOPE  H12B 1942   2.296   5.015   6.759  1.9383  2.9899  1.1677
   16DOPE   C11 1943   2.201   4.829   6.820  0.0456  0.1633  0.3486
   16DOPE  H11A 1944   2.278   4.762   6.776 -2.0823 -3.3156  1.5091
   16DOPE  H11B 1945   2.121   4.850   6.745 -0.0102 -1.3470 -0.0549
   16DOPE     P 1946   1.999   4.726   6.949 -0.3760  0.2585  0.4129
   16DOPE   O13 1947   1.915   4.846   6.948  0.3155  0.0352  0.4440
   16DOPE   O14 1948   1.983   4.630   7.065 -0.1275 -0.9824  0.1997
   16DOPE   O11 1949   1.955   4.657   6.817 -0.3057 -0.4675  0.1837
   16DOPE   O12 1950   2.150   4.763   6.934  0.4003  0.7707 -0.1259
   16DOPE    C1 1951   2.002   4.527   6.782  0.2576 -0.3304 -0.6784
   16DOPE    HA 1952   1.961   4.455   6.856 -1.4347  0.0779 -1.1811
   16DOPE    HB 1953   2.113   4.531   6.784  0.2851 -0.2947  2.0293
   16DOPE    C2 1954   1.964   4.469   6.641  0.1379  0.5848  0.3889
   16DOPE    HS 1955   2.005   4.367   6.626 -1.2222  0.1447 -0.5173
   16DOPE   O21 1956   2.002   4.549   6.534 -0.1050 -0.1810  0.4822
   16DOPE   C21 1957   2.128   4.555   6.502  0.4947  0.1045 -0.3056
   16DOPE   O22 1958   2.222   4.490   6.545 -0.4804 -0.0301 -0.3434
   16DOPE   C22 1959   2.143   4.671   6.403  0.2405  0.0622 -0.1437
   16DOPE   H2R 1960   2.140   4.766   6.460 -0.5740  0.8345 -1.4305
   16DOPE   H2S 1961   2.056   4.652   6.336 -0.0497 -1.9275  0.7062
   16DOPE    C3 1962   1.804   4.452   6.639 -0.0807  0.3720  0.4434
   16DOPE    HX 1963   1.746   4.543   6.662 -1.1642  0.0020 -0.7143
   16DOPE    HY 1964   1.788   4.386   6.727 -1.8346  0.0508 -0.0765
   16DOPE   O31 1965   1.760   4.373   6.525  0.1413  0.5603  0.0759
   16DOPE   C31 1966   1.722   4.444   6.427  0.5598 -0.8177  0.1898
   16DOPE   O32 1967   1.710   4.567   6.426 -0.5607 -0.1851  0.4873
   16DOPE   C32 1968   1.689   4.364   6.296 -0.0586 -0.4919 -0.0282
   16DOPE   H2X 1969   1.580   4.343   6.303 -0.2508  0.4809  0.0327
   16DOPE   H2Y 1970   1.705   4.433   6.211 -1.6732 -1.1339 -0.9003
   16DOPE   C23 1971   2.279   4.679   6.319 -0.1451  0.4841 -0.0358
   16DOPE   H3R 1972   2.371   4.664   6.381 -0.2880 -1.1922 -0.1799
   16DOPE   H3S 1973   2.282   4.784   6.283 -1.4483  0.4373 -0.2982
   16DOPE   C24 1974   2.289   4.577   6.201  0.2856  0.3259  0.2129
   16DOPE   H4R 1975   2.234   4.627   6.119 -1.0652  1.4068  1.7276
   16DOPE   H4S 1976   2.227   4.488   6.223  1.2493 -1.5116 -3.6087
   16DOPE   C25 1977   2.433   4.536   6.178 -0.1071  0.9694 -0.5528
   16DOPE   H5R 1978   2.468   4.486   6.271 -2.0191 -0.3803 -0.4939
   16DOPE   H5S 1979   2.489   4.631   6.163  0.6931  0.6701  0.4177
   16DOPE   C26 1980   2.438   4.446   6.054 -0.0441 -0.3872  0.4601
   16DOPE   H6R 1981   2.387   4.496   5.969  1.9211 -1.4526 -1.4380
   16DOPE   H6S 1982   2.376   4.354   6.064 -2.4956  1.2484  1.2829
   16DOPE   C27 1983   2.583   4.419   6.008 -0.2624  0.3072  0.0214
   16DOPE   H7R 1984   2.633   4.376   6.097 -1.2159 -0.8944  0.0042
   16DOPE   H7S 1985   2.627   4.521   5.999  0.6543  0.0309  1.0929
   16DOPE   C28 1986   2.577   4.349   5.876  0.4792  0.6469 -0.7619
   16DOPE   H8R 1987   2.534   4.412   5.795  1.1155  1.9841 -0.0809
   16DOPE   H8S 1988   2.512   4.259   5.888  2.3280 -0.9256 -1.8574
   16DOPE   C29 1989   2.712   4.299   5.850 -0.6202 -0.1512 -0.7221
   16DOPE   H9R 1990   2.771   4.380   5.804  0.4318 -0.6109 -0.1995
   16DOPE  C210 1991   2.776   4.180   5.875 -0.0479  0.1116  0.2694
   16DOPE  H10R 1992   2.881   4.173   5.845 -0.0842  0.2944  0.0967
   16DOPE  C211 1993   2.719   4.053   5.935  0.0973  0.2977  0.0950
   16DOPE  H11R 1994   2.754   3.965   5.877 -1.6862  1.7407 -3.4503
   16DOPE  H11S 1995   2.608   4.051   5.927  0.1081  1.8429 -0.7034
   16DOPE  C212 1996   2.747   4.028   6.080  0.0044  0.2141 -1.5085
   16DOPE  H12R 1997   2.728   4.117   6.144 -3.6281 -1.5008  0.0640
   16DOPE  H12S 1998   2.857   4.020   6.094 -0.1067 -1.8195 -1.5546
   16DOPE  C213 1999   2.675   3.905   6.144 -0.2390 -0.0802  0.2554
   16DOPE  H13R 2000   2.703   3.814   6.087  2.2465  0.0738  1.0969
   16DOPE  H13S 2001   2.565   3.920   6.141 -0.3026 -0.2412  1.4080
   16DOPE  C214 2002   2.698   3.890   6.292  0.0965  0.4623  0.5755
   16DOPE  H14R 2003   2.804   3.920   6.305 -0.2180  2.1877 -0.5255
   16DOPE  H14S 2004   2.684   3.785   6.324  2.0703 -0.0278 -0.0257
   16DOPE  C215 2005   2.609   3.983   6.368 -0.3690  0.4936 -0.5556
   16DOPE  H15R 2006   2.522   4.028   6.315  0.0119  1.0073 -0.7583
   16DOPE  H15S 2007   2.676   4.066   6.399 -0.4852  0.6807 -0.7999
   16DOPE  C216 2008   2.555   3.926   6.499  0.2379  0.4028 -0.4708
   16DOPE  H16R 2009   2.642   3.879   6.552 -0.8020  0.4015  1.3328
   16DOPE  H16S 2010   2.483   3.844   6.477 -0.5748  0.4158  1.8557
   16DOPE  C217 2011   2.483   4.030   6.594 -0.1565 -0.6283  0.4153
   16DOPE  H17R 2012   2.565   4.072   6.656  0.9486 -0.8900 -0.8335
   16DOPE  H17S 2013   2.415   3.973   6.662 -1.7594  0.2934 -0.3566
   16DOPE  C218 2014   2.404   4.140   6.527 -0.4996  0.0087  0.5073
   16DOPE  H18R 2015   2.316   4.172   6.587 -2.1018 -0.9681 -1.1981
   16DOPE  H18S 2016   2.354   4.109   6.433 -2.3495  1.2764  1.0114
   16DOPE  H18T 2017   2.450   4.235   6.493 -1.4156 -0.1895 -1.4260
   16DOPE   C33 2018   1.765   4.231   6.272 -0.2023 -0.1308  0.3610
   16DOPE   H3X 2019   1.733   4.159   6.350  1.0824 -3.0416 -1.6131
   16DOPE   H3Y 2020   1.872   4.257   6.269 -0.8046  2.6269 -2.1914
   16DOPE   C34 2021   1.739   4.175   6.127  0.3119  0.0166 -0.0432
   16DOPE   H4X 2022   1.778   4.257   6.064 -0.2360 -0.7372 -1.4218
   16DOPE   H4Y 2023   1.803   4.085   6.110 -1.6006 -1.6990  1.2690
   16DOPE   C35 2024   1.591   4.138   6.109 -0.2536 -0.2100  0.0714
   16DOPE   H5X 2025   1.539   4.235   6.097 -1.2774 -0.7741 -0.2210
   16DOPE   H5Y 2026   1.554   4.082   6.198 -0.2992 -3.2976 -1.7304
   16DOPE   C36 2027   1.576   4.047   5.989 -0.1671  0.1042 -0.4511
   16DOPE   H6X 2028   1.642   3.958   5.998 -0.3523 -0.2061 -1.9335
   16DOPE   H6Y 2029   1.601   4.111   5.902 -2.1130  1.3451 -0.1754
   16DOPE   C37 2030   1.437   3.993   5.980  0.2881 -0.1709 -0.3132
   16DOPE   H7X 2031   1.413   3.945   6.077  1.6772 -0.6024 -0.1538
   16DOPE   H7Y 2032   1.356   4.068   5.974 -0.6187 -1.1215 -0.1887
   16DOPE   C38 2033   1.425   3.891   5.864 -0.9693  0.4452  0.0765
   16DOPE   H8X 2034   1.325   3.842   5.862 -0.9860  0.5048 -1.1840
   16DOPE   H8Y 2035   1.502   3.812   5.879 -0.9254  0.7066  1.3187
   16DOPE   C39 2036   1.453   3.951   5.728  0.2228  0.4423 -0.0157
   16DOPE   H9X 2037   1.557   3.935   5.695  0.2235 -0.0559  0.2085
   16DOPE  C310 2038   1.368   3.994   5.641  0.8904  0.1953 -0.3952
   16DOPE  H10X 2039   1.400   4.021   5.539 -0.6784  1.0217 -0.6948
   16DOPE  C311 2040   1.215   3.989   5.663 -0.0330 -0.1760  0.7253
   16DOPE  H11X 2041   1.195   3.923   5.749  2.6714 -2.7750 -0.4642
   16DOPE  H11Y 2042   1.175   4.091   5.680  1.0901  0.4408 -0.1349
   16DOPE  C312 2043   1.123   3.943   5.550 -0.1742  0.1953 -0.1353
   16DOPE  H12X 2044   1.017   3.940   5.584  0.4646 -2.4350  2.0088
   16DOPE  H12Y 2045   1.156   3.846   5.508  1.0695 -0.0405  1.3005
   16DOPE  C313 2046   1.131   4.031   5.426  0.2594 -0.0227  0.0219
   16DOPE  H13X 2047   1.116   4.139   5.446  0.2800  0.5021 -2.4445
   16DOPE  H13Y 2048   1.232   4.022   5.380  0.4982 -1.0110  0.6952
   16DOPE  C314 2049   1.026   3.986   5.325 -0.1517 -0.3343 -0.1226
   16DOPE  H14X 2050   0.921   3.998   5.360 -0.3983 -2.2739 -0.0695
   16DOPE  H14Y 2051   1.041   3.882   5.288  2.5180  0.0252 -0.2329
   16DOPE  C315 2052   1.064   4.058   5.195  0.1092  0.3874  0.3738
   16DOPE  H15X 2053   1.168   4.035   5.164  0.0122 -2.2510  1.6859
   16DOPE  H15Y 2054   1.047   4.168   5.196 -0.0363  0.4149 -1.4027
   16DOPE  C316 2055   0.975   4.011   5.063 -0.1084 -0.4950 -0.1730
   16DOPE  H16X 2056   0.991   3.901   5.061  2.1595 -0.2016 -0.3357
   16DOPE  H16Y 2057   1.014   4.071   4.979  0.1602 -0.7653 -0.2447
   16DOPE  C317 2058   0.828   4.043   5.088  0.4492  0.3151  0.0016
   16DOPE  H17X 2059   0.800   3.971   5.167  0.2015  0.4263  0.0153
   16DOPE  H17Y 2060   0.807   4.144   5.129  0.1287  0.4213 -0.4163
   16DOPE  C318 2061   0.736   4.021   4.962 -0.6763 -0.1106 -0.1830
   16DOPE  H18X 2062   0.729   3.911   4.949 -1.3567 -0.3886  2.1327
   16DOPE  H18Y 2063   0.632   4.051   4.985 -0.1582  0.3697  1.7045
   16DOPE  H18Z 2064   0.773   4.075   4.872  1.6845  1.8572  1.8265
   17DOPE     N 2065   3.787   6.757   7.750  0.4812  0.2466 -0.5266
   17DOPE   HN1 2066   3.829   6.840   7.796  2.0097 -1.7147  1.8844
   17DOPE   HN2 2067   3.686   6.774   7.733  0.3964  1.2556  0.8396
   17DOPE   HN3 2068   3.800   6.683   7.823 -1.4419  1.2417  0.8886
   17DOPE   C12 2069   3.857   6.714   7.625 -0.2589  0.0085 -0.2815
   17DOPE  H12A 2070   3.814   6.624   7.575  1.5797 -0.6889 -0.6701
   17DOPE  H12B 2071   3.965   6.700   7.647 -0.1404 -0.1962 -0.9825
   17DOPE   C11 2072   3.856   6.834   7.523  0.6298  0.1739  0.6811
   17DOPE  H11A 2073   3.914   6.812   7.431 -0.0889 -1.1291  0.5238
   17DOPE  H11B 2074   3.904   6.926   7.563  0.1368  1.2991 -1.1605
   17DOPE     P 2075   3.623   6.819   7.394 -0.0260 -0.0412  0.0857
   17DOPE   O13 2076   3.504   6.905   7.395  0.3812 -0.0078 -0.1789
   17DOPE   O14 2077   3.602   6.677   7.423  0.1448  0.2471 -0.1034
   17DOPE   O11 2078   3.712   6.830   7.264 -0.1815 -0.3902 -0.2101
   17DOPE   O12 2079   3.720   6.883   7.506 -0.0788 -0.1550 -0.0339
   17DOPE    C1 2080   3.755   6.963   7.223  0.4673  0.0138 -0.6531
   17DOPE    HA 2081   3.860   6.983   7.255  0.7017 -1.8833 -0.0866
   17DOPE    HB 2082   3.699   7.048   7.268 -0.1594 -0.6421 -0.1640
   17DOPE    C2 2083   3.732   6.961   7.076 -0.6888 -0.3106  0.5655
   17DOPE    HS 2084   3.767   7.061   7.044 -1.9039  0.2554  0.9372
   17DOPE   O21 2085   3.589   6.946   7.042 -0.3057 -0.8453 -0.0344
   17DOPE   C21 2086   3.514   7.054   7.063 -0.4774 -0.2227 -0.5847
   17DOPE   O22 2087   3.559   7.166   7.080 -0.0499  0.5329  0.3465
   17DOPE   C22 2088   3.367   7.010   7.053 -0.5796  0.1032  0.6615
   17DOPE   H2R 2089   3.331   6.967   7.149 -3.5652 -0.2021 -0.4891
   17DOPE   H2S 2090   3.362   6.933   6.974 -0.9199  0.5606  0.2309
   17DOPE    C3 2091   3.809   6.848   7.005 -0.0667  0.1043 -0.1140
   17DOPE    HX 2092   3.764   6.753   7.041  0.4847 -0.1595 -0.1032
   17DOPE    HY 2093   3.912   6.855   7.046 -0.5923  2.0130  1.0389
   17DOPE   O31 2094   3.798   6.864   6.861 -0.8832 -0.1727 -0.0429
   17DOPE   C31 2095   3.871   6.965   6.811  0.2836 -0.2476  0.3777
   17DOPE   O32 2096   3.951   7.034   6.872  0.1114 -0.0226 -0.4912
   17DOPE   C32 2097   3.832   6.972   6.666  0.1228 -0.9595 -0.0469
   17DOPE   H2X 2098   3.804   6.870   6.633  0.7126 -1.0738 -0.2139
   17DOPE   H2Y 2099   3.750   7.046   6.665  1.5125  0.6714  1.1337
   17DOPE   C23 2100   3.263   7.121   7.016 -0.7702 -0.2389  0.4802
   17DOPE   H3R 2101   3.291   7.179   6.926  1.6827 -0.6857  0.8897
   17DOPE   H3S 2102   3.262   7.184   7.108 -0.6835 -1.6969  1.5134
   17DOPE   C24 2103   3.126   7.056   6.993  0.3709  0.1857 -0.2380
   17DOPE   H4R 2104   3.045   7.131   6.980 -0.1838 -0.3794 -0.1534
   17DOPE   H4S 2105   3.110   6.986   7.078  4.1969 -0.1569  0.3665
   17DOPE   C25 2106   3.115   6.964   6.864 -0.8918  0.4625 -0.3273
   17DOPE   H5R 2107   3.017   6.915   6.879 -0.9113  0.9976  1.4975
   17DOPE   H5S 2108   3.191   6.885   6.847 -1.5469 -0.4246  0.7298
   17DOPE   C26 2109   3.104   7.054   6.741 -0.5946  0.0436 -0.1630
   17DOPE   H6R 2110   3.201   7.104   6.716 -0.1991 -0.4629  0.3286
   17DOPE   H6S 2111   3.033   7.135   6.770 -0.5837 -0.3231  0.9483
   17DOPE   C27 2112   3.043   6.989   6.618  0.0603 -0.5450  0.5052
   17DOPE   H7R 2113   2.937   6.965   6.641  0.2962 -2.7450 -0.5173
   17DOPE   H7S 2114   3.093   6.892   6.600 -0.1123 -0.6784  0.7382
   17DOPE   C28 2115   3.054   7.086   6.496 -0.4472  0.3484 -0.0854
   17DOPE   H8R 2116   3.156   7.075   6.454  0.6480 -1.6806  2.7978
   17DOPE   H8S 2117   3.033   7.185   6.542  1.0473  0.4368  0.4700
   17DOPE   C29 2118   2.958   7.070   6.376 -0.6581 -0.6286 -0.1450
   17DOPE   H9R 2119   2.917   6.968   6.376  1.1222 -1.3868  0.5586
   17DOPE  C210 2120   2.923   7.162   6.282  0.6182  0.1492  0.1412
   17DOPE  H10R 2121   2.847   7.132   6.209  1.6827 -1.7467 -0.2807
   17DOPE  C211 2122   2.963   7.307   6.279  0.0835  0.1032 -0.0680
   17DOPE  H11R 2123   3.000   7.339   6.379 -1.5412 -1.1294  0.9847
   17DOPE  H11S 2124   2.878   7.376   6.260  0.4443  0.5566 -0.0736
   17DOPE  C212 2125   3.074   7.339   6.180 -0.6463 -0.1771  0.8646
   17DOPE  H12R 2126   3.153   7.267   6.211 -0.2955  0.2210  0.9104
   17DOPE  H12S 2127   3.114   7.442   6.193 -2.0266  0.9327 -2.5628
   17DOPE  C213 2128   3.045   7.313   6.031 -0.0337  0.5137 -0.6024
   17DOPE  H13R 2129   3.007   7.210   6.015  0.1767  0.0591  1.6097
   17DOPE  H13S 2130   3.150   7.304   5.994  1.1781 -1.1548  2.8602
   17DOPE  C214 2131   2.964   7.417   5.952 -0.5883 -0.8463  0.1960
   17DOPE  H14R 2132   2.998   7.519   5.977 -0.6550 -0.8999  0.5104
   17DOPE  H14S 2133   2.856   7.416   5.980 -1.4531 -1.3275 -2.7976
   17DOPE  C215 2134   2.970   7.385   5.803  0.4492 -0.1629  0.0144
   17DOPE  H15R 2135   2.968   7.274   5.806  0.1388 -0.1344  2.3044
   17DOPE  H15S 2136   3.076   7.407   5.778  0.1865  0.4105 -0.6350
   17DOPE  C216 2137   2.880   7.450   5.715 -0.2081 -0.2968 -0.0019
   17DOPE  H16R 2138   2.915   7.555   5.714  1.4738 -0.7186  2.9525
   17DOPE  H16S 2139   2.786   7.456   5.773 -0.4333 -0.1127 -0.3827
   17DOPE  C217 2140   2.854   7.385   5.575 -0.5503 -1.4442 -0.8383
   17DOPE  H17R 2141   2.838   7.277   5.596  0.5969 -1.0969  2.4983
   17DOPE  H17S 2142   2.942   7.394   5.509  0.7420  1.9756  1.0796
   17DOPE  C218 2143   2.737   7.453   5.507 -0.0436  0.1085 -0.0446
   17DOPE  H18R 2144   2.636   7.425   5.542 -0.6447  1.6886 -0.3992
   17DOPE  H18S 2145   2.733   7.412   5.404 -2.2668  1.8185 -0.7259
   17DOPE  H18T 2146   2.757   7.562   5.491  0.9906 -0.3103 -1.9421
   17DOPE   C33 2147   3.940   7.029   6.577 -0.1006  0.3536 -0.0466
   17DOPE   H3X 2148   4.035   6.971   6.579  0.6493  1.4478 -1.7828
   17DOPE   H3Y 2149   3.977   7.129   6.606  0.2894  0.7349 -1.7484
   17DOPE   C34 2150   3.887   7.030   6.433 -0.8395  0.0766 -1.3478
   17DOPE   H4X 2151   3.778   7.053   6.428 -0.7237  1.0503 -0.1069
   17DOPE   H4Y 2152   3.931   7.120   6.385  2.5950 -0.3006  0.7563
   17DOPE   C35 2153   3.919   6.902   6.358  0.4490  0.5612  0.1893
   17DOPE   H5X 2154   3.874   6.814   6.408  2.1518 -1.0306 -0.9131
   17DOPE   H5Y 2155   4.030   6.892   6.349  0.6399  2.4228  0.2311
   17DOPE   C36 2156   3.872   6.895   6.209 -0.0402 -0.3389 -0.1130
   17DOPE   H6X 2157   3.843   6.790   6.187 -2.8827 -0.0987  1.9474
   17DOPE   H6Y 2158   3.963   6.908   6.148  0.6368 -1.6861  0.5659
   17DOPE   C37 2159   3.761   6.992   6.165 -0.0567  0.1764 -0.4640
   17DOPE   H7X 2160   3.674   6.972   6.231  1.8848 -2.8994  1.4196
   17DOPE   H7Y 2161   3.794   7.095   6.191 -1.9160  0.3036  1.6086
   17DOPE   C38 2162   3.718   6.995   6.020 -0.8004 -0.0902  0.3449
   17DOPE   H8X 2163   3.807   7.037   5.967  1.2814 -4.7095 -0.3390
   17DOPE   H8Y 2164   3.637   7.068   5.999 -0.5721  0.6992  2.1131
   17DOPE   C39 2165   3.692   6.860   5.954 -0.2774  0.0475  0.0904
   17DOPE   H9X 2166   3.735   6.770   6.000 -0.1134  1.5745  3.2137
   17DOPE  C310 2167   3.640   6.838   5.829  0.7633 -0.2553  0.2803
   17DOPE  H10X 2168   3.610   6.736   5.801 -0.1411 -0.0923  0.5956
   17DOPE  C311 2169   3.590   6.942   5.737  0.1688  0.2753 -0.3727
   17DOPE  H11X 2170   3.599   7.043   5.781  1.4915  0.4189 -0.9061
   17DOPE  H11Y 2171   3.655   6.946   5.646  3.2321 -0.8104  1.5953
   17DOPE  C312 2172   3.442   6.918   5.692 -0.2533  0.5915  0.7654
   17DOPE  H12X 2173   3.395   7.011   5.652 -0.9087  1.3316  3.1087
   17DOPE  H12Y 2174   3.371   6.892   5.773 -1.6189  3.1563  0.4905
   17DOPE  C313 2175   3.434   6.800   5.588 -0.1191  0.0544  0.0602
   17DOPE  H13X 2176   3.527   6.813   5.529  0.7286 -0.0221  1.3353
   17DOPE  H13Y 2177   3.433   6.704   5.645  2.0279 -1.1356 -1.7463
   17DOPE  C314 2178   3.310   6.804   5.490  0.2611 -0.0343 -0.0052
   17DOPE  H14X 2179   3.222   6.832   5.552  0.0526 -0.0009 -0.3152
   17DOPE  H14Y 2180   3.298   6.703   5.446 -2.1444  0.2701 -0.2172
   17DOPE  C315 2181   3.329   6.899   5.372  0.1744  0.0762  0.0167
   17DOPE  H15X 2182   3.428   6.871   5.330  0.5986  0.4762  0.7481
   17DOPE  H15Y 2183   3.339   7.008   5.391  1.1990  0.2227 -1.2051
   17DOPE  C316 2184   3.225   6.872   5.263 -0.0391  0.1388 -0.3571
   17DOPE  H16X 2185   3.212   6.763   5.250 -0.5905 -0.2682  2.7575
   17DOPE  H16Y 2186   3.276   6.918   5.176 -1.2831 -0.5413 -1.4707
   17DOPE  C317 2187   3.088   6.933   5.288 -0.2866  0.5014  0.2027
   17DOPE  H17X 2188   3.026   6.910   5.199  1.1276  0.5221 -0.8209
   17DOPE  H17Y 2189   3.038   6.877   5.370  2.7438 -1.5805  0.7803
   17DOPE  C318 2190   3.093   7.082   5.314 -0.5226  0.1997 -0.1500
   17DOPE  H18X 2191   3.000   7.143   5.310  0.0902  1.4434  2.3903
   17DOPE  H18Y 2192   3.138   7.090   5.415  0.4983 -0.5578 -0.5301
   17DOPE  H18Z 2193   3.169   7.128   5.246  0.0688  0.4269  0.6480
   18DOPE     N 2194   0.472   3.785   6.986 -0.1367  0.1710  0.5414
   18DOPE   HN1 2195   0.401   3.848   6.945 -1.0028 -2.3948 -2.2237
   18DOPE   HN2 2196   0.524   3.758   6.900 -2.3880  1.6023 -1.3731
   18DOPE   HN3 2197   0.422   3.699   7.017 -0.0963 -0.0946 -0.1149
   18DOPE   C12 2198   0.560   3.855   7.092 -0.2227  0.1227 -0.1044
   18DOPE  H12A 2199   0.612   3.772   7.144 -2.4645  0.4787  3.0249
   18DOPE  H12B 2200   0.503   3.920   7.162  0.2123 -0.7746  1.1257
   18DOPE   C11 2201   0.680   3.937   7.021  0.2215 -0.2135 -0.0113
   18DOPE  H11A 2202   0.741   3.997   7.092  0.7756  0.4938 -1.0787
   18DOPE  H11B 2203   0.625   3.996   6.946  0.2892 -2.2071 -1.7088
   18DOPE     P 2204   0.907   3.816   6.974 -0.2494 -0.0077 -0.2928
   18DOPE   O13 2205   0.944   3.696   6.901 -0.3728  0.4366 -0.1439
   18DOPE   O14 2206   0.940   3.810   7.118  0.4943 -0.0722  0.3765
   18DOPE   O11 2207   0.983   3.933   6.908 -0.6018 -0.0070 -0.3271
   18DOPE   O12 2208   0.759   3.844   6.946  0.1869  0.8559 -0.1250
   18DOPE    C1 2209   0.933   4.024   6.806  0.2433  0.3234 -0.9280
   18DOPE    HA 2210   1.020   4.089   6.783 -0.1043  2.3376  2.6802
   18DOPE    HB 2211   0.850   4.086   6.848 -0.9219 -0.4772 -1.9802
   18DOPE    C2 2212   0.898   3.953   6.676 -0.8246  0.5333 -0.3674
   18DOPE    HS 2213   0.823   3.874   6.700  0.6157 -0.8549 -0.2813
   18DOPE   O21 2214   1.019   3.900   6.618  0.8108  0.6644 -0.2584
   18DOPE   C21 2215   0.995   3.799   6.543  0.3243 -0.2163  0.1923
   18DOPE   O22 2216   0.883   3.761   6.509  0.3024  0.0450 -0.0517
   18DOPE   C22 2217   1.126   3.724   6.504  0.2993 -0.3093  0.3721
   18DOPE   H2R 2218   1.125   3.630   6.563 -1.2780 -0.2682  0.4549
   18DOPE   H2S 2219   1.214   3.783   6.533 -0.1391  0.6485 -0.1919
   18DOPE    C3 2220   0.837   4.058   6.569  0.2535 -0.2743  0.1414
   18DOPE    HX 2221   0.922   4.121   6.534  0.9724 -0.5920  1.2492
   18DOPE    HY 2222   0.769   4.127   6.623  0.7979  1.0551 -0.8123
   18DOPE   O31 2223   0.769   3.997   6.463 -0.1931  0.1751  0.5831
   18DOPE   C31 2224   0.650   3.948   6.490  0.4336  0.2489  0.2961
   18DOPE   O32 2225   0.593   3.961   6.595  0.0103 -0.1927 -0.1873
   18DOPE   C32 2226   0.596   3.871   6.370 -0.1859  0.8528  0.2730
   18DOPE   H2X 2227   0.633   3.920   6.277  1.1832  0.7787  0.7422
   18DOPE   H2Y 2228   0.648   3.773   6.374  0.9956  1.4776  3.5781
   18DOPE   C23 2229   1.118   3.690   6.344  0.1885 -0.8254 -0.3613
   18DOPE   H3R 2230   1.072   3.781   6.300  1.3187 -0.2088 -0.2847
   18DOPE   H3S 2231   1.047   3.604   6.347 -1.6695  0.6429 -0.2677
   18DOPE   C24 2232   1.250   3.657   6.286 -0.8210  0.6556 -0.1219
   18DOPE   H4R 2233   1.291   3.574   6.348  2.0346 -0.2811 -2.9997
   18DOPE   H4S 2234   1.319   3.743   6.300  0.4241  0.0675 -2.2059
   18DOPE   C25 2235   1.235   3.605   6.145  0.2986 -0.2050  0.0905
   18DOPE   H5R 2236   1.215   3.694   6.082 -3.7419 -0.9707  0.0133
   18DOPE   H5S 2237   1.157   3.527   6.134  0.3661 -0.3021  0.2977
   18DOPE   C26 2238   1.363   3.543   6.095 -0.4387 -0.6616  0.6389
   18DOPE   H6R 2239   1.390   3.468   6.172 -1.8110 -1.9348 -0.0709
   18DOPE   H6S 2240   1.444   3.619   6.089 -0.3788 -0.8030 -0.4838
   18DOPE   C27 2241   1.360   3.494   5.943  0.5024  0.2509 -0.4067
   18DOPE   H7R 2242   1.315   3.572   5.878 -0.8033 -0.1343  0.0041
   18DOPE   H7S 2243   1.300   3.400   5.939 -1.9412  1.7056  0.2655
   18DOPE   C28 2244   1.502   3.464   5.903  0.0002  0.0994  0.5803
   18DOPE   H8R 2245   1.545   3.391   5.975  1.6481  0.7690  0.3269
   18DOPE   H8S 2246   1.560   3.559   5.910  1.6318 -0.6448 -1.8061
   18DOPE   C29 2247   1.511   3.402   5.768 -0.1111 -0.0370 -0.2022
   18DOPE   H9R 2248   1.525   3.293   5.765 -0.0303 -0.0172 -0.7136
   18DOPE  C210 2249   1.503   3.457   5.643  0.1111  0.2475  0.2251
   18DOPE  H10R 2250   1.494   3.385   5.561  2.4097 -0.3113  0.3786
   18DOPE  C211 2251   1.489   3.601   5.611  0.1667  0.5557 -0.1452
   18DOPE  H11R 2252   1.552   3.659   5.682  0.1908 -0.9471  1.1186
   18DOPE  H11S 2253   1.386   3.641   5.608 -0.3643 -0.8170 -2.2683
   18DOPE  C212 2254   1.549   3.635   5.475 -0.5848 -0.7539  0.0876
   18DOPE  H12R 2255   1.654   3.597   5.468 -0.5217 -0.6260  0.3421
   18DOPE  H12S 2256   1.547   3.745   5.467  0.7984 -0.6870  0.4240
   18DOPE  C213 2257   1.464   3.586   5.353 -0.0567  0.9161  0.1352
   18DOPE  H13R 2258   1.361   3.629   5.358 -0.4320 -0.0050  0.6592
   18DOPE  H13S 2259   1.438   3.480   5.377  2.8447 -0.2610 -1.4672
   18DOPE  C214 2260   1.534   3.592   5.210 -0.4569  0.6077 -0.7054
   18DOPE  H14R 2261   1.469   3.532   5.143 -1.1833 -0.7525  1.1304
   18DOPE  H14S 2262   1.631   3.537   5.217 -0.2869  1.0815  1.7595
   18DOPE  C215 2263   1.571   3.732   5.161  0.7865 -0.7601 -0.0861
   18DOPE  H15R 2264   1.643   3.783   5.228 -0.0850 -0.0461  0.3354
   18DOPE  H15S 2265   1.477   3.791   5.155  1.9719  1.6598  2.5130
   18DOPE  C216 2266   1.626   3.718   5.015  0.4451  0.7603 -0.4380
   18DOPE  H16R 2267   1.540   3.737   4.947  0.6070  3.0309 -0.0863
   18DOPE  H16S 2268   1.660   3.613   5.002 -2.1823 -0.1219 -0.8071
   18DOPE  C217 2269   1.730   3.823   4.974  0.7853  0.1051 -0.2753
   18DOPE  H17R 2270   1.708   3.922   5.018  3.1654  0.3723  0.4528
   18DOPE  H17S 2271   1.718   3.836   4.864 -2.6528  2.9388  0.2736
   18DOPE  C218 2272   1.868   3.789   5.015 -0.4159 -0.1699  0.6560
   18DOPE  H18R 2273   1.939   3.861   4.968  1.4646 -2.7467 -0.6904
   18DOPE  H18S 2274   1.883   3.687   4.974 -0.8791 -0.9409  2.3314
   18DOPE  H18T 2275   1.886   3.792   5.125 -0.3191  0.5301  0.6258
   18DOPE   C33 2276   0.441   3.857   6.371  0.0348  0.4069  0.5082
   18DOPE   H3X 2277   0.407   3.839   6.475 -1.6395 -0.9624 -0.2463
   18DOPE   H3Y 2278   0.413   3.774   6.304  0.0509  2.6675 -2.5195
   18DOPE   C34 2279   0.390   3.999   6.319 -0.4553 -0.1705 -0.0924
   18DOPE   H4X 2280   0.408   4.078   6.395 -0.9694  0.1468 -0.2957
   18DOPE   H4Y 2281   0.438   4.033   6.225 -0.7393  1.8532  0.4561
   18DOPE   C35 2282   0.237   4.003   6.302 -0.2356 -0.4337  0.6220
   18DOPE   H5X 2283   0.211   4.108   6.280  4.4603  0.8882  0.3168
   18DOPE   H5Y 2284   0.191   3.969   6.397 -0.4321 -0.7065  0.4326
   18DOPE   C36 2285   0.188   3.920   6.173 -0.1317  0.5356  0.3152
   18DOPE   H6X 2286   0.080   3.946   6.167  0.0607  1.4895  0.8709
   18DOPE   H6Y 2287   0.205   3.810   6.173  1.8537  0.8003  0.8445
   18DOPE   C37 2288   0.266   3.956   6.044  0.3612  0.2743  0.0309
   18DOPE   H7X 2289   0.275   4.067   6.039  1.5955  0.2400  1.1288
   18DOPE   H7Y 2290   0.367   3.912   6.038 -0.0705 -0.9337  1.0200
   18DOPE   C38 2291   0.194   3.906   5.914  0.0461 -0.1408 -0.6423
   18DOPE   H8X 2292   0.252   3.951   5.829 -0.6561  0.8441 -0.6162
   18DOPE   H8Y 2293   0.095   3.952   5.895  0.4220  0.7324 -0.5769
   18DOPE   C39 2294   0.155   3.763   5.894  0.6856  0.7020  0.3870
   18DOPE   H9X 2295   0.056   3.737   5.935  0.2925  0.5071 -0.6625
   18DOPE  C310 2296   0.232   3.666   5.841 -0.1795  0.0541 -0.5076
   18DOPE  H10X 2297   0.195   3.562   5.836 -1.0115  0.3855 -1.5032
   18DOPE  C311 2298   0.373   3.692   5.792 -0.4150 -1.2108  0.3158
   18DOPE  H11X 2299   0.392   3.682   5.683  1.8233 -0.9505  0.6294
   18DOPE  H11Y 2300   0.418   3.788   5.824 -0.6331 -1.2686  0.8145
   18DOPE  C312 2301   0.461   3.582   5.871 -0.1177 -0.1357  0.2350
   18DOPE  H12X 2302   0.569   3.594   5.849 -0.3367  0.3496 -0.6258
   18DOPE  H12Y 2303   0.439   3.476   5.849  2.8545 -0.4683 -1.6808
   18DOPE  C313 2304   0.460   3.597   6.024  0.3098  0.3044  0.9515
   18DOPE  H13X 2305   0.493   3.702   6.041  0.2969  0.4548  0.1092
   18DOPE  H13Y 2306   0.355   3.581   6.054 -0.6442  1.3036 -1.5974
   18DOPE  C314 2307   0.563   3.498   6.077  0.5839 -0.7619 -0.4084
   18DOPE  H14X 2308   0.657   3.518   6.022  0.7220  0.4785  0.2578
   18DOPE  H14Y 2309   0.523   3.395   6.067  0.3940 -0.8878  1.3458
   18DOPE  C315 2310   0.599   3.520   6.220 -0.3496  0.2982 -0.1014
   18DOPE  H15X 2311   0.517   3.476   6.280 -0.4610 -0.1645 -0.5802
   18DOPE  H15Y 2312   0.618   3.627   6.242  1.6702  0.7030 -3.1018
   18DOPE  C316 2313   0.737   3.462   6.240 -0.2878 -0.5487 -0.1599
   18DOPE  H16X 2314   0.813   3.530   6.197  0.7775 -1.4571  0.2111
   18DOPE  H16Y 2315   0.753   3.367   6.185  2.0765  0.4715 -1.3562
   18DOPE  C317 2316   0.768   3.439   6.388  0.1418 -0.4248 -0.6617
   18DOPE  H17X 2317   0.776   3.545   6.419 -1.5309 -0.2641 -0.6893
   18DOPE  H17Y 2318   0.688   3.398   6.454  0.5070  0.5942  0.4471
   18DOPE  C318 2319   0.911   3.370   6.401  0.0073 -0.5128 -0.8818
   18DOPE  H18X 2320   0.979   3.413   6.324  0.4875 -1.3787 -0.9630
   18DOPE  H18Y 2321   0.954   3.387   6.502 -0.5363  0.9956 -0.8887
   18DOPE  H18Z 2322   0.906   3.260   6.382 -0.6879 -0.5915 -0.2660
   19DOPE     N 2323   1.308   5.162   7.213  0.0457 -0.3149  0.0664
   19DOPE   HN1 2324   1.399   5.140   7.169  0.8515  0.9189  1.0140
   19DOPE   HN2 2325   1.263   5.235   7.154 -0.5400 -1.3013 -0.7205
   19DOPE   HN3 2326   1.328   5.186   7.313 -0.0659 -1.2908  0.3272
   19DOPE   C12 2327   1.237   5.034   7.206 -1.0566 -0.3046 -0.2478
   19DOPE  H12A 2328   1.140   5.043   7.259 -0.7382  1.7199  0.0662
   19DOPE  H12B 2329   1.297   4.955   7.255  2.7247  0.7375 -2.7979
   19DOPE   C11 2330   1.206   4.995   7.059  0.5601 -0.1091  0.0392
   19DOPE  H11A 2331   1.139   5.068   7.008  0.3026  1.1610  2.0810
   19DOPE  H11B 2332   1.146   4.902   7.067  2.0141 -1.0961 -0.2447
   19DOPE     P 2333   1.361   4.852   6.898 -0.2689  0.1426 -0.2879
   19DOPE   O13 2334   1.393   4.737   6.984  0.5096 -0.4586 -0.1355
   19DOPE   O14 2335   1.465   4.896   6.805 -0.1670  1.0400  0.0515
   19DOPE   O11 2336   1.234   4.831   6.810  0.2216 -0.3442  0.2499
   19DOPE   O12 2337   1.329   4.978   6.988 -0.5818 -0.0626  0.0631
   19DOPE    C1 2338   1.194   4.934   6.716 -0.1188  0.4292  0.0177
   19DOPE    HA 2339   1.275   5.004   6.684 -0.2522  0.0978 -1.1115
   19DOPE    HB 2340   1.107   4.992   6.753 -0.3290  0.3086 -0.2780
   19DOPE    C2 2341   1.142   4.875   6.583 -0.0891 -0.2992 -0.1025
   19DOPE    HS 2342   1.043   4.830   6.603 -0.5589 -0.2831 -2.2314
   19DOPE   O21 2343   1.238   4.782   6.534  0.2323  0.1587 -0.3041
   19DOPE   C21 2344   1.233   4.669   6.589 -0.5710  0.1792  0.3143
   19DOPE   O22 2345   1.139   4.625   6.653  0.0777 -0.0832 -0.6755
   19DOPE   C22 2346   1.377   4.609   6.583 -0.1384  0.2056  0.6824
   19DOPE   H2R 2347   1.446   4.661   6.653 -0.5158  0.8318  0.5916
   19DOPE   H2S 2348   1.408   4.623   6.477  0.0169 -0.2464  0.6621
   19DOPE    C3 2349   1.114   4.976   6.471 -0.5847 -0.1316  0.3109
   19DOPE    HX 2350   1.211   5.025   6.446 -0.4033 -1.3311 -1.4993
   19DOPE    HY 2351   1.038   5.050   6.506  0.3430  0.1911  1.7413
   19DOPE   O31 2352   1.067   4.917   6.347  0.6043  0.0026 -0.4980
   19DOPE   C31 2353   0.955   4.845   6.344 -0.8947  0.2341  1.0011
   19DOPE   O32 2354   0.885   4.818   6.438 -0.1797 -0.5032 -0.5357
   19DOPE   C32 2355   0.922   4.829   6.197  0.6375  0.1377  0.3756
   19DOPE   H2X 2356   0.842   4.898   6.162 -0.5048 -0.9555  0.7456
   19DOPE   H2Y 2357   1.015   4.825   6.136  0.5451  0.9624  0.1649
   19DOPE   C23 2358   1.391   4.456   6.605 -0.0289  0.6628  0.3873
   19DOPE   H3R 2359   1.351   4.428   6.705 -1.6739  0.3502 -0.3213
   19DOPE   H3S 2360   1.501   4.442   6.600 -0.1301  0.3813 -2.2766
   19DOPE   C24 2361   1.322   4.378   6.489  0.0451  0.0351  0.4785
   19DOPE   H4R 2362   1.366   4.403   6.390 -0.9196 -2.8434 -0.8025
   19DOPE   H4S 2363   1.212   4.394   6.489  0.0882  0.3401  0.2326
   19DOPE   C25 2364   1.356   4.222   6.508  0.2725 -0.0394 -0.3186
   19DOPE   H5R 2365   1.348   4.208   6.618  1.4139  0.3650 -0.1790
   19DOPE   H5S 2366   1.456   4.192   6.469  0.7296  0.9529  0.0580
   19DOPE   C26 2367   1.236   4.132   6.459 -0.3356 -0.3417 -0.3199
   19DOPE   H6R 2368   1.144   4.180   6.498  1.1096  0.6991  2.0300
   19DOPE   H6S 2369   1.247   4.031   6.504 -0.6875 -0.7113 -1.0568
   19DOPE   C27 2370   1.234   4.108   6.308 -0.0617  0.6774  0.0572
   19DOPE   H7R 2371   1.282   4.008   6.305 -0.1871  0.6288 -0.5447
   19DOPE   H7S 2372   1.303   4.179   6.258 -0.2744  0.1713 -0.9723
   19DOPE   C28 2373   1.093   4.112   6.236 -0.6514  0.6035  0.6825
   19DOPE   H8R 2374   1.062   4.218   6.243  1.6883  1.4809 -0.9728
   19DOPE   H8S 2375   1.020   4.052   6.294 -0.3845  0.2632  0.6706
   19DOPE   C29 2376   1.099   4.071   6.094 -0.3598 -0.3549 -0.4937
   19DOPE   H9R 2377   1.139   4.148   6.028 -1.3903 -2.0774 -3.3062
   19DOPE  C210 2378   1.036   3.968   6.029 -0.0686 -0.5964 -0.8569
   19DOPE  H10R 2379   1.049   3.954   5.921 -2.8151  0.0308 -1.3226
   19DOPE  C211 2380   0.948   3.868   6.100  0.6717 -0.1971  0.8363
   19DOPE  H11R 2381   0.913   3.898   6.200  0.6571  0.7951  0.5447
   19DOPE  H11S 2382   0.986   3.763   6.093 -2.9953 -1.6053 -0.7488
   19DOPE  C212 2383   0.803   3.857   6.022  0.0067 -0.4235 -0.4488
   19DOPE  H12R 2384   0.739   3.946   6.042 -0.3500 -0.6710 -0.4775
   19DOPE  H12S 2385   0.748   3.777   6.077 -0.7215  0.4205  0.0775
   19DOPE  C213 2386   0.804   3.826   5.876 -0.4933  0.0662 -0.0946
   19DOPE  H13R 2387   0.845   3.915   5.823  2.5358 -1.2589 -0.2271
   19DOPE  H13S 2388   0.701   3.808   5.839 -1.1574  1.7367  0.8563
   19DOPE  C214 2389   0.899   3.710   5.837  0.1612 -0.1108 -0.8038
   19DOPE  H14R 2390   0.866   3.626   5.901  0.2433 -1.0208 -1.9140
   19DOPE  H14S 2391   1.006   3.734   5.859  0.5605 -0.5419 -2.1556
   19DOPE  C215 2392   0.888   3.666   5.690 -0.3925 -0.0664 -0.4089
   19DOPE  H15R 2393   0.924   3.757   5.637 -1.0392  0.6764  0.4118
   19DOPE  H15S 2394   0.786   3.648   5.649 -1.3112  1.0934  1.2567
   19DOPE  C216 2395   0.977   3.552   5.656 -0.2188  0.3504 -0.1083
   19DOPE  H16R 2396   0.924   3.463   5.696 -1.3969  1.2850  0.4740
   19DOPE  H16S 2397   1.077   3.564   5.704 -0.1602 -0.3576 -0.0472
   19DOPE  C217 2398   1.002   3.545   5.504 -0.4243  0.0536 -0.0282
   19DOPE  H17R 2399   1.073   3.461   5.490 -0.8174 -0.4634  1.0097
   19DOPE  H17S 2400   1.042   3.642   5.468  0.6907 -0.3562  0.0657
   19DOPE  C218 2401   0.876   3.499   5.424  0.1179 -0.4632  0.1377
   19DOPE  H18R 2402   0.796   3.576   5.431  1.5616  0.9544  2.7938
   19DOPE  H18S 2403   0.848   3.394   5.446 -2.0028 -0.0380 -0.3019
   19DOPE  H18T 2404   0.904   3.488   5.317 -1.1793  0.5300 -0.3415
   19DOPE   C33 2405   0.847   4.704   6.170  0.3230 -0.0566 -0.2915
   19DOPE   H3X 2406   0.740   4.712   6.198  0.7617  1.2130  1.1579
   19DOPE   H3Y 2407   0.899   4.612   6.205 -0.6096 -0.6849 -0.5285
   19DOPE   C34 2408   0.841   4.663   6.018 -0.0913  0.3018  0.2053
   19DOPE   H4X 2409   0.944   4.663   5.975 -0.9257  0.5295 -1.9421
   19DOPE   H4Y 2410   0.806   4.559   6.004  1.6723 -0.4790  1.3521
   19DOPE   C35 2411   0.764   4.753   5.922 -0.0270  0.3492 -0.1464
   19DOPE   H5X 2412   0.798   4.858   5.928  0.5795  0.1992 -0.8146
   19DOPE   H5Y 2413   0.656   4.767   5.940 -0.7743 -0.7140 -3.1815
   19DOPE   C36 2414   0.775   4.706   5.778 -0.0163  0.3040  0.2391
   19DOPE   H6X 2415   0.742   4.600   5.769  2.0519 -0.5383  1.7057
   19DOPE   H6Y 2416   0.879   4.703   5.738 -0.8296  0.4375 -2.0296
   19DOPE   C37 2417   0.691   4.792   5.681  0.2134 -0.6739  0.3085
   19DOPE   H7X 2418   0.583   4.771   5.688  0.1622 -0.1738  1.1280
   19DOPE   H7Y 2419   0.693   4.898   5.713 -1.3962 -0.6238  0.3223
   19DOPE   C38 2420   0.740   4.772   5.531  0.4497  0.8149  0.3915
   19DOPE   H8X 2421   0.665   4.831   5.474 -0.0246 -0.1055  0.0452
   19DOPE   H8Y 2422   0.713   4.669   5.502 -0.1201  1.1797 -0.4186
   19DOPE   C39 2423   0.878   4.815   5.504 -0.4751  0.0465 -0.3394
   19DOPE   H9X 2424   0.917   4.898   5.565  1.8424 -0.9765 -0.3324
   19DOPE  C310 2425   0.963   4.766   5.421 -0.2370  0.2032  0.5682
   19DOPE  H10X 2426   1.061   4.817   5.410 -1.5080  2.9577  1.0720
   19DOPE  C311 2427   0.935   4.649   5.334  0.0139 -0.1539  0.7606
   19DOPE  H11X 2428   0.955   4.556   5.392 -0.8969 -1.2471 -0.6205
   19DOPE  H11Y 2429   0.829   4.652   5.301  0.0724  0.9003  0.6214
   19DOPE  C312 2430   1.025   4.645   5.203 -0.2264 -0.0569 -0.5454
   19DOPE  H12X 2431   1.131   4.656   5.234 -0.5355  2.5609 -0.1901
   19DOPE  H12Y 2432   1.006   4.732   5.137 -0.4517  0.5419  0.3018
   19DOPE  C313 2433   1.001   4.514   5.131  0.6559  0.1232 -0.4765
   19DOPE  H13X 2434   1.029   4.438   5.207  1.2192  0.6931 -0.1028
   19DOPE  H13Y 2435   0.891   4.507   5.115  0.2094 -1.9938  2.6379
   19DOPE  C314 2436   1.080   4.501   5.000 -0.5996  1.1580  0.2270
   19DOPE  H14X 2437   1.188   4.513   5.022 -1.1157  0.7297  3.5185
   19DOPE  H14Y 2438   1.060   4.572   4.917  1.2592  1.9114  0.3770
   19DOPE  C315 2439   1.048   4.363   4.937  0.4377 -0.3895 -0.1141
   19DOPE  H15X 2440   0.942   4.331   4.953  0.1831 -1.6052 -3.3960
   19DOPE  H15Y 2441   1.106   4.286   4.992 -0.7214 -1.3804 -0.2407
   19DOPE  C316 2442   1.070   4.361   4.785 -0.3116 -0.1524 -0.7046
   19DOPE  H16X 2443   1.172   4.398   4.761  0.3228 -1.4233 -0.0879
   19DOPE  H16Y 2444   0.990   4.430   4.751 -0.7622 -0.2081  0.2083
   19DOPE  C317 2445   1.055   4.222   4.726  0.8197  0.4235  0.2238
   19DOPE  H17X 2446   1.124   4.149   4.775 -1.4223 -2.4084 -0.5265
   19DOPE  H17Y 2447   0.952   4.186   4.745  0.7316  0.8036  0.4737
   19DOPE  C318 2448   1.074   4.219   4.576 -0.0897 -0.5859  0.5377
   19DOPE  H18X 2449   1.124   4.127   4.540  0.1096 -0.5754  0.7865
   19DOPE  H18Y 2450   0.975   4.225   4.525 -0.0882 -0.8052  0.5088
   19DOPE  H18Z 2451   1.146   4.299   4.548  0.1019 -1.1613 -0.6464
   20DOPE     N 2452   6.818   6.407   6.954 -0.0078 -0.0785 -0.5224
   20DOPE   HN1 2453   6.796   6.306   6.944 -1.4134  0.0184  1.2202
   20DOPE   HN2 2454   6.740   6.461   6.997  0.8422  2.5670 -2.1070
   20DOPE   HN3 2455   6.839   6.456   6.865 -0.4244  0.8113 -0.1434
   20DOPE   C12 2456   6.938   6.405   7.039 -0.3132  1.0763  0.6747
   20DOPE  H12A 2457   6.995   6.314   7.009 -1.5441  0.5299 -0.0786
   20DOPE  H12B 2458   6.913   6.393   7.147 -0.6772  3.3386  0.8762
   20DOPE   C11 2459   7.032   6.522   7.012 -0.3073  0.0106 -0.2804
   20DOPE  H11A 2460   7.046   6.530   6.903 -1.3776  3.0719 -0.3019
   20DOPE  H11B 2461   7.122   6.493   7.069  0.4853 -0.8284 -1.9125
   20DOPE     P 2462   7.075   6.772   7.075  0.5010 -0.0061  0.4062
   20DOPE   O13 2463   7.211   6.741   7.122 -0.2447  0.1042  0.2501
   20DOPE   O14 2464   7.005   6.874   7.156  0.1867 -0.8842  0.6737
   20DOPE   O11 2465   7.079   6.815   6.924  0.0255  0.2852 -0.5357
   20DOPE   O12 2466   6.991   6.641   7.076  0.6541 -0.6394 -0.1956
   20DOPE    C1 2467   6.957   6.830   6.853  0.1134  0.2467 -0.2630
   20DOPE    HA 2468   6.878   6.877   6.915 -0.1536 -0.7081  0.1448
   20DOPE    HB 2469   6.906   6.735   6.829  0.0422  0.3734 -0.6189
   20DOPE    C2 2470   6.976   6.903   6.722 -0.4420 -0.4603  0.2226
   20DOPE    HS 2471   6.900   6.885   6.643 -0.4820  0.1162  0.1246
   20DOPE   O21 2472   7.109   6.876   6.670  0.3043  0.3154 -0.5439
   20DOPE   C21 2473   7.127   6.763   6.609  0.5253 -0.0517 -0.6612
   20DOPE   O22 2474   7.040   6.679   6.584  0.4697  0.2393 -0.2739
   20DOPE   C22 2475   7.273   6.756   6.562 -0.6273 -0.2834  0.3845
   20DOPE   H2R 2476   7.327   6.693   6.635  0.8739  0.0935 -0.3715
   20DOPE   H2S 2477   7.310   6.861   6.558  0.1939 -0.5340  1.0894
   20DOPE    C3 2478   6.949   7.054   6.746 -0.3074  0.3097 -0.5851
   20DOPE    HX 2479   7.017   7.094   6.824 -0.2130  0.7027 -0.8659
   20DOPE    HY 2480   6.853   7.059   6.802  2.0928  1.2899  3.9242
   20DOPE   O31 2481   6.944   7.131   6.628 -0.1319 -0.6162  0.7806
   20DOPE   C31 2482   7.062   7.194   6.603  0.4792 -0.2733 -0.3104
   20DOPE   O32 2483   7.158   7.180   6.676  0.0366  0.3750  0.2390
   20DOPE   C32 2484   7.042   7.285   6.488  0.1978  0.6454  0.5750
   20DOPE   H2X 2485   6.952   7.349   6.499 -1.8761 -0.8930 -4.5575
   20DOPE   H2Y 2486   7.137   7.336   6.463  1.1424 -0.2868  2.0512
   20DOPE   C23 2487   7.289   6.674   6.435  0.1322  0.5917  0.1296
   20DOPE   H3R 2488   7.249   6.571   6.434  1.1027  0.1554 -2.2978
   20DOPE   H3S 2489   7.398   6.676   6.411 -0.0346  1.3663 -0.6396
   20DOPE   C24 2490   7.230   6.739   6.308  0.0422 -0.2623 -0.2016
   20DOPE   H4R 2491   7.279   6.838   6.293 -0.1778  0.1806  1.7421
   20DOPE   H4S 2492   7.121   6.750   6.327 -0.6443 -0.5692 -3.3932
   20DOPE   C25 2493   7.248   6.649   6.183 -0.5103  0.0750  0.6557
   20DOPE   H5R 2494   7.198   6.551   6.195 -2.0067  0.9305  1.7615
   20DOPE   H5S 2495   7.357   6.625   6.180 -0.4505  0.4295 -1.0866
   20DOPE   C26 2496   7.216   6.713   6.045  0.3218 -0.2874  0.4463
   20DOPE   H6R 2497   7.281   6.802   6.035 -0.2571  0.1528  0.5089
   20DOPE   H6S 2498   7.119   6.768   6.048  1.8207  2.6923 -1.3336
   20DOPE   C27 2499   7.251   6.626   5.922  0.0756  0.1942 -0.4594
   20DOPE   H7R 2500   7.196   6.529   5.931 -1.5535  0.9997 -1.3059
   20DOPE   H7S 2501   7.360   6.606   5.921  0.2422  1.0217  0.3513
   20DOPE   C28 2502   7.201   6.679   5.786 -0.0184 -0.0933  0.1550
   20DOPE   H8R 2503   7.255   6.632   5.701  3.2581  0.3287  1.8501
   20DOPE   H8S 2504   7.227   6.787   5.777 -1.3324  0.6692  3.8269
   20DOPE   C29 2505   7.054   6.666   5.765 -0.2912  0.1108 -0.6633
   20DOPE   H9R 2506   7.005   6.673   5.863  1.2751  0.0614  0.1422
   20DOPE  C210 2507   6.987   6.636   5.657  0.5589 -0.2737 -0.0896
   20DOPE  H10R 2508   6.878   6.620   5.663  0.5741 -0.5524 -0.4661
   20DOPE  C211 2509   7.047   6.606   5.525  0.4187 -0.4564 -0.2217
   20DOPE  H11R 2510   7.004   6.516   5.478  0.5546 -0.9258  0.5300
   20DOPE  H11S 2511   7.158   6.607   5.528  0.6725  3.6551 -2.9169
   20DOPE  C212 2512   7.012   6.726   5.432 -0.2335 -0.3436 -0.3619
   20DOPE  H12R 2513   7.050   6.822   5.473 -2.2472  0.8772 -1.2408
   20DOPE  H12S 2514   6.903   6.739   5.420 -0.2403  0.1821  0.2067
   20DOPE  C213 2515   7.068   6.707   5.294 -0.1300  0.1867  0.7501
   20DOPE  H13R 2516   7.042   6.605   5.256  2.5626  0.3633 -1.9089
   20DOPE  H13S 2517   7.179   6.706   5.297  0.0528 -4.5957  1.4137
   20DOPE  C214 2518   7.004   6.809   5.199  0.2123  0.1058  0.0973
   20DOPE  H14R 2519   6.895   6.809   5.222  0.2327  0.2788  0.1932
   20DOPE  H14S 2520   7.021   6.768   5.097 -1.2049 -1.5795  0.4806
   20DOPE  C215 2521   7.060   6.954   5.215 -0.7216 -0.3035  0.1586
   20DOPE  H15R 2522   7.170   6.950   5.231 -0.9702  1.8512  3.3260
   20DOPE  H15S 2523   7.019   6.987   5.313  1.6721  1.6761  0.5926
   20DOPE  C216 2524   7.037   7.054   5.102  0.0471  0.3730 -0.1292
   20DOPE  H16R 2525   7.071   7.158   5.125  2.1517 -0.3990  0.4151
   20DOPE  H16S 2526   6.927   7.050   5.087 -0.0825  0.2685  0.8058
   20DOPE  C217 2527   7.105   7.000   4.974 -0.4291 -0.1776 -0.0412
   20DOPE  H17R 2528   7.083   6.892   4.954 -0.5599 -0.4747  1.5909
   20DOPE  H17S 2529   7.215   6.996   4.993 -0.8143  0.0456  2.4476
   20DOPE  C218 2530   7.071   7.086   4.850 -0.0675  0.1681 -0.3159
   20DOPE  H18R 2531   7.131   7.178   4.868  2.0563 -1.0726 -0.8018
   20DOPE  H18S 2532   6.965   7.119   4.844 -0.7460 -1.4737  1.4459
   20DOPE  H18T 2533   7.093   7.038   4.753 -0.1394  0.6432 -0.5721
   20DOPE   C33 2534   7.021   7.204   6.355 -0.2439  0.4752 -0.3925
   20DOPE   H3X 2535   6.979   7.276   6.280  0.8204 -0.0349 -1.5110
   20DOPE   H3Y 2536   6.938   7.132   6.366 -0.5550  0.5858 -1.8154
   20DOPE   C34 2537   7.139   7.131   6.299  0.4634  0.1068  0.4691
   20DOPE   H4X 2538   7.223   7.204   6.293 -0.3743  1.1542  1.0114
   20DOPE   H4Y 2539   7.163   7.036   6.351  1.2323 -0.4885 -0.8946
   20DOPE   C35 2540   7.115   7.081   6.154  0.3529  0.0020  0.1734
   20DOPE   H5X 2541   7.020   7.022   6.149  1.5106 -2.0273  0.9440
   20DOPE   H5Y 2542   7.197   7.015   6.118  0.5109  0.7844 -0.9453
   20DOPE   C36 2543   7.115   7.195   6.051  0.8421 -0.0713 -0.0440
   20DOPE   H6X 2544   7.205   7.258   6.061  0.4376  1.0655 -2.8390
   20DOPE   H6Y 2545   7.035   7.268   6.074  1.1629 -0.3869  2.4246
   20DOPE   C37 2546   7.098   7.139   5.905  0.9035 -0.5255 -0.2587
   20DOPE   H7X 2547   7.183   7.083   5.859  1.3648  0.0842 -0.1700
   20DOPE   H7Y 2548   7.015   7.067   5.921  1.0366 -0.4886  0.6314
   20DOPE   C38 2549   7.036   7.242   5.806  0.2370  0.1565 -1.0378
   20DOPE   H8X 2550   7.113   7.314   5.772  1.4961 -1.1448 -1.0366
   20DOPE   H8Y 2551   6.965   7.306   5.862 -0.7671 -2.6697  1.2016
   20DOPE   C39 2552   6.984   7.174   5.687 -0.2091 -0.2525  0.9358
   20DOPE   H9X 2553   6.875   7.168   5.689 -0.3165  0.6802 -0.5460
   20DOPE  C310 2554   7.041   7.126   5.574  0.6637 -0.2645  0.2258
   20DOPE  H10X 2555   6.989   7.098   5.481  1.9839  1.9062 -1.2676
   20DOPE  C311 2556   7.187   7.144   5.545 -0.0183 -0.3439 -0.3039
   20DOPE  H11X 2557   7.240   7.195   5.628  1.9087  0.0024 -1.7089
   20DOPE  H11Y 2558   7.222   7.039   5.536 -0.8141 -0.6015 -0.5209
   20DOPE  C312 2559   7.215   7.215   5.412 -0.8686 -0.2412 -0.2217
   20DOPE  H12X 2560   7.139   7.176   5.341  0.3233  0.1842 -1.7931
   20DOPE  H12Y 2561   7.314   7.199   5.364  0.0535 -1.1792  1.8846
   20DOPE  C313 2562   7.209   7.368   5.424 -0.1498 -0.5060 -0.3964
   20DOPE  H13X 2563   7.111   7.401   5.465 -0.2590 -0.8055 -0.4129
   20DOPE  H13Y 2564   7.293   7.406   5.486  0.0627  0.8701 -1.4666
   20DOPE  C314 2565   7.231   7.438   5.290  0.1404  0.1118 -0.3794
   20DOPE  H14X 2566   7.133   7.471   5.250  0.6707  0.2985 -1.5669
   20DOPE  H14Y 2567   7.292   7.377   5.219  1.2709  0.3783  0.3318
   20DOPE  C315 2568   7.299   7.574   5.316 -0.3595 -0.6624  0.6162
   20DOPE  H15X 2569   7.399   7.558   5.362  1.2351 -1.5600 -2.8640
   20DOPE  H15Y 2570   7.233   7.627   5.388  1.1402 -1.1281  2.4280
   20DOPE  C316 2571   7.310   7.664   5.186 -0.2415 -0.3781 -0.2985
   20DOPE  H16X 2572   7.206   7.695   5.166 -0.5190  0.1428  1.6677
   20DOPE  H16Y 2573   7.335   7.585   5.112 -2.9122 -1.8275  0.2242
   20DOPE  C317 2574   7.391   7.796   5.189 -0.7272 -0.0546 -1.0364
   20DOPE  H17X 2575   7.347   7.860   5.269  0.0734 -0.1164 -0.5367
   20DOPE  H17Y 2576   7.496   7.781   5.221 -0.6217 -0.0606 -1.3826
   20DOPE  C318 2577   7.394   7.872   5.064 -0.1743 -0.1446  0.4004
   20DOPE  H18X 2578   7.293   7.916   5.051  0.8715  2.8136  1.5928
   20DOPE  H18Y 2579   7.466   7.955   5.077 -0.4155 -0.2023  2.3740
   20DOPE  H18Z 2580   7.427   7.806   4.980 -0.9344  0.2064 -0.1906
   21DOPE     N 2581   4.313   0.645   6.807 -1.0785  0.5656 -0.4356
   21DOPE   HN1 2582   4.320   0.732   6.751  0.3967 -0.4364 -1.8999
   21DOPE   HN2 2583   4.401   0.592   6.798 -1.5333  0.1598 -3.8987
   21DOPE   HN3 2584   4.234   0.588   6.770 -1.5210  1.7944 -1.4706
   21DOPE   C12 2585   4.269   0.674   6.949  0.2255  0.1537  0.6125
   21DOPE  H12A 2586   4.213   0.769   6.939 -0.2645 -0.2203 -0.2729
   21DOPE  H12B 2587   4.355   0.678   7.020  0.7112 -1.3472  0.1383
   21DOPE   C11 2588   4.163   0.572   6.995  0.4403  0.1487 -0.1822
   21DOPE  H11A 2589   4.080   0.591   6.924  1.7334  2.2890 -1.1891
   21DOPE  H11B 2590   4.128   0.589   7.099 -0.8367 -2.8700 -0.0057
   21DOPE     P 2591   4.112   0.314   7.006 -0.3799 -0.0403 -0.3278
   21DOPE   O13 2592   3.983   0.300   6.933 -0.1242  0.0107  0.6150
   21DOPE   O14 2593   4.104   0.328   7.153  0.6188  0.3206 -0.5052
   21DOPE   O11 2594   4.210   0.189   6.975  1.0185 -0.1551 -0.2304
   21DOPE   O12 2595   4.203   0.436   6.960  0.5128  0.3616  0.9826
   21DOPE    C1 2596   4.351   0.192   7.004  0.3087 -0.4902  0.7756
   21DOPE    HA 2597   4.381   0.085   7.004  0.8936 -0.4272 -2.3535
   21DOPE    HB 2598   4.358   0.249   7.099  1.8268  1.0014 -0.1749
   21DOPE    C2 2599   4.428   0.252   6.891  0.3815 -0.4810  0.1814
   21DOPE    HS 2600   4.368   0.330   6.841  1.4750 -0.5634 -1.3173
   21DOPE   O21 2601   4.451   0.146   6.794 -0.3899  0.2685  0.3552
   21DOPE   C21 2602   4.380   0.149   6.686 -0.2905  0.0542  0.0092
   21DOPE   O22 2603   4.290   0.228   6.663 -0.2047 -0.6912  0.0038
   21DOPE   C22 2604   4.414   0.030   6.593  0.1716  0.1712 -0.5808
   21DOPE   H2R 2605   4.402  -0.063   6.653 -0.1727 -0.3209 -1.3952
   21DOPE   H2S 2606   4.522   0.043   6.569  0.3056  1.4858  0.6055
   21DOPE    C3 2607   4.575   0.304   6.932  0.0785  0.4494 -0.0513
   21DOPE    HX 2608   4.632   0.231   6.993  1.6372  0.7533 -1.1017
   21DOPE    HY 2609   4.545   0.394   6.991 -0.5562 -0.2915  0.7764
   21DOPE   O31 2610   4.665   0.328   6.823 -0.2329 -0.2903 -0.1280
   21DOPE   C31 2611   4.646   0.444   6.758  0.0850 -0.4959 -0.6702
   21DOPE   O32 2612   4.546   0.515   6.767 -0.5803  0.5677  0.0542
   21DOPE   C32 2613   4.762   0.473   6.668  0.8705 -0.3496  0.0450
   21DOPE   H2X 2614   4.838   0.511   6.739  0.6236  1.6747 -0.7081
   21DOPE   H2Y 2615   4.800   0.376   6.630 -0.1790 -0.6105 -0.3597
   21DOPE   C23 2616   4.338  -0.003   6.466 -0.0847  0.1627  0.0874
   21DOPE   H3R 2617   4.364   0.073   6.388 -0.0998 -0.4833 -0.5601
   21DOPE   H3S 2618   4.230  -0.011   6.488  0.2785 -0.1976  1.8689
   21DOPE   C24 2619   4.388  -0.137   6.420  0.2753 -0.2174 -0.2135
   21DOPE   H4R 2620   4.354  -0.218   6.488 -0.8545 -1.5865 -2.3120
   21DOPE   H4S 2621   4.499  -0.141   6.423  0.5616 -0.6613 -4.4793
   21DOPE   C25 2622   4.339  -0.171   6.277 -0.4905 -0.4195 -0.3272
   21DOPE   H5R 2623   4.402  -0.254   6.237  2.0632  2.0906 -1.8484
   21DOPE   H5S 2624   4.364  -0.080   6.219 -0.1887 -0.1341  0.2411
   21DOPE   C26 2625   4.189  -0.197   6.266  0.2829 -0.5778  0.0464
   21DOPE   H6R 2626   4.139  -0.132   6.341 -0.9920 -2.0959  0.5632
   21DOPE   H6S 2627   4.171  -0.303   6.298  1.8529 -1.2682 -1.2192
   21DOPE   C27 2628   4.142  -0.182   6.122  0.5275 -0.8702  0.4137
   21DOPE   H7R 2629   4.218  -0.244   6.068 -0.2836 -2.1468  0.6884
   21DOPE   H7S 2630   4.152  -0.076   6.090 -1.0829 -0.2437  1.8384
   21DOPE   C28 2631   4.000  -0.229   6.089  0.2640 -0.0965 -0.6143
   21DOPE   H8R 2632   3.933  -0.160   6.146  1.5110  0.5112  0.1639
   21DOPE   H8S 2633   3.996  -0.330   6.135 -0.8071  0.2027 -0.0209
   21DOPE   C29 2634   3.968  -0.232   5.937  0.4443 -0.4572  0.4332
   21DOPE   H9R 2635   3.994  -0.327   5.888 -0.4406  0.1298 -1.2713
   21DOPE  C210 2636   3.905  -0.126   5.869 -0.3002  0.0005 -0.0710
   21DOPE  H10R 2637   3.867  -0.146   5.767 -0.6722 -3.0450  0.5643
   21DOPE  C211 2638   3.862   0.003   5.927 -0.0153  0.2677 -0.9837
   21DOPE  H11R 2639   3.848  -0.001   6.037  0.0465 -0.6040 -0.9938
   21DOPE  H11S 2640   3.764   0.035   5.886 -1.5655 -0.9447  1.5256
   21DOPE  C212 2641   3.969   0.105   5.894 -0.1548  0.0348 -0.4462
   21DOPE  H12R 2642   4.061   0.066   5.943 -1.1799 -1.6020  0.2623
   21DOPE  H12S 2643   3.946   0.204   5.939 -1.8636 -0.1450 -0.8308
   21DOPE  C213 2644   3.988   0.149   5.750  0.4167 -0.3922  0.5397
   21DOPE  H13R 2645   3.905   0.222   5.739  0.0843 -0.9862 -1.2131
   21DOPE  H13S 2646   3.975   0.071   5.673  3.6240 -0.0254 -0.5244
   21DOPE  C214 2647   4.122   0.217   5.724  0.4574 -0.2666  0.2608
   21DOPE  H14R 2648   4.200   0.160   5.779  0.6168  0.2284  0.5532
   21DOPE  H14S 2649   4.116   0.314   5.777  2.2752 -0.8198  1.5591
   21DOPE  C215 2650   4.165   0.223   5.582 -0.3415 -0.1652  0.7485
   21DOPE  H15R 2651   4.183   0.121   5.540 -0.1795 -0.8338  2.3516
   21DOPE  H15S 2652   4.269   0.261   5.576 -0.1533 -0.9474 -2.2411
   21DOPE  C216 2653   4.076   0.319   5.499 -0.2956 -0.6964 -0.1559
   21DOPE  H16R 2654   4.064   0.423   5.535  0.4170  0.4228 -2.8790
   21DOPE  H16S 2655   3.974   0.275   5.504 -0.2025 -0.8945  0.0252
   21DOPE  C217 2656   4.117   0.315   5.346  0.3919  0.1622  0.4886
   21DOPE  H17R 2657   4.112   0.211   5.306  1.3022  1.0331 -2.1441
   21DOPE  H17S 2658   4.221   0.350   5.329  0.6284 -1.4837 -2.0769
   21DOPE  C218 2659   4.031   0.402   5.255  0.1168  0.0479 -0.8500
   21DOPE  H18R 2660   3.926   0.394   5.290  0.7876  0.1702  1.3525
   21DOPE  H18S 2661   4.057   0.373   5.151 -0.2921 -0.8178 -0.7189
   21DOPE  H18T 2662   4.055   0.508   5.279  0.5523 -0.3543  0.6087
   21DOPE   C33 2663   4.739   0.567   6.548  0.0102  0.1894  0.2924
   21DOPE   H3X 2664   4.835   0.596   6.500 -0.0712  0.3045  0.1987
   21DOPE   H3Y 2665   4.692   0.659   6.589 -0.2933  0.8236 -1.4036
   21DOPE   C34 2666   4.649   0.515   6.435 -0.0616  0.6697 -0.0062
   21DOPE   H4X 2667   4.547   0.493   6.472 -0.2203  2.3977  0.6647
   21DOPE   H4Y 2668   4.643   0.589   6.353  0.8976  2.2075  1.2474
   21DOPE   C35 2669   4.702   0.382   6.370 -0.4140 -0.2017 -0.1518
   21DOPE   H5X 2670   4.687   0.303   6.447 -1.6490  1.3212  1.2616
   21DOPE   H5Y 2671   4.811   0.393   6.350 -0.9068  1.8804 -2.1332
   21DOPE   C36 2672   4.626   0.316   6.256  0.7003 -0.6474  0.3632
   21DOPE   H6X 2673   4.613   0.398   6.182 -0.8952 -0.4966  0.7612
   21DOPE   H6Y 2674   4.520   0.304   6.287  0.9995 -0.0242  1.7185
   21DOPE   C37 2675   4.680   0.188   6.206  0.3287 -0.3188  0.4254
   21DOPE   H7X 2676   4.781   0.191   6.159  1.0827  0.9608  2.0259
   21DOPE   H7Y 2677   4.685   0.139   6.305 -2.3343  1.9098  1.7924
   21DOPE   C38 2678   4.579   0.124   6.112  0.2743 -0.4228  0.0609
   21DOPE   H8X 2679   4.576   0.185   6.019 -2.2270  0.2317  0.4955
   21DOPE   H8Y 2680   4.475   0.132   6.149  0.4486 -2.6556  1.2314
   21DOPE   C39 2681   4.619  -0.020   6.079  0.3818  0.6475  0.6432
   21DOPE   H9X 2682   4.655  -0.082   6.163  2.5576 -0.7207 -1.1584
   21DOPE  C310 2683   4.577  -0.090   5.969  0.0503  0.0152  0.0167
   21DOPE  H10X 2684   4.604  -0.196   5.958  3.2565  0.8903 -1.8735
   21DOPE  C311 2685   4.483  -0.040   5.864  0.7866  0.1506  0.1899
   21DOPE  H11X 2686   4.388  -0.097   5.857 -0.8518  2.5952  1.2072
   21DOPE  H11Y 2687   4.433   0.056   5.888 -1.7468 -1.6794  2.9459
   21DOPE  C312 2688   4.546  -0.019   5.723  0.0225  0.0973  0.6516
   21DOPE  H12X 2689   4.470   0.001   5.643 -0.0328  0.7396  0.8574
   21DOPE  H12Y 2690   4.599  -0.113   5.696 -0.9990  0.0163 -1.3345
   21DOPE  C313 2691   4.631   0.107   5.717  0.4232  0.3880  0.1900
   21DOPE  H13X 2692   4.578   0.202   5.741  0.1347  0.5396 -0.9569
   21DOPE  H13Y 2693   4.704   0.091   5.799 -0.5981 -1.9845  0.7232
   21DOPE  C314 2694   4.697   0.134   5.575  0.1976 -0.2594 -0.4087
   21DOPE  H14X 2695   4.766   0.049   5.559 -1.7238 -1.6617 -1.6382
   21DOPE  H14Y 2696   4.755   0.227   5.591  0.9383 -0.7715 -0.0568
   21DOPE  C315 2697   4.603   0.156   5.457 -0.1282  0.5264  0.1052
   21DOPE  H15X 2698   4.508   0.196   5.501 -0.6204  1.3442 -1.6138
   21DOPE  H15Y 2699   4.590   0.055   5.413 -0.6076  0.9894 -0.8354
   21DOPE  C316 2700   4.654   0.256   5.348 -0.3189  0.2603 -0.2510
   21DOPE  H16X 2701   4.688   0.354   5.387  0.1661  0.3766 -0.9395
   21DOPE  H16Y 2702   4.565   0.277   5.285 -1.0650  1.5168  1.1661
   21DOPE  C317 2703   4.765   0.193   5.261  0.8428 -0.1994  0.0420
   21DOPE  H17X 2704   4.858   0.193   5.322  0.1035  0.2542  1.2049
   21DOPE  H17Y 2705   4.739   0.090   5.227  0.4522 -0.9654  2.5033
   21DOPE  C318 2706   4.795   0.287   5.145  0.1791 -0.6157 -0.1561
   21DOPE  H18X 2707   4.700   0.329   5.106  0.3234  1.5581  1.6474
   21DOPE  H18Y 2708   4.852   0.379   5.172 -1.3374  0.4131 -0.3348
   21DOPE  H18Z 2709   4.849   0.230   5.066 -0.5820 -1.2615 -0.2176
   22DOPE     N 2710   0.714   4.744   6.645  0.5409 -0.8368 -0.2884
   22DOPE   HN1 2711   0.704   4.641   6.656  0.8194 -0.7532  0.8660
   22DOPE   HN2 2712   0.619   4.784   6.637 -0.5810 -3.4703 -1.3567
   22DOPE   HN3 2713   0.763   4.765   6.556 -0.4536  1.3927 -0.3631
   22DOPE   C12 2714   0.786   4.806   6.759  0.2067  0.5578 -0.0889
   22DOPE  H12A 2715   0.890   4.767   6.757  0.4849  1.2335  0.7205
   22DOPE  H12B 2716   0.740   4.760   6.849  2.0272 -2.0484 -0.3619
   22DOPE   C11 2717   0.800   4.955   6.747 -0.7179  0.5012 -0.0588
   22DOPE  H11A 2718   0.858   4.969   6.653  0.4530 -0.3744  0.5047
   22DOPE  H11B 2719   0.859   4.994   6.832 -1.2475 -0.1944  0.6338
   22DOPE     P 2720   0.577   5.052   6.845  0.5139  0.1253 -0.0459
   22DOPE   O13 2721   0.643   5.146   6.934 -0.0516 -0.0111  0.0019
   22DOPE   O14 2722   0.515   4.933   6.914  0.2258  0.3448  0.4174
   22DOPE   O11 2723   0.469   5.123   6.768 -0.0538 -0.6785 -0.5949
   22DOPE   O12 2724   0.676   5.014   6.732 -0.6415 -0.1662 -0.4248
   22DOPE    C1 2725   0.489   5.233   6.678  0.8936 -0.1133 -0.1610
   22DOPE    HA 2726   0.581   5.294   6.693 -0.0516  1.2259  0.4546
   22DOPE    HB 2727   0.400   5.301   6.681  0.7892  0.1881 -4.2253
   22DOPE    C2 2728   0.495   5.182   6.533  0.4535 -0.9502 -0.2430
   22DOPE    HS 2729   0.598   5.151   6.505  0.2553 -0.5165 -1.5218
   22DOPE   O21 2730   0.449   5.287   6.444 -0.2164  0.6067 -0.3854
   22DOPE   C21 2731   0.539   5.387   6.411  0.0208  0.3193  0.7514
   22DOPE   O22 2732   0.654   5.389   6.446  0.4840  0.2481 -0.3863
   22DOPE   C22 2733   0.465   5.501   6.335  0.1220 -0.0049 -0.1529
   22DOPE   H2R 2734   0.460   5.574   6.419  0.7715  1.3266 -1.2510
   22DOPE   H2S 2735   0.366   5.460   6.305  0.7279 -0.7107 -1.2315
   22DOPE    C3 2736   0.404   5.065   6.505 -0.2294  0.2778 -0.2467
   22DOPE    HX 2737   0.301   5.101   6.527  0.1386  0.7180  0.8174
   22DOPE    HY 2738   0.423   4.985   6.579 -2.8415 -0.2705 -0.0708
   22DOPE   O31 2739   0.409   5.019   6.370  0.0958 -0.3082 -0.1573
   22DOPE   C31 2740   0.516   4.933   6.333 -0.2522 -0.3245 -0.7106
   22DOPE   O32 2741   0.598   4.891   6.409 -0.1746 -0.1069  0.9330
   22DOPE   C32 2742   0.502   4.898   6.187 -0.7942  0.0435  0.7392
   22DOPE   H2X 2743   0.504   4.986   6.119 -1.8749 -0.8275 -0.4640
   22DOPE   H2Y 2744   0.595   4.841   6.167 -0.9597 -0.8063  2.2023
   22DOPE   C23 2745   0.540   5.569   6.214 -0.1383 -0.1125 -0.0182
   22DOPE   H3R 2746   0.629   5.619   6.259 -1.0959  0.5595  1.1883
   22DOPE   H3S 2747   0.474   5.646   6.171  0.4683  1.7409  2.1756
   22DOPE   C24 2748   0.591   5.464   6.115  0.2944 -0.0902  0.0392
   22DOPE   H4R 2749   0.675   5.406   6.159 -1.1345 -2.1692  0.1933
   22DOPE   H4S 2750   0.635   5.506   6.022  0.7298 -1.9374 -0.6207
   22DOPE   C25 2751   0.479   5.385   6.068  0.4858  0.6860 -0.0745
   22DOPE   H5R 2752   0.397   5.455   6.038  0.2721  0.6050  0.3182
   22DOPE   H5S 2753   0.445   5.326   6.155  1.0403  0.8151  0.2319
   22DOPE   C26 2754   0.500   5.290   5.946  0.2144 -0.1552  0.1101
   22DOPE   H6R 2755   0.581   5.218   5.970  0.1288  0.1705  1.4722
   22DOPE   H6S 2756   0.523   5.344   5.852  0.0721  0.2383  0.2992
   22DOPE   C27 2757   0.384   5.192   5.926 -0.2498 -0.0852  0.2443
   22DOPE   H7R 2758   0.290   5.250   5.916  0.2463  0.4700 -1.5980
   22DOPE   H7S 2759   0.369   5.141   6.023 -0.4444  1.9164  1.3169
   22DOPE   C28 2760   0.410   5.086   5.816 -0.2196 -0.2040  0.2484
   22DOPE   H8R 2761   0.337   5.002   5.825  1.7631 -1.9919  0.3516
   22DOPE   H8S 2762   0.500   5.029   5.848 -0.4236 -0.5619  0.1916
   22DOPE   C29 2763   0.428   5.144   5.674 -0.5356  0.1267 -0.1121
   22DOPE   H9R 2764   0.490   5.234   5.662  0.7354 -0.5008  1.4240
   22DOPE  C210 2765   0.400   5.087   5.552 -0.5958  0.0548 -0.3716
   22DOPE  H10R 2766   0.408   5.152   5.464 -1.5391 -0.6550 -0.9991
   22DOPE  C211 2767   0.339   4.954   5.526 -0.1887  0.0164  1.0082
   22DOPE  H11R 2768   0.324   4.897   5.620  2.7424  1.2892  2.3870
   22DOPE  H11S 2769   0.413   4.898   5.465 -1.2396 -0.6134  0.2816
   22DOPE  C212 2770   0.213   4.965   5.446 -0.0783  0.7195 -0.0652
   22DOPE  H12R 2771   0.224   5.013   5.346 -2.8504  1.5188 -0.0658
   22DOPE  H12S 2772   0.139   5.026   5.502  0.0977  2.2893 -1.4627
   22DOPE  C213 2773   0.155   4.827   5.408 -0.2731  0.0039  0.1785
   22DOPE  H13R 2774   0.133   4.774   5.503  0.5912 -0.0317  0.3659
   22DOPE  H13S 2775   0.240   4.773   5.361  1.6560  1.7182  1.5220
   22DOPE  C214 2776   0.033   4.816   5.320 -0.3716 -0.0992 -0.1339
   22DOPE  H14R 2777  -0.065   4.819   5.373 -2.1979 -3.5956 -2.8638
   22DOPE  H14S 2778   0.027   4.714   5.276  0.2475 -0.1505 -0.1074
   22DOPE  C215 2779   0.021   4.916   5.210 -0.1778  0.3250  0.0554
   22DOPE  H15R 2780   0.115   4.946   5.158  0.9816 -0.6544  1.4874
   22DOPE  H15S 2781  -0.013   5.011   5.256 -1.8634  1.0236 -2.4318
   22DOPE  C216 2782  -0.088   4.878   5.106  0.4598 -0.0145  0.5495
   22DOPE  H16R 2783  -0.174   4.831   5.159  0.9503 -1.7142 -0.1010
   22DOPE  H16S 2784  -0.039   4.806   5.037  1.4345  1.9535 -0.8950
   22DOPE  C217 2785  -0.153   4.991   5.018 -0.9185 -1.0007  0.1673
   22DOPE  H17R 2786  -0.069   5.056   4.986 -1.3315 -0.9799 -0.9465
   22DOPE  H17S 2787  -0.224   5.053   5.076 -0.5770 -0.8838  0.4622
   22DOPE  C218 2788  -0.219   4.931   4.891 -0.5959  0.5609  0.5638
   22DOPE  H18R 2789  -0.141   4.884   4.827 -2.0228 -0.2799 -0.6255
   22DOPE  H18S 2790  -0.261   5.008   4.823  3.1676  0.7584 -1.8375
   22DOPE  H18T 2791  -0.308   4.869   4.918  0.3613 -0.4963  1.3918
   22DOPE   C33 2792   0.380   4.809   6.149 -0.2495  0.5092  0.0897
   22DOPE   H3X 2793   0.368   4.812   6.038  2.4432  2.1629 -0.2454
   22DOPE   H3Y 2794   0.284   4.849   6.189 -0.4225 -1.4284  1.7736
   22DOPE   C34 2795   0.395   4.665   6.197 -0.6005 -0.0567 -0.0142
   22DOPE   H4X 2796   0.499   4.639   6.168 -0.5110  0.5260 -0.2186
   22DOPE   H4Y 2797   0.399   4.664   6.308  0.0758 -1.9758 -0.0192
   22DOPE   C35 2798   0.303   4.559   6.137  0.2676  0.2968 -0.6199
   22DOPE   H5X 2799   0.199   4.572   6.175  1.5332  0.4652  3.2416
   22DOPE   H5Y 2800   0.332   4.463   6.185  1.5324  0.9889  0.0509
   22DOPE   C36 2801   0.310   4.545   5.984  0.0676 -0.0395  0.1446
   22DOPE   H6X 2802   0.417   4.534   5.957 -0.1767  1.7563 -1.7630
   22DOPE   H6Y 2803   0.271   4.628   5.921  2.2782 -0.0374 -1.3474
   22DOPE   C37 2804   0.235   4.414   5.940  0.0241  0.0125  0.3399
   22DOPE   H7X 2805   0.295   4.326   5.973  2.1263 -0.1155 -3.1882
   22DOPE   H7Y 2806   0.133   4.412   5.983 -0.0282  2.4839  0.4777
   22DOPE   C38 2807   0.209   4.406   5.782 -0.2731  0.0435 -0.1620
   22DOPE   H8X 2808   0.166   4.502   5.746  1.3987  0.9616  0.1945
   22DOPE   H8Y 2809   0.133   4.325   5.771 -0.2561 -0.1293  0.9352
   22DOPE   C39 2810   0.333   4.362   5.709  0.0627  1.0173 -0.1450
   22DOPE   H9X 2811   0.393   4.293   5.769 -1.8720  1.1048  2.0326
   22DOPE  C310 2812   0.368   4.407   5.582 -0.2769  0.2458  0.0535
   22DOPE  H10X 2813   0.451   4.362   5.526  0.3883 -0.8218  1.8282
   22DOPE  C311 2814   0.292   4.506   5.507  0.0969  0.6407 -0.2977
   22DOPE  H11X 2815   0.200   4.546   5.554  0.1946  0.5997 -0.0721
   22DOPE  H11Y 2816   0.349   4.601   5.496 -0.6310  1.2111  0.7278
   22DOPE  C312 2817   0.249   4.459   5.365 -0.4500  0.4916  0.1011
   22DOPE  H12X 2818   0.339   4.424   5.309 -0.4592  0.5017  0.0803
   22DOPE  H12Y 2819   0.214   4.549   5.310  0.4876  0.1523 -1.1154
   22DOPE  C313 2820   0.138   4.357   5.366  0.4156  0.6689  0.2218
   22DOPE  H13X 2821   0.170   4.266   5.420  0.7333 -0.5882 -1.9811
   22DOPE  H13Y 2822   0.059   4.397   5.434 -0.8918 -0.6072 -0.4866
   22DOPE  C314 2823   0.076   4.324   5.229 -0.5769  0.1986  0.0908
   22DOPE  H14X 2824   0.030   4.409   5.174 -0.9139  0.6380  1.0297
   22DOPE  H14Y 2825  -0.009   4.254   5.246  0.3509 -0.6230  1.5208
   22DOPE  C315 2826   0.179   4.256   5.139  0.7449 -0.0673 -0.3577
   22DOPE  H15X 2827   0.276   4.309   5.129  0.7584 -0.0288 -0.0146
   22DOPE  H15Y 2828   0.134   4.237   5.039 -1.7170  0.1635  0.6473
   22DOPE  C316 2829   0.206   4.112   5.182  0.2385 -0.0572  0.1865
   22DOPE  H16X 2830   0.110   4.057   5.193  0.3335 -0.5637 -1.2810
   22DOPE  H16Y 2831   0.262   4.120   5.277  0.1781  2.1272  0.0883
   22DOPE  C317 2832   0.304   4.043   5.091 -0.7140  0.5070 -0.3196
   22DOPE  H17X 2833   0.267   4.054   4.987  0.4190 -2.1837 -1.0883
   22DOPE  H17Y 2834   0.407   4.083   5.096 -0.9269  1.3022 -1.7475
   22DOPE  C318 2835   0.308   3.890   5.123  0.1336 -0.1058 -0.1963
   22DOPE  H18X 2836   0.370   3.837   5.047  0.7469 -1.0109  0.9092
   22DOPE  H18Y 2837   0.343   3.870   5.226 -1.4672  1.7565  0.7834
   22DOPE  H18Z 2838   0.211   3.839   5.111  0.1376  0.0121 -0.7906
   23DOPE     N 2839   6.216   7.389   7.017  0.1412  0.1805  0.5923
   23DOPE   HN1 2840   6.219   7.446   6.930  0.7784  1.7885  1.6230
   23DOPE   HN2 2841   6.273   7.302   7.013 -0.6779 -0.3403 -0.0064
   23DOPE   HN3 2842   6.121   7.350   7.031 -0.1685  0.5829 -0.3195
   23DOPE   C12 2843   6.265   7.479   7.134 -0.2564 -0.8428  0.2687
   23DOPE  H12A 2844   6.376   7.472   7.135 -0.2751 -1.5590 -1.1207
   23DOPE  H12B 2845   6.239   7.435   7.233 -0.5980  0.7863  0.9458
   23DOPE   C11 2846   6.222   7.631   7.133 -0.2244  0.4323 -0.5938
   23DOPE  H11A 2847   6.257   7.680   7.039  0.4274  0.8285 -0.1481
   23DOPE  H11B 2848   6.265   7.677   7.224 -2.9220 -0.7125  1.3844
   23DOPE     P 2849   5.994   7.682   7.269 -0.1412 -0.3420  0.0525
   23DOPE   O13 2850   6.034   7.822   7.295  0.5797  0.2646  0.2251
   23DOPE   O14 2851   6.014   7.582   7.371 -0.0482 -0.0096 -0.1763
   23DOPE   O11 2852   5.839   7.676   7.226  0.1521 -0.5271 -0.1515
   23DOPE   O12 2853   6.075   7.637   7.138  0.2206 -0.0148 -0.5369
   23DOPE    C1 2854   5.818   7.594   7.110  1.0588  0.3930 -0.1312
   23DOPE    HA 2855   5.711   7.563   7.112  1.0044  0.3519 -1.8203
   23DOPE    HB 2856   5.868   7.495   7.113 -0.8153 -0.6436 -1.0429
   23DOPE    C2 2857   5.844   7.662   6.968 -0.2331 -0.4660 -0.4320
   23DOPE    HS 2858   5.933   7.727   6.977 -1.5416  1.1783  1.5454
   23DOPE   O21 2859   5.724   7.726   6.934  0.1652  0.1646 -0.0079
   23DOPE   C21 2860   5.744   7.850   6.912 -0.1342 -0.4769  0.9503
   23DOPE   O22 2861   5.848   7.915   6.910  0.3957 -0.1367 -0.0588
   23DOPE   C22 2862   5.607   7.909   6.887  0.1902 -0.3541  0.2783
   23DOPE   H2R 2863   5.594   7.973   6.976  0.7759 -1.9041  1.5349
   23DOPE   H2S 2864   5.526   7.833   6.883  0.3811 -0.5874  0.7692
   23DOPE    C3 2865   5.888   7.554   6.869 -0.4086 -0.1711  0.4227
   23DOPE    HX 2866   5.826   7.462   6.882 -0.6189  0.2208  2.5181
   23DOPE    HY 2867   5.991   7.524   6.896  0.2695  1.7369  0.0563
   23DOPE   O31 2868   5.878   7.594   6.728 -0.1328  0.4442  0.4662
   23DOPE   C31 2869   5.955   7.517   6.650 -1.1217  0.4808 -0.1099
   23DOPE   O32 2870   5.991   7.406   6.677  0.2273 -0.0368 -0.1634
   23DOPE   C32 2871   5.988   7.579   6.511 -0.6586  0.1133 -0.0424
   23DOPE   H2X 2872   5.909   7.654   6.490 -2.9379 -2.4038 -1.0580
   23DOPE   H2Y 2873   6.086   7.631   6.523 -0.1600 -0.7334 -0.3331
   23DOPE   C23 2874   5.613   8.008   6.764  0.5265  0.4847 -0.7118
   23DOPE   H3R 2875   5.700   8.075   6.778 -0.3776  1.4984  0.3412
   23DOPE   H3S 2876   5.516   8.062   6.776 -0.0939 -0.6352 -0.4907
   23DOPE   C24 2877   5.619   7.944   6.620  0.2126 -0.4112  0.0724
   23DOPE   H4R 2878   5.598   8.029   6.552  1.3565  0.8147  1.1866
   23DOPE   H4S 2879   5.541   7.865   6.610 -2.5977  2.1968  0.0190
   23DOPE   C25 2880   5.757   7.884   6.565  0.2269 -0.9639 -0.5133
   23DOPE   H5R 2881   5.736   7.811   6.485 -1.3346 -0.6622 -0.3963
   23DOPE   H5S 2882   5.815   7.837   6.648 -0.0146 -2.3895 -1.1389
   23DOPE   C26 2883   5.847   7.994   6.516 -0.2571  0.1201  0.1569
   23DOPE   H6R 2884   5.871   8.061   6.601  0.5097 -0.6981  0.6096
   23DOPE   H6S 2885   5.788   8.061   6.450 -0.4143  2.1517  2.2565
   23DOPE   C27 2886   5.969   7.950   6.434 -0.0403  0.3871 -0.3362
   23DOPE   H7R 2887   5.940   7.875   6.356  0.4032 -0.9584  0.7484
   23DOPE   H7S 2888   6.036   7.905   6.510  0.5079  0.2852 -0.8668
   23DOPE   C28 2889   6.040   8.069   6.377  0.1568 -0.5700  0.1805
   23DOPE   H8R 2890   6.071   8.143   6.454  0.0376  1.2974 -1.4835
   23DOPE   H8S 2891   5.973   8.123   6.307  1.6457  0.6561 -0.3510
   23DOPE   C29 2892   6.160   8.024   6.300 -0.1805  0.1565 -0.1161
   23DOPE   H9R 2893   6.248   8.005   6.364  1.0729 -2.1891 -2.3523
   23DOPE  C210 2894   6.163   7.987   6.168  0.8367 -0.2925 -0.2431
   23DOPE  H10R 2895   6.264   7.966   6.128  0.5181  1.5927 -2.2075
   23DOPE  C211 2896   6.036   7.977   6.079  0.2291  0.1014 -0.1515
   23DOPE  H11R 2897   6.056   8.012   5.976 -1.1127 -0.1377 -0.5102
   23DOPE  H11S 2898   5.958   8.051   6.109 -0.8043 -0.8483 -0.4408
   23DOPE  C212 2899   5.999   7.830   6.062  0.1122 -0.3556  0.2365
   23DOPE  H12R 2900   5.961   7.792   6.159 -0.9285 -0.4775 -0.2007
   23DOPE  H12S 2901   6.091   7.778   6.028 -0.3800 -0.3878 -1.1455
   23DOPE  C213 2902   5.886   7.799   5.956 -0.5877 -0.0206 -0.2219
   23DOPE  H13R 2903   5.823   7.890   5.964  0.3805  0.6148  0.5373
   23DOPE  H13S 2904   5.826   7.712   5.992  0.0370  0.1243  1.2525
   23DOPE  C214 2905   5.941   7.765   5.813 -0.6508  0.0850 -0.4059
   23DOPE  H14R 2906   6.005   7.674   5.810  0.1538  0.5919  0.7438
   23DOPE  H14S 2907   6.011   7.844   5.778  0.2053  0.2948  1.6266
   23DOPE  C215 2908   5.826   7.744   5.716  0.3229  0.3435  0.3106
   23DOPE  H15R 2909   5.771   7.651   5.743 -0.8457  0.5519 -1.1729
   23DOPE  H15S 2910   5.867   7.720   5.615  1.8181 -0.5501  1.1002
   23DOPE  C216 2911   5.720   7.850   5.704  0.1877  0.7094  0.1870
   23DOPE  H16R 2912   5.760   7.953   5.691 -0.2426  0.8194 -0.3025
   23DOPE  H16S 2913   5.658   7.859   5.796  1.4261  1.9968  0.9396
   23DOPE  C217 2914   5.640   7.830   5.572  0.2371  0.6507 -0.3957
   23DOPE  H17R 2915   5.606   7.724   5.578  2.7445 -0.1884 -0.1141
   23DOPE  H17S 2916   5.708   7.842   5.486 -0.4015  0.3544 -0.9541
   23DOPE  C218 2917   5.514   7.913   5.549 -0.4741 -0.3362 -0.4492
   23DOPE  H18R 2918   5.547   8.016   5.572 -0.6633 -0.5372  0.7477
   23DOPE  H18S 2919   5.430   7.877   5.612 -0.4151  0.4602  0.0953
   23DOPE  H18T 2920   5.492   7.919   5.440  3.5974 -0.2854 -1.4161
   23DOPE   C33 2921   6.003   7.467   6.402 -0.3431  0.1566 -0.5630
   23DOPE   H3X 2922   5.914   7.400   6.393 -0.0423 -0.2003 -0.9239
   23DOPE   H3Y 2923   6.087   7.401   6.434 -1.3064 -0.8889 -0.0946
   23DOPE   C34 2924   6.014   7.522   6.258 -0.2321  0.4365  0.4433
   23DOPE   H4X 2925   5.928   7.585   6.225  0.8805  0.6756 -2.1982
   23DOPE   H4Y 2926   6.099   7.593   6.267  0.8352 -0.7012 -0.4238
   23DOPE   C35 2927   6.053   7.413   6.153  0.8389 -0.2330 -0.4579
   23DOPE   H5X 2928   5.978   7.333   6.170  0.5645  0.1527  0.1853
   23DOPE   H5Y 2929   6.152   7.365   6.169  0.6148 -2.6886 -4.8584
   23DOPE   C36 2930   6.040   7.458   6.010  0.4792  0.1201  0.8182
   23DOPE   H6X 2931   6.127   7.524   5.990  1.7797 -1.9072 -0.5775
   23DOPE   H6Y 2932   5.955   7.529   5.998  0.7029  0.1896 -0.5185
   23DOPE   C37 2933   6.052   7.353   5.908 -0.6735  0.2559  0.6687
   23DOPE   H7X 2934   6.147   7.296   5.910 -0.5144  0.5301  1.4887
   23DOPE   H7Y 2935   5.981   7.270   5.929  1.2460 -2.0833 -1.5876
   23DOPE   C38 2936   6.033   7.398   5.759 -1.0124 -0.0806 -0.6177
   23DOPE   H8X 2937   6.122   7.458   5.730 -0.8484 -0.1836 -0.3304
   23DOPE   H8Y 2938   5.945   7.463   5.741 -0.4275  0.4554 -1.6681
   23DOPE   C39 2939   6.016   7.277   5.674 -0.2309  0.5082  0.2916
   23DOPE   H9X 2940   5.991   7.189   5.735 -0.0728 -0.7687 -1.4213
   23DOPE  C310 2941   6.036   7.260   5.541  0.3537  0.1336  0.2261
   23DOPE  H10X 2942   5.998   7.170   5.491 -0.9226  1.2792 -0.9451
   23DOPE  C311 2943   6.086   7.365   5.448 -0.0842  0.0661 -0.0714
   23DOPE  H11X 2944   6.124   7.454   5.503 -1.0188  0.4948 -0.0921
   23DOPE  H11Y 2945   6.173   7.320   5.396  0.7646  1.3500  0.1877
   23DOPE  C312 2946   5.999   7.406   5.330 -0.4547 -0.0392  0.5450
   23DOPE  H12X 2947   5.961   7.331   5.257 -0.3873  1.1440 -0.7355
   23DOPE  H12Y 2948   6.056   7.475   5.265  2.4679 -2.5731  0.2079
   23DOPE  C313 2949   5.876   7.486   5.370 -0.1989 -0.1520 -0.1153
   23DOPE  H13X 2950   5.812   7.424   5.438  0.6823  0.9330  1.7954
   23DOPE  H13Y 2951   5.906   7.578   5.425  5.2098 -0.6794 -1.5365
   23DOPE  C314 2952   5.800   7.533   5.246 -0.2546  0.4899 -0.3444
   23DOPE  H14X 2953   5.761   7.440   5.200  1.1244  0.3214 -1.2404
   23DOPE  H14Y 2954   5.860   7.584   5.167 -0.9434  0.5455 -0.8351
   23DOPE  C315 2955   5.672   7.612   5.287 -0.5401  0.3236  0.5887
   23DOPE  H15X 2956   5.711   7.710   5.322 -1.1020  0.5490  0.5976
   23DOPE  H15Y 2957   5.612   7.562   5.365  1.8469 -1.7301  1.2230
   23DOPE  C316 2958   5.586   7.642   5.165 -0.7303 -0.0353 -0.1022
   23DOPE  H16X 2959   5.534   7.552   5.127 -0.9884 -0.4495  1.1778
   23DOPE  H16Y 2960   5.654   7.684   5.088  0.0614  0.9739  1.1131
   23DOPE  C317 2961   5.474   7.737   5.203  0.1045 -0.2698  0.7910
   23DOPE  H17X 2962   5.424   7.688   5.289 -0.4765 -0.6080  0.2643
   23DOPE  H17Y 2963   5.532   7.817   5.255  0.5018 -1.2149  1.8298
   23DOPE  C318 2964   5.381   7.777   5.097 -0.2256 -0.1142  0.3697
   23DOPE  H18X 2965   5.316   7.695   5.060 -0.5679  0.2903  0.0695
   23DOPE  H18Y 2966   5.309   7.859   5.117 -0.8617 -0.5844  0.0465
   23DOPE  H18Z 2967   5.432   7.808   5.003  0.9322 -2.0771  0.2802
   24DOPE     N 2968   0.405   7.476   6.553  0.1969  0.2821 -1.1195
   24DOPE   HN1 2969   0.358   7.385   6.572  0.8241 -0.2321 -2.0009
   24DOPE   HN2 2970   0.340   7.557   6.566  0.7475  0.8755 -1.9637
   24DOPE   HN3 2971   0.434   7.480   6.454  1.8201  1.4217 -0.6457
   24DOPE   C12 2972   0.515   7.497   6.654 -0.0031  0.0123  0.0943
   24DOPE  H12A 2973   0.569   7.591   6.629 -0.5246  0.7040  1.4775
   24DOPE  H12B 2974   0.572   7.403   6.634  0.7241  0.6741 -1.0573
   24DOPE   C11 2975   0.467   7.494   6.796  0.1582 -0.2476 -0.1575
   24DOPE  H11A 2976   0.553   7.480   6.865  0.4454  1.7202 -0.0482
   24DOPE  H11B 2977   0.395   7.410   6.808  1.7201 -1.6743 -0.4127
   24DOPE     P 2978   0.256   7.661   6.826 -0.1482 -0.3172 -0.0250
   24DOPE   O13 2979   0.248   7.802   6.859 -0.0263 -0.8215 -0.8172
   24DOPE   O14 2980   0.178   7.557   6.896 -0.2533 -1.0478  0.1163
   24DOPE   O11 2981   0.213   7.645   6.672  0.4557  0.4937 -0.6380
   24DOPE   O12 2982   0.408   7.621   6.823 -0.7639  0.9876 -0.0613
   24DOPE    C1 2983   0.077   7.674   6.641  0.3853  0.3108  0.0727
   24DOPE    HA 2984   0.075   7.748   6.558  2.2569 -0.4239 -0.6829
   24DOPE    HB 2985   0.014   7.709   6.725 -3.8833 -2.3139 -1.6588
   24DOPE    C2 2986   0.019   7.541   6.574  0.3839 -0.0868 -0.7828
   24DOPE    HS 2987   0.030   7.460   6.649  2.7550  1.6424  0.8681
   24DOPE   O21 2988   0.084   7.510   6.456 -0.8335 -0.0710  0.2419
   24DOPE   C21 2989   0.053   7.395   6.399  0.9808  0.2417  0.1982
   24DOPE   O22 2990   0.011   7.301   6.468 -0.6308 -0.4418  0.6795
   24DOPE   C22 2991   0.072   7.394   6.248  0.1396  0.0268  0.2214
   24DOPE   H2R 2992   0.181   7.391   6.226 -0.0685 -1.4549 -0.7909
   24DOPE   H2S 2993   0.027   7.492   6.219  0.5797  0.2404  0.2565
   24DOPE    C3 2994  -0.138   7.564   6.543  0.3408  0.5742  0.2972
   24DOPE    HX 2995  -0.185   7.598   6.637  1.4148 -1.0786  1.4950
   24DOPE    HY 2996  -0.186   7.469   6.510  2.2623 -0.7306  1.0211
   24DOPE   O31 2997  -0.151   7.669   6.450  0.6602 -0.1923 -0.1783
   24DOPE   C31 2998  -0.272   7.682   6.399 -0.2781 -0.0745 -0.1738
   24DOPE   O32 2999  -0.370   7.611   6.424  0.2322 -0.1237 -0.2825
   24DOPE   C32 3000  -0.283   7.802   6.311 -0.2773 -0.1922 -0.0270
   24DOPE   H2X 3001  -0.381   7.793   6.259 -0.0486 -0.4660 -0.4140
   24DOPE   H2Y 3002  -0.282   7.888   6.381 -3.1079 -1.4066  1.6467
   24DOPE   C23 3003   0.003   7.266   6.177 -0.1006 -0.7754 -0.6155
   24DOPE   H3R 3004  -0.106   7.267   6.197  0.2205  1.5414  1.5961
   24DOPE   H3S 3005   0.057   7.173   6.204 -0.0217 -0.4199  0.5179
   24DOPE   C24 3006   0.033   7.275   6.031 -0.2654  0.1531 -0.1680
   24DOPE   H4R 3007   0.138   7.299   6.006 -0.5570 -0.8841 -2.7274
   24DOPE   H4S 3008  -0.039   7.349   5.988 -2.1220  0.1471  2.6965
   24DOPE   C25 3009  -0.009   7.145   5.968  0.2697  0.0520 -0.3577
   24DOPE   H5R 3010  -0.118   7.127   5.961  0.3421 -0.0002 -1.5481
   24DOPE   H5S 3011   0.038   7.064   6.027  1.4648  0.6318 -0.4693
   24DOPE   C26 3012   0.022   7.136   5.816  0.2344  0.1648  0.4635
   24DOPE   H6R 3013   0.130   7.162   5.807  0.2043  0.8884  2.0168
   24DOPE   H6S 3014  -0.035   7.218   5.768  0.2032 -2.2629 -4.3094
   24DOPE   C27 3015  -0.005   6.998   5.745  0.4167  0.2408  0.3232
   24DOPE   H7R 3016  -0.109   6.960   5.752  0.3057  0.8079  2.5236
   24DOPE   H7S 3017   0.059   6.924   5.798  1.6274  1.0332  0.0141
   24DOPE   C28 3018   0.032   7.006   5.593  0.0924  0.3751 -0.5370
   24DOPE   H8R 3019  -0.006   7.100   5.548  1.5654  0.6782 -1.2002
   24DOPE   H8S 3020  -0.024   6.928   5.537  0.6034 -0.4417  0.0526
   24DOPE   C29 3021   0.179   6.993   5.568 -0.2604  0.5766  0.1957
   24DOPE   H9R 3022   0.236   7.081   5.534  0.8680  0.7571  2.3819
   24DOPE  C210 3023   0.242   6.874   5.547  0.8188 -0.8350 -0.0943
   24DOPE  H10R 3024   0.343   6.875   5.502  1.0779  0.2492  0.4789
   24DOPE  C211 3025   0.174   6.737   5.551 -0.1748  0.1745 -0.2815
   24DOPE  H11R 3026   0.083   6.743   5.614 -0.3928  0.8271 -0.6566
   24DOPE  H11S 3027   0.248   6.671   5.603 -0.0177  0.2032 -0.4675
   24DOPE  C212 3028   0.144   6.673   5.415 -0.1213  0.9215  0.2700
   24DOPE  H12R 3029   0.137   6.563   5.431 -3.1450  0.8910 -0.7003
   24DOPE  H12S 3030   0.232   6.682   5.348 -1.8474  0.9014 -2.1134
   24DOPE  C213 3031   0.020   6.717   5.332  0.0981 -0.6280  1.1208
   24DOPE  H13R 3032   0.019   6.826   5.310 -2.3760 -0.5687  1.1958
   24DOPE  H13S 3033  -0.074   6.712   5.392  0.3685  0.0667  1.6066
   24DOPE  C214 3034   0.015   6.641   5.193  0.2727 -0.3824 -0.2165
   24DOPE  H14R 3035   0.041   6.537   5.224 -2.0421 -0.4239  1.9260
   24DOPE  H14S 3036   0.097   6.681   5.130 -0.1046  1.3290  0.3326
   24DOPE  C215 3037  -0.121   6.638   5.132  0.0410  0.3474  0.4791
   24DOPE  H15R 3038  -0.161   6.740   5.119  0.4444  0.5684  0.9336
   24DOPE  H15S 3039  -0.190   6.595   5.207  0.6706 -2.4390 -0.3826
   24DOPE  C216 3040  -0.129   6.557   4.996 -0.2208  0.1547 -0.1868
   24DOPE  H16R 3041  -0.234   6.523   4.977 -0.0097 -0.2244 -0.6904
   24DOPE  H16S 3042  -0.068   6.464   5.004  1.0544  1.0952  1.6012
   24DOPE  C217 3043  -0.079   6.631   4.872  0.3791 -0.3735  0.4157
   24DOPE  H17R 3044  -0.014   6.559   4.818 -0.2361 -1.1039  0.6325
   24DOPE  H17S 3045  -0.026   6.720   4.911 -1.8447  0.4021  1.8573
   24DOPE  C218 3046  -0.193   6.679   4.777 -0.2354  0.0643 -0.3027
   24DOPE  H18R 3047  -0.162   6.760   4.708  0.0787 -0.4543 -0.7776
   24DOPE  H18S 3048  -0.267   6.726   4.845 -1.1532 -2.6291  0.7315
   24DOPE  H18T 3049  -0.247   6.597   4.725  1.1519 -1.6225  0.7987
   24DOPE   C33 3050  -0.161   7.811   6.209  0.4860 -0.0661 -0.0293
   24DOPE   H3X 3051  -0.063   7.827   6.259  0.0237  1.1875  0.5181
   24DOPE   H3Y 3052  -0.184   7.899   6.145  2.0401  0.6205  0.3149
   24DOPE   C34 3053  -0.161   7.685   6.122  0.7237 -0.2088  0.3630
   24DOPE   H4X 3054  -0.074   7.682   6.054  0.1155 -1.4854 -0.3919
   24DOPE   H4Y 3055  -0.161   7.596   6.188  0.0313  0.5201  1.3934
   24DOPE   C35 3056  -0.291   7.686   6.039 -1.0477  0.2186 -0.3908
   24DOPE   H5X 3057  -0.315   7.785   5.995 -1.8904  0.5093  0.6815
   24DOPE   H5Y 3058  -0.384   7.687   6.100 -0.9055 -0.0905 -0.1687
   24DOPE   C36 3059  -0.293   7.578   5.935  0.1431  0.2836 -0.2563
   24DOPE   H6X 3060  -0.388   7.577   5.879 -0.0366 -1.5158  0.0302
   24DOPE   H6Y 3061  -0.282   7.483   5.991  0.9594 -0.0202 -0.9037
   24DOPE   C37 3062  -0.182   7.573   5.835  0.5575  0.1334  0.0276
   24DOPE   H7X 3063  -0.080   7.594   5.873  0.8211  2.0993 -1.5774
   24DOPE   H7Y 3064  -0.175   7.470   5.794 -0.0185  0.4929 -1.0100
   24DOPE   C38 3065  -0.203   7.667   5.711 -0.1453 -0.2978 -0.4143
   24DOPE   H8X 3066  -0.308   7.660   5.675 -0.8147  2.6403  0.6842
   24DOPE   H8Y 3067  -0.127   7.640   5.634 -0.4377 -0.1057 -0.7711
   24DOPE   C39 3068  -0.174   7.808   5.752  0.9133  0.4242  0.1466
   24DOPE   H9X 3069  -0.109   7.814   5.841  0.7864 -2.0628  0.4679
   24DOPE  C310 3070  -0.226   7.916   5.691 -0.5610  1.2329  0.2882
   24DOPE  H10X 3071  -0.211   8.014   5.737  2.0205  0.9900  0.1103
   24DOPE  C311 3072  -0.318   7.918   5.571 -0.5852  0.2321 -0.3066
   24DOPE  H11X 3073  -0.277   7.858   5.488 -1.0712  1.4564 -1.4621
   24DOPE  H11Y 3074  -0.413   7.863   5.591  0.4114 -0.8825  1.7050
   24DOPE  C312 3075  -0.359   8.055   5.495  0.7696  0.4076  0.3182
   24DOPE  H12X 3076  -0.265   8.115   5.494  0.2234  1.3212  1.2188
   24DOPE  H12Y 3077  -0.441   8.105   5.551 -0.7212  0.4339 -1.8115
   24DOPE  C313 3078  -0.422   8.038   5.356  0.2217 -0.5854 -0.0901
   24DOPE  H13X 3079  -0.338   7.996   5.296  0.5398 -0.3711  0.2020
   24DOPE  H13Y 3080  -0.510   7.970   5.364  1.0286 -1.4749  1.7386
   24DOPE  C314 3081  -0.470   8.173   5.296 -0.0096  0.5670  0.3031
   24DOPE  H14X 3082  -0.387   8.244   5.315  0.5102  0.0366  0.0634
   24DOPE  H14Y 3083  -0.562   8.200   5.352  0.7308  0.5123  1.5832
   24DOPE  C315 3084  -0.495   8.158   5.147 -0.1511  0.7048  0.0531
   24DOPE  H15X 3085  -0.590   8.104   5.124  1.9179 -3.8144  1.0731
   24DOPE  H15Y 3086  -0.411   8.106   5.097 -2.1414 -2.6420 -0.0907
   24DOPE  C316 3087  -0.499   8.295   5.082 -0.1678  0.3849 -0.4028
   24DOPE  H16X 3088  -0.402   8.341   5.111  1.4871 -2.2430 -1.3819
   24DOPE  H16Y 3089  -0.584   8.349   5.129  0.5532  0.2920  1.0768
   24DOPE  C317 3090  -0.531   8.295   4.930  0.7028  0.1691 -0.0634
   24DOPE  H17X 3091  -0.620   8.230   4.917  0.3683  0.1568  1.9601
   24DOPE  H17Y 3092  -0.570   8.395   4.899 -0.0688  0.3383  1.3965
   24DOPE  C318 3093  -0.421   8.241   4.843  0.2839  0.0801 -0.6423
   24DOPE  H18X 3094  -0.384   8.150   4.896 -5.7106 -2.4899 -0.0150
   24DOPE  H18Y 3095  -0.453   8.215   4.740 -0.7205  0.9248 -0.5579
   24DOPE  H18Z 3096  -0.338   8.315   4.840  0.9643 -0.5752  0.6780
   25DOPE     N 3097   0.036   6.869   6.829 -0.0503 -0.1951  0.8610
   25DOPE   HN1 3098  -0.052   6.818   6.851 -0.9570  1.6085  1.5862
   25DOPE   HN2 3099   0.027   6.946   6.759 -2.3486 -0.1432  1.1235
   25DOPE   HN3 3100   0.095   6.806   6.771  0.0486  1.5341 -1.0577
   25DOPE   C12 3101   0.107   6.923   6.943 -0.4333  0.4070 -0.6028
   25DOPE  H12A 3102   0.120   6.832   7.006  0.5802 -0.0452 -1.4346
   25DOPE  H12B 3103   0.038   6.996   6.991 -0.2931  0.4494 -0.4635
   25DOPE   C11 3104   0.244   6.978   6.904 -0.2736 -0.2209  0.4008
   25DOPE  H11A 3105   0.300   6.895   6.857  0.7659  1.2693 -1.0959
   25DOPE  H11B 3106   0.305   7.004   6.993  1.6223 -1.2334 -0.5454
   25DOPE     P 3107   0.345   7.142   6.730  0.0767 -0.4416  0.1681
   25DOPE   O13 3108   0.456   7.168   6.826  0.3955  0.1315 -0.0596
   25DOPE   O14 3109   0.302   7.259   6.659  0.8447 -0.5430  0.1369
   25DOPE   O11 3110   0.376   7.019   6.644 -0.6889 -0.1235 -0.1457
   25DOPE   O12 3111   0.224   7.093   6.821  0.6550 -0.1216  0.1132
   25DOPE    C1 3112   0.477   7.028   6.535 -0.0536  0.5859  0.0991
   25DOPE    HA 3113   0.571   7.002   6.588 -0.7530 -1.0300  0.5966
   25DOPE    HB 3114   0.483   7.129   6.489  1.7893  0.7979  0.7071
   25DOPE    C2 3115   0.446   6.923   6.429 -0.1993  0.4886 -0.0239
   25DOPE    HS 3116   0.470   6.824   6.473 -0.1606 -0.6441 -2.4252
   25DOPE   O21 3117   0.538   6.942   6.319 -0.1910 -0.0276 -0.3368
   25DOPE   C21 3118   0.670   6.941   6.332 -0.2673 -0.0725  0.2210
   25DOPE   O22 3119   0.732   6.908   6.432 -0.0016 -0.9701 -0.4477
   25DOPE   C22 3120   0.743   6.975   6.198 -0.0569 -0.0390 -1.3708
   25DOPE   H2R 3121   0.752   7.086   6.202  1.8453 -0.2038  0.5438
   25DOPE   H2S 3122   0.678   6.936   6.117  0.7582 -3.1375 -0.6712
   25DOPE    C3 3123   0.295   6.930   6.378 -0.4155 -0.2526 -0.2049
   25DOPE    HX 3124   0.293   7.038   6.353  1.3472 -0.3630 -0.9555
   25DOPE    HY 3125   0.213   6.919   6.453 -1.8130 -0.9757 -1.7661
   25DOPE   O31 3126   0.263   6.860   6.255 -0.1450 -0.1713 -0.0099
   25DOPE   C31 3127   0.248   6.734   6.279  0.0113 -0.3227 -0.4072
   25DOPE   O32 3128   0.256   6.683   6.391  0.7520  0.2034  0.7392
   25DOPE   C32 3129   0.206   6.653   6.147  0.6010 -0.2402 -0.5444
   25DOPE   H2X 3130   0.247   6.550   6.150 -0.6386 -0.8926 -3.2729
   25DOPE   H2Y 3131   0.097   6.635   6.145  0.9230 -2.3312 -1.7181
   25DOPE   C23 3132   0.888   6.913   6.178  0.4809  0.7161  0.2063
   25DOPE   H3R 3133   0.895   6.816   6.230 -1.5033 -0.1254 -1.0021
   25DOPE   H3S 3134   0.974   6.970   6.221  1.8033 -0.4509 -0.7878
   25DOPE   C24 3135   0.915   6.891   6.027  0.3388 -0.0158 -1.0045
   25DOPE   H4R 3136   0.898   6.991   5.982  0.7704  0.5340  0.0288
   25DOPE   H4S 3137   0.833   6.824   5.992 -0.9186  0.2297  1.3016
   25DOPE   C25 3138   1.057   6.846   5.991  0.0894 -0.2866  0.5831
   25DOPE   H5R 3139   1.079   6.747   6.036  0.0153 -0.2424  0.7163
   25DOPE   H5S 3140   1.122   6.922   6.039  0.1060 -0.0248  0.1489
   25DOPE   C26 3141   1.082   6.845   5.848 -0.6890  0.5400  0.8915
   25DOPE   H6R 3142   1.054   6.941   5.800  1.7084  0.2541 -1.3068
   25DOPE   H6S 3143   1.016   6.765   5.806  0.5395  0.9509 -2.1043
   25DOPE   C27 3144   1.224   6.808   5.817  0.0781 -0.2489  1.0017
   25DOPE   H7R 3145   1.245   6.706   5.857 -2.4759 -1.5228 -0.6788
   25DOPE   H7S 3146   1.301   6.876   5.859  0.4914 -0.4070  0.5112
   25DOPE   C28 3147   1.255   6.818   5.667 -0.8291  0.1140  0.3088
   25DOPE   H8R 3148   1.366   6.811   5.666 -0.4849  1.8730  4.2034
   25DOPE   H8S 3149   1.236   6.923   5.635  1.1823  0.1070 -1.1130
   25DOPE   C29 3150   1.190   6.715   5.580  0.4029  0.2219 -0.1386
   25DOPE   H9R 3151   1.136   6.634   5.633 -0.4891  0.9338  0.0633
   25DOPE  C210 3152   1.198   6.704   5.450  0.0747  0.3709  0.3209
   25DOPE  H10R 3153   1.149   6.621   5.396  1.3265 -0.9644  1.1859
   25DOPE  C211 3154   1.276   6.787   5.356  0.7311 -0.0885  0.2494
   25DOPE  H11R 3155   1.367   6.727   5.334  0.3265 -1.3207  1.7858
   25DOPE  H11S 3156   1.301   6.884   5.405 -2.7069  2.6301 -2.7743
   25DOPE  C212 3157   1.201   6.828   5.222  0.7736 -0.1597 -0.1862
   25DOPE  H12R 3158   1.180   6.742   5.155 -1.3058  0.9303 -1.0327
   25DOPE  H12S 3159   1.278   6.886   5.166  2.2281 -1.5025  0.3543
   25DOPE  C213 3160   1.068   6.901   5.245  0.2025 -0.5243  0.4771
   25DOPE  H13R 3161   1.089   6.998   5.294 -0.0362  0.2416 -0.8830
   25DOPE  H13S 3162   1.005   6.841   5.315  1.7198 -1.1988  1.3054
   25DOPE  C214 3163   0.989   6.904   5.117 -0.6159  0.0175  0.8291
   25DOPE  H14R 3164   0.961   6.798   5.096  0.4231 -0.0573 -0.2265
   25DOPE  H14S 3165   1.065   6.933   5.042 -0.4747 -0.7037  0.6895
   25DOPE  C215 3166   0.867   6.989   5.131 -0.5121 -0.1228 -0.0458
   25DOPE  H15R 3167   0.883   7.099   5.122  1.1006 -0.4813 -2.3789
   25DOPE  H15S 3168   0.817   6.961   5.226 -0.6533 -0.3482 -0.1869
   25DOPE  C216 3169   0.772   6.977   5.013 -0.3298 -0.1659  0.1734
   25DOPE  H16R 3170   0.817   7.021   4.921 -0.1199 -0.8163 -0.0394
   25DOPE  H16S 3171   0.684   7.042   5.030 -0.3837 -0.1597 -0.1241
   25DOPE  C217 3172   0.719   6.841   4.985  0.5550 -0.1469 -0.3550
   25DOPE  H17R 3173   0.665   6.809   5.076 -0.2300  1.9202 -0.0431
   25DOPE  H17S 3174   0.804   6.774   4.958  1.3788  0.2943  1.0071
   25DOPE  C218 3175   0.602   6.837   4.877  0.0879 -0.4930 -1.1024
   25DOPE  H18R 3176   0.582   6.729   4.858  1.6128 -1.5010  2.1824
   25DOPE  H18S 3177   0.621   6.889   4.780  0.1493 -0.0738 -0.8664
   25DOPE  H18T 3178   0.512   6.876   4.928  1.1424 -0.5250  0.8718
   25DOPE   C33 3179   0.246   6.702   6.004  0.5316 -0.4486 -1.1473
   25DOPE   H3X 3180   0.217   6.809   6.003 -2.4995 -1.1874 -2.1520
   25DOPE   H3Y 3181   0.190   6.650   5.923  1.4208 -1.9883 -0.8130
   25DOPE   C34 3182   0.389   6.708   5.963  0.0736  0.2995 -0.2372
   25DOPE   H4X 3183   0.405   6.756   5.864  2.3166 -0.0653 -0.1070
   25DOPE   H4Y 3184   0.446   6.773   6.032  3.3872 -1.8599 -0.7315
   25DOPE   C35 3185   0.459   6.573   5.972 -0.8057  0.1002  0.8022
   25DOPE   H5X 3186   0.414   6.512   5.891  1.3114  0.1826 -0.4988
   25DOPE   H5Y 3187   0.443   6.526   6.072  0.5324 -0.5571  0.7283
   25DOPE   C36 3188   0.607   6.596   5.937  0.0553  0.2424  0.1475
   25DOPE   H6X 3189   0.654   6.643   6.026  0.4427 -0.0332  0.0932
   25DOPE   H6Y 3190   0.610   6.667   5.852  1.5663  0.4243  0.3307
   25DOPE   C37 3191   0.674   6.464   5.897 -0.1912 -0.1874 -0.9978
   25DOPE   H7X 3192   0.782   6.471   5.918 -0.5585  2.0591  0.5535
   25DOPE   H7Y 3193   0.631   6.386   5.964  2.5445 -1.0560 -0.1166
   25DOPE   C38 3194   0.642   6.423   5.751  0.1856  0.9744  0.3999
   25DOPE   H8X 3195   0.666   6.501   5.676 -2.8959  0.5123 -1.2234
   25DOPE   H8Y 3196   0.531   6.418   5.748  0.1176  1.1809  1.9781
   25DOPE   C39 3197   0.702   6.297   5.697 -0.3142 -0.6473 -0.0387
   25DOPE   H9X 3198   0.812   6.297   5.689  0.0144  3.1516  2.0062
   25DOPE  C310 3199   0.645   6.186   5.645  0.2095 -0.5928 -0.2652
   25DOPE  H10X 3200   0.710   6.102   5.617  0.4780 -0.2825 -0.5792
   25DOPE  C311 3201   0.500   6.154   5.629  0.4734 -0.2231  0.2708
   25DOPE  H11X 3202   0.481   6.075   5.705  0.3224  1.6540  2.2912
   25DOPE  H11Y 3203   0.444   6.249   5.645  1.1309  0.0195  1.2159
   25DOPE  C312 3204   0.449   6.103   5.492  0.0378  0.0766 -0.1867
   25DOPE  H12X 3205   0.500   6.005   5.474 -0.6011 -0.4922  1.0026
   25DOPE  H12Y 3206   0.471   6.179   5.415  1.5798 -0.4619 -0.3219
   25DOPE  C313 3207   0.305   6.064   5.493 -0.0281  0.2701 -0.3279
   25DOPE  H13X 3208   0.270   5.992   5.569  0.1533  0.2333 -0.2786
   25DOPE  H13Y 3209   0.242   6.154   5.508  0.3046  0.4451  0.0290
   25DOPE  C314 3210   0.253   6.002   5.365  0.1456 -0.1213 -0.1431
   25DOPE  H14X 3211   0.293   5.899   5.354 -0.4992 -0.2027 -2.1064
   25DOPE  H14Y 3212   0.269   6.061   5.272  3.7049  1.9626  1.6046
   25DOPE  C315 3213   0.093   5.992   5.367 -0.3430 -0.4403 -0.6960
   25DOPE  H15X 3214   0.067   5.956   5.265  0.0160 -1.4432 -0.4471
   25DOPE  H15Y 3215   0.050   6.092   5.390  0.3727 -0.7040  2.2077
   25DOPE  C316 3216   0.029   5.902   5.475 -0.1940 -0.9577 -0.0564
   25DOPE  H16X 3217   0.027   5.963   5.568  0.0908  0.0353 -0.6829
   25DOPE  H16Y 3218   0.107   5.823   5.487 -0.9943 -1.4262  2.8378
   25DOPE  C317 3219  -0.103   5.846   5.433 -0.0276  0.1065 -0.1433
   25DOPE  H17X 3220  -0.172   5.930   5.411 -0.5860 -0.6389 -1.3964
   25DOPE  H17Y 3221  -0.101   5.780   5.343 -1.3040 -0.8619  0.4890
   25DOPE  C318 3222  -0.168   5.761   5.551 -0.2922  0.2696  0.2611
   25DOPE  H18X 3223  -0.118   5.662   5.558 -1.5025 -0.5649 -1.9293
   25DOPE  H18Y 3224  -0.157   5.820   5.645  1.6762 -0.4828  0.5523
   25DOPE  H18Z 3225  -0.274   5.750   5.520  0.3578  1.3158 -2.5595
   26DOPE     N 3226   0.734   7.143   6.811  0.2223 -0.4722  0.1094
   26DOPE   HN1 3227   0.632   7.128   6.820 -0.3122  0.6607 -2.9019
   26DOPE   HN2 3228   0.745   7.199   6.724  0.8094 -0.0398  0.4464
   26DOPE   HN3 3229   0.780   7.050   6.806  0.3674 -0.4987  1.4253
   26DOPE   C12 3230   0.784   7.235   6.925 -0.0709 -0.4003  0.5191
   26DOPE  H12A 3231   0.771   7.179   7.020  1.7010 -0.6245  0.6675
   26DOPE  H12B 3232   0.738   7.337   6.919  1.5470  0.2798 -0.9543
   26DOPE   C11 3233   0.942   7.249   6.915 -0.2874 -0.9884  0.0602
   26DOPE  H11A 3234   0.993   7.311   6.991  0.0940  0.2752 -1.1855
   26DOPE  H11B 3235   0.968   7.314   6.829 -1.0126  0.7825  1.1325
   26DOPE     P 3236   1.145   7.100   6.912 -0.3531  0.0164  0.1175
   26DOPE   O13 3237   1.193   7.167   7.029 -0.0962  0.0628 -0.4138
   26DOPE   O14 3238   1.205   7.129   6.780  0.2469  0.6646  0.3930
   26DOPE   O11 3239   1.149   6.946   6.943  0.1211  0.0212 -0.3445
   26DOPE   O12 3240   0.993   7.121   6.906  0.4875 -0.0905  0.0866
   26DOPE    C1 3241   1.122   6.834   6.855  0.2906 -0.2805  0.5279
   26DOPE    HA 3242   1.024   6.851   6.805 -0.3125  0.2151  1.8465
   26DOPE    HB 3243   1.110   6.745   6.920 -1.4973  0.0310  0.6883
   26DOPE    C2 3244   1.232   6.810   6.759  0.1679 -0.5401  0.4067
   26DOPE    HS 3245   1.242   6.892   6.684  2.1352 -2.2522 -1.3454
   26DOPE   O21 3246   1.200   6.691   6.681  0.4943  0.2271  0.6833
   26DOPE   C21 3247   1.107   6.705   6.587 -0.0311 -0.1608  0.0118
   26DOPE   O22 3248   1.045   6.809   6.574 -0.4100 -0.1920 -0.2498
   26DOPE   C22 3249   1.092   6.577   6.504  0.3160 -0.1669  0.2380
   26DOPE   H2R 3250   0.988   6.542   6.516 -0.1707  1.2414  0.3220
   26DOPE   H2S 3251   1.153   6.496   6.550 -0.4924 -1.3200 -0.6524
   26DOPE    C3 3252   1.366   6.784   6.834  0.3924 -0.6794 -0.2840
   26DOPE    HX 3253   1.351   6.703   6.908 -0.9812 -0.3175 -0.1398
   26DOPE    HY 3254   1.383   6.880   6.888 -1.1550 -0.1863 -0.6200
   26DOPE   O31 3255   1.471   6.747   6.747 -0.1483 -0.0238  0.6042
   26DOPE   C31 3256   1.537   6.849   6.692  0.0384 -0.1067  0.4498
   26DOPE   O32 3257   1.503   6.970   6.698  0.4312  0.7629 -0.3763
   26DOPE   C32 3258   1.660   6.792   6.618 -0.0955 -0.0116  0.2603
   26DOPE   H2X 3259   1.731   6.766   6.699  0.6835  1.2129 -0.0069
   26DOPE   H2Y 3260   1.629   6.700   6.564  0.7701  0.2649 -0.7486
   26DOPE   C23 3261   1.114   6.598   6.352 -0.8012 -0.0561  0.0191
   26DOPE   H3R 3262   1.083   6.702   6.328  0.9525  0.4707 -0.1046
   26DOPE   H3S 3263   1.043   6.531   6.300 -0.7171 -0.0316 -0.1301
   26DOPE   C24 3264   1.264   6.587   6.310  0.7373 -0.4196  0.0245
   26DOPE   H4R 3265   1.275   6.604   6.201  1.2486 -0.3719  0.0787
   26DOPE   H4S 3266   1.301   6.486   6.338  1.7835 -0.3832 -1.1446
   26DOPE   C25 3267   1.361   6.691   6.373 -0.0189 -0.4508  0.4036
   26DOPE   H5R 3268   1.462   6.654   6.344 -0.6862 -0.0815 -2.7734
   26DOPE   H5S 3269   1.356   6.701   6.483  1.1237  2.5282  0.2496
   26DOPE   C26 3270   1.347   6.830   6.319  0.0873 -0.1610  0.2298
   26DOPE   H6R 3271   1.417   6.889   6.381  0.8205  0.2096 -0.9274
   26DOPE   H6S 3272   1.246   6.873   6.338 -0.3009 -0.4810 -1.0200
   26DOPE   C27 3273   1.378   6.849   6.172 -0.4973  0.5369  0.0453
   26DOPE   H7R 3274   1.353   6.954   6.144  0.8047  0.9114  0.2363
   26DOPE   H7S 3275   1.309   6.783   6.115  0.3791 -0.0399 -0.3578
   26DOPE   C28 3276   1.518   6.819   6.126 -0.1421  0.4724 -0.6539
   26DOPE   H8R 3277   1.532   6.800   6.018 -0.1582  0.8161 -0.7167
   26DOPE   H8S 3278   1.543   6.723   6.176 -2.3215  0.1496 -0.0652
   26DOPE   C29 3279   1.629   6.905   6.183 -0.5055 -0.2484 -0.6009
   26DOPE   H9R 3280   1.716   6.842   6.207 -0.2174 -0.7325 -2.6737
   26DOPE  C210 3281   1.648   7.039   6.182  0.5853 -0.1404  0.2027
   26DOPE  H10R 3282   1.727   7.084   6.244  0.3532  0.2483  0.2166
   26DOPE  C211 3283   1.553   7.141   6.119  0.6353 -0.9896 -0.3926
   26DOPE  H11R 3284   1.478   7.093   6.053  1.1222 -1.4676 -0.6041
   26DOPE  H11S 3285   1.612   7.203   6.048  0.9847 -0.6105  0.2211
   26DOPE  C212 3286   1.486   7.219   6.240  0.1327 -0.9608  0.2647
   26DOPE  H12R 3287   1.551   7.250   6.325 -1.1059  0.8673  0.6095
   26DOPE  H12S 3288   1.417   7.141   6.278  0.7951 -2.4137 -1.3581
   26DOPE  C213 3289   1.406   7.348   6.191  0.0731 -0.0061 -0.1009
   26DOPE  H13R 3290   1.471   7.438   6.204 -0.3729  0.3513 -0.2885
   26DOPE  H13S 3291   1.322   7.358   6.263  0.1444  0.5137 -0.0810
   26DOPE  C214 3292   1.332   7.346   6.057  0.1597 -0.3253  0.7229
   26DOPE  H14R 3293   1.241   7.284   6.070  0.2511 -1.0964 -1.8117
   26DOPE  H14S 3294   1.386   7.290   5.978 -1.7005 -0.0381 -0.8147
   26DOPE  C215 3295   1.301   7.489   6.010 -0.0324 -0.5280  0.6616
   26DOPE  H15R 3296   1.400   7.525   5.974 -0.3846  0.9794  1.1393
   26DOPE  H15S 3297   1.269   7.553   6.095  2.4920 -0.3566  1.5691
   26DOPE  C216 3298   1.200   7.486   5.899 -0.6976 -0.3964 -0.0287
   26DOPE  H16R 3299   1.243   7.420   5.821 -0.7498 -2.1406  1.3388
   26DOPE  H16S 3300   1.199   7.587   5.854  2.3909  0.1185  0.8259
   26DOPE  C217 3301   1.060   7.444   5.937 -0.0134 -0.1074 -1.1239
   26DOPE  H17R 3302   1.016   7.519   6.007 -1.1429 -1.7036 -0.0680
   26DOPE  H17S 3303   1.057   7.347   5.990 -1.3748  0.4512 -0.1031
   26DOPE  C218 3304   0.969   7.426   5.816  0.5539  0.2689  0.3472
   26DOPE  H18R 3305   0.866   7.392   5.841 -0.0417 -0.9405 -3.1882
   26DOPE  H18S 3306   1.014   7.358   5.740 -1.3382  0.5937 -1.1411
   26DOPE  H18T 3307   0.950   7.522   5.764 -1.6778  0.3318  1.1526
   26DOPE   C33 3308   1.725   6.890   6.515  0.6147  0.2363  0.0774
   26DOPE   H3X 3309   1.647   6.965   6.493 -0.7295 -0.6081  1.7909
   26DOPE   H3Y 3310   1.746   6.824   6.428  0.5838 -2.8032  2.2221
   26DOPE   C34 3311   1.857   6.957   6.566  0.5678 -0.0232  0.5150
   26DOPE   H4X 3312   1.829   7.017   6.656  1.7752 -0.4060  1.1628
   26DOPE   H4Y 3313   1.928   6.876   6.592 -0.9475 -1.6907 -0.2722
   26DOPE   C35 3314   1.929   7.044   6.458  0.4158 -0.1973 -0.3128
   26DOPE   H5X 3315   1.995   7.119   6.507 -0.1859  0.1436 -0.0100
   26DOPE   H5Y 3316   1.857   7.109   6.404  1.4109 -1.4772 -3.4189
   26DOPE   C36 3317   2.004   6.959   6.361  0.3936  0.1892 -0.3790
   26DOPE   H6X 3318   1.942   6.870   6.338 -1.5427  1.5036 -0.4501
   26DOPE   H6Y 3319   2.108   6.943   6.397  0.5952  0.3069 -0.8899
   26DOPE   C37 3320   2.030   7.029   6.225  0.0493  0.4560 -0.5795
   26DOPE   H7X 3321   1.931   7.069   6.191 -0.1156 -0.0224 -0.6699
   26DOPE   H7Y 3322   2.092   7.119   6.244 -1.5493  1.6723 -0.8166
   26DOPE   C38 3323   2.102   6.946   6.121 -0.4460 -0.5473  0.0288
   26DOPE   H8X 3324   2.034   6.858   6.112 -0.9179 -0.3898  1.7058
   26DOPE   H8Y 3325   2.192   6.907   6.172 -1.9759 -3.9395  0.4450
   26DOPE   C39 3326   2.119   7.024   5.994  0.3427  1.3606 -0.3336
   26DOPE   H9X 3327   2.176   7.117   6.005 -0.0740  1.6391 -0.5335
   26DOPE  C310 3328   2.092   6.978   5.868  0.3568 -0.3761  0.7630
   26DOPE  H10X 3329   2.096   7.049   5.784 -2.4025  0.8901  1.5802
   26DOPE  C311 3330   2.032   6.838   5.839 -0.3843 -0.3327 -0.5721
   26DOPE  H11X 3331   2.065   6.768   5.920 -1.1884  0.4610  0.4728
   26DOPE  H11Y 3332   1.921   6.834   5.840 -0.3790 -1.0151  0.9529
   26DOPE  C312 3333   2.089   6.776   5.704  0.4234 -0.1701 -0.1610
   26DOPE  H12X 3334   2.040   6.678   5.691 -0.5401  0.0732  1.3547
   26DOPE  H12Y 3335   2.198   6.767   5.723  0.2124 -1.7758  0.4206
   26DOPE  C313 3336   2.050   6.845   5.573  0.4342 -0.4838  0.5079
   26DOPE  H13X 3337   1.946   6.886   5.577  0.6784  0.3828 -1.1187
   26DOPE  H13Y 3338   2.117   6.933   5.563  1.8499 -1.5384  0.4007
   26DOPE  C314 3339   2.064   6.758   5.450  0.6208 -0.0416 -0.2292
   26DOPE  H14X 3340   1.987   6.680   5.438  1.1135 -0.2744 -2.2164
   26DOPE  H14Y 3341   2.157   6.697   5.460  0.0233 -1.1431 -1.1380
   26DOPE  C315 3342   2.067   6.833   5.316  0.0850 -0.5560  0.1805
   26DOPE  H15X 3343   2.168   6.879   5.314 -0.3668  0.5494  1.2733
   26DOPE  H15Y 3344   1.993   6.916   5.321  2.4602  1.6927 -0.1760
   26DOPE  C316 3345   2.042   6.749   5.188  0.1968  1.0363 -0.6633
   26DOPE  H16X 3346   1.956   6.683   5.212 -1.3889  1.7446 -3.8216
   26DOPE  H16Y 3347   2.122   6.677   5.161  0.9745  0.5334  2.5907
   26DOPE  C317 3348   2.007   6.839   5.073  0.4994 -0.2299  0.5749
   26DOPE  H17X 3349   1.927   6.911   5.100  0.7320  1.1865 -2.1809
   26DOPE  H17Y 3350   2.093   6.902   5.044  0.9845 -0.0604  2.2906
   26DOPE  C318 3351   1.954   6.752   4.964  0.1523  0.0756 -0.3632
   26DOPE  H18X 3352   1.919   6.810   4.876 -1.9453  1.1898  1.1349
   26DOPE  H18Y 3353   2.037   6.686   4.929  0.9305  0.3982  0.7957
   26DOPE  H18Z 3354   1.876   6.679   4.995  1.3316 -0.7272  0.8083
   27DOPE     N 3355   6.263   0.571   6.876  0.1887 -0.5146 -0.5622
   27DOPE   HN1 3356   6.355   0.534   6.907  0.2773  0.9465  1.0579
   27DOPE   HN2 3357   6.269   0.615   6.782 -0.9625  0.5584 -0.1647
   27DOPE   HN3 3358   6.231   0.639   6.947 -0.0229 -1.3382  0.1518
   27DOPE   C12 3359   6.161   0.464   6.862  0.2172 -0.2133 -0.5635
   27DOPE  H12A 3360   6.066   0.514   6.831 -0.0366 -0.7734 -0.7067
   27DOPE  H12B 3361   6.153   0.403   6.954  0.2596 -3.8108 -2.7603
   27DOPE   C11 3362   6.194   0.365   6.751 -0.1505  0.1045  0.5155
   27DOPE  H11A 3363   6.206   0.420   6.655 -1.9004 -0.0393  0.1737
   27DOPE  H11B 3364   6.102   0.307   6.728 -1.0454  1.5977  0.1716
   27DOPE     P 3365   6.332   0.142   6.728  0.0247  0.1053 -0.2230
   27DOPE   O13 3366   6.243   0.038   6.783 -0.2476  0.1067  0.2192
   27DOPE   O14 3367   6.478   0.110   6.738  0.0207  0.3444 -0.6145
   27DOPE   O11 3368   6.297   0.174   6.572  0.2202 -0.0514 -0.4601
   27DOPE   O12 3369   6.302   0.279   6.793 -0.9481  0.5687 -0.2526
   27DOPE    C1 3370   6.378   0.256   6.495 -0.8019 -0.2989  0.0774
   27DOPE    HA 3371   6.433   0.332   6.554 -1.7124  0.7537 -0.3808
   27DOPE    HB 3372   6.310   0.314   6.428  0.2046  1.4122  0.4699
   27DOPE    C2 3373   6.482   0.171   6.405 -0.3893  0.1431 -0.7205
   27DOPE    HS 3374   6.579   0.164   6.459 -0.5313 -0.0333 -0.4835
   27DOPE   O21 3375   6.497   0.240   6.285 -0.6450  0.3766  0.2570
   27DOPE   C21 3376   6.618   0.221   6.226  1.2319 -0.9006  0.0238
   27DOPE   O22 3377   6.710   0.173   6.284  0.0994  0.4035 -0.0618
   27DOPE   C22 3378   6.602   0.263   6.078 -0.1230 -0.3870 -0.0380
   27DOPE   H2R 3379   6.564   0.368   6.074 -2.3783 -1.1473 -0.0275
   27DOPE   H2S 3380   6.520   0.204   6.032  0.6449  0.1050 -2.1456
   27DOPE    C3 3381   6.435   0.027   6.375 -0.0977 -0.5344  0.6883
   27DOPE    HX 3382   6.329   0.047   6.350 -0.0417 -1.8057 -0.7178
   27DOPE    HY 3383   6.443  -0.022   6.475  1.6486 -1.5253  0.1186
   27DOPE   O31 3384   6.510  -0.047   6.280  0.0377  0.2122 -0.1672
   27DOPE   C31 3385   6.576  -0.154   6.323  0.0781 -0.2972  0.1613
   27DOPE   O32 3386   6.583  -0.186   6.441 -0.1764 -0.1581  0.1585
   27DOPE   C32 3387   6.639  -0.236   6.206 -0.7220 -0.1923 -0.8559
   27DOPE   H2X 3388   6.748  -0.230   6.229 -0.9721  3.8302 -0.1029
   27DOPE   H2Y 3389   6.610  -0.343   6.219 -0.5626 -0.0323  1.1787
   27DOPE   C23 3390   6.727   0.223   5.995 -0.6327  0.1353  0.6812
   27DOPE   H3R 3391   6.753   0.118   6.020 -2.0613 -0.6717 -1.0229
   27DOPE   H3S 3392   6.818   0.279   6.024  0.0434 -1.1123  1.0382
   27DOPE   C24 3393   6.708   0.226   5.843  0.3615 -0.1725  0.6261
   27DOPE   H4R 3394   6.682   0.326   5.803  1.1661 -0.5843 -0.9769
   27DOPE   H4S 3395   6.626   0.154   5.820 -3.2237  2.7890  2.9343
   27DOPE   C25 3396   6.832   0.187   5.768 -0.3966  0.1000  0.1837
   27DOPE   H5R 3397   6.875   0.092   5.806 -0.1465 -0.3790 -1.2512
   27DOPE   H5S 3398   6.907   0.268   5.784  0.7568 -0.9658  0.3114
   27DOPE   C26 3399   6.818   0.177   5.613 -0.2904  0.0477 -0.2164
   27DOPE   H6R 3400   6.867   0.267   5.571  0.1197 -1.1321 -2.4085
   27DOPE   H6S 3401   6.711   0.180   5.581 -0.1765 -0.2451 -0.6355
   27DOPE   C27 3402   6.894   0.056   5.549 -0.0009  0.1611 -0.0313
   27DOPE   H7R 3403   6.855  -0.043   5.581  0.1789  0.4411  1.1016
   27DOPE   H7S 3404   7.001   0.063   5.578  0.0406  1.3396 -0.4351
   27DOPE   C28 3405   6.861   0.038   5.396 -0.2930  1.1204  0.0057
   27DOPE   H8R 3406   6.753   0.012   5.386 -0.3903  2.1803 -2.1944
   27DOPE   H8S 3407   6.916  -0.054   5.364 -3.2639 -0.0279 -2.2780
   27DOPE   C29 3408   6.899   0.155   5.302 -0.5617 -0.1255 -0.1046
   27DOPE   H9R 3409   7.004   0.165   5.272  0.3800  0.3047  2.9179
   27DOPE  C210 3410   6.815   0.246   5.261  0.2254  0.7929 -0.2971
   27DOPE  H10R 3411   6.842   0.323   5.187 -0.3867  1.1672 -0.1385
   27DOPE  C211 3412   6.669   0.249   5.295 -0.6386  0.3771 -0.6186
   27DOPE  H11R 3413   6.652   0.301   5.392  0.5864 -1.3439  0.5775
   27DOPE  H11S 3414   6.632   0.145   5.296 -0.2958  0.2304 -1.7407
   27DOPE  C212 3415   6.595   0.331   5.185 -0.5909 -0.7181  0.3864
   27DOPE  H12R 3416   6.485   0.319   5.179 -0.4985 -2.0045  0.9744
   27DOPE  H12S 3417   6.637   0.285   5.093  0.1024 -1.2397  0.9530
   27DOPE  C213 3418   6.624   0.477   5.199 -0.5751  0.5805 -0.2191
   27DOPE  H13R 3419   6.600   0.524   5.101  0.5338  0.9754 -0.3182
   27DOPE  H13S 3420   6.731   0.497   5.220  0.2954 -2.5267 -1.1567
   27DOPE  C214 3421   6.531   0.536   5.302  0.1582  0.9070  0.5547
   27DOPE  H14R 3422   6.571   0.503   5.400  1.8280  0.8608 -0.1074
   27DOPE  H14S 3423   6.427   0.505   5.279  0.7716 -0.5244 -0.4596
   27DOPE  C215 3424   6.543   0.686   5.299  0.4532  0.4288 -0.3144
   27DOPE  H15R 3425   6.502   0.727   5.204  1.1475 -2.1607 -1.8264
   27DOPE  H15S 3426   6.651   0.711   5.295  0.5337  0.1781  0.1826
   27DOPE  C216 3427   6.482   0.748   5.422  0.6228 -0.1655 -0.6009
   27DOPE  H16R 3428   6.529   0.706   5.513 -1.5998 -1.4261  0.0499
   27DOPE  H16S 3429   6.373   0.729   5.435  0.4877  1.8151  1.7712
   27DOPE  C217 3430   6.479   0.898   5.434  0.0587  0.2721  0.0604
   27DOPE  H17R 3431   6.440   0.927   5.534 -0.0531 -1.7826  0.6526
   27DOPE  H17S 3432   6.414   0.949   5.359 -2.6335  1.1095  2.7719
   27DOPE  C218 3433   6.622   0.954   5.435 -0.0099 -0.5679  0.2114
   27DOPE  H18R 3434   6.616   1.065   5.444  1.0684 -0.1621 -2.9095
   27DOPE  H18S 3435   6.675   0.931   5.340 -0.9619  0.8475 -0.7047
   27DOPE  H18T 3436   6.678   0.916   5.524  2.3135  1.4666 -0.2675
   27DOPE   C33 3437   6.612  -0.173   6.072  0.2447 -0.0050 -0.5967
   27DOPE   H3X 3438   6.667  -0.076   6.074  1.2731 -0.5780  0.7289
   27DOPE   H3Y 3439   6.505  -0.148   6.061 -0.1544 -0.9578  0.8917
   27DOPE   C34 3440   6.653  -0.268   5.955  0.4781 -0.9506  0.4206
   27DOPE   H4X 3441   6.763  -0.287   5.963  0.5798 -1.0782 -1.1117
   27DOPE   H4Y 3442   6.594  -0.362   5.967 -0.1645 -0.4868  0.9551
   27DOPE   C35 3443   6.613  -0.210   5.817 -0.4803 -0.1428 -0.4960
   27DOPE   H5X 3444   6.625  -0.289   5.740 -0.7022  0.8298 -1.5597
   27DOPE   H5Y 3445   6.681  -0.126   5.791 -1.5669  0.4353 -1.5659
   27DOPE   C36 3446   6.471  -0.167   5.802 -0.1484  0.3231 -0.1382
   27DOPE   H6X 3447   6.457  -0.066   5.845  2.1647 -0.2239  2.1222
   27DOPE   H6Y 3448   6.398  -0.231   5.856 -2.4581 -0.0233 -3.3322
   27DOPE   C37 3449   6.426  -0.164   5.652  0.0282 -0.1213 -0.7408
   27DOPE   H7X 3450   6.405  -0.260   5.600 -1.3275 -1.0386  1.3647
   27DOPE   H7Y 3451   6.322  -0.132   5.676  1.0156  0.9943  2.5628
   27DOPE   C38 3452   6.513  -0.074   5.559 -0.2858 -0.2028  0.0339
   27DOPE   H8X 3453   6.612  -0.121   5.545  1.4350  3.6399 -2.3590
   27DOPE   H8Y 3454   6.540   0.020   5.611  1.8837 -1.1787  0.7708
   27DOPE   C39 3455   6.443  -0.055   5.424 -0.5169 -0.1743 -1.1330
   27DOPE   H9X 3456   6.450  -0.143   5.358  0.7343  0.4162 -1.8246
   27DOPE  C310 3457   6.381   0.059   5.386 -0.5452  0.4848 -0.8571
   27DOPE  H10X 3458   6.318   0.053   5.297 -0.4315 -1.8589 -0.8381
   27DOPE  C311 3459   6.374   0.181   5.468 -0.0402 -0.0483  0.0570
   27DOPE  H11X 3460   6.477   0.202   5.504  0.2483 -1.8131  0.3970
   27DOPE  H11Y 3461   6.352   0.263   5.396  1.5308  1.1928  0.9287
   27DOPE  C312 3462   6.281   0.183   5.593  0.0134  0.0289 -0.6900
   27DOPE  H12X 3463   6.277   0.084   5.643  1.7704 -0.2674 -1.0455
   27DOPE  H12Y 3464   6.184   0.204   5.543  0.4101 -1.4284 -2.1704
   27DOPE  C313 3465   6.323   0.287   5.702 -0.2571  0.0620 -0.4735
   27DOPE  H13X 3466   6.241   0.275   5.776 -0.7227 -1.3571 -1.1699
   27DOPE  H13Y 3467   6.427   0.272   5.740  0.8994  2.1799 -2.5393
   27DOPE  C314 3468   6.306   0.428   5.644  0.6923 -0.1203 -0.7239
   27DOPE  H14X 3469   6.206   0.463   5.679  1.1339 -0.0179  0.4982
   27DOPE  H14Y 3470   6.314   0.438   5.534  0.5386 -1.5840 -0.8814
   27DOPE  C315 3471   6.407   0.529   5.697  0.4489 -0.1306 -0.3373
   27DOPE  H15X 3472   6.385   0.628   5.651 -1.2940 -0.1590  0.3661
   27DOPE  H15Y 3473   6.507   0.499   5.659  0.5024  1.3803 -1.4661
   27DOPE  C316 3474   6.403   0.547   5.850  0.2051 -0.6228  0.6132
   27DOPE  H16X 3475   6.401   0.451   5.905 -0.4165 -0.1976  1.3536
   27DOPE  H16Y 3476   6.307   0.596   5.879  0.6395  1.2580 -0.9374
   27DOPE  C317 3477   6.525   0.632   5.901 -0.1871 -0.2080  0.1663
   27DOPE  H17X 3478   6.512   0.649   6.010  0.1998  0.0374  0.1768
   27DOPE  H17Y 3479   6.623   0.581   5.904 -0.7907 -1.3428  1.9803
   27DOPE  C318 3480   6.532   0.767   5.841 -0.6304 -0.1679  0.2709
   27DOPE  H18X 3481   6.440   0.827   5.856 -0.2448  0.2995  0.8033
   27DOPE  H18Y 3482   6.617   0.827   5.880  0.3617  0.7515 -2.9636
   27DOPE  H18Z 3483   6.564   0.767   5.734  0.7557  0.1140  0.6677
   28DOPE     N 3484   1.249   7.251   6.551  0.0618 -0.1606  0.7082
   28DOPE   HN1 3485   1.211   7.347   6.546  1.7689  0.5129 -0.7319
   28DOPE   HN2 3486   1.234   7.217   6.648 -0.1947  0.7769  1.0063
   28DOPE   HN3 3487   1.353   7.256   6.546  0.1404  2.1263  2.7748
   28DOPE   C12 3488   1.190   7.154   6.451  0.1933 -0.0022  0.2774
   28DOPE  H12A 3489   1.230   7.056   6.483 -1.6105 -0.7017  0.4967
   28DOPE  H12B 3490   1.238   7.187   6.356  0.9976  0.6976  0.9070
   28DOPE   C11 3491   1.035   7.152   6.458 -0.1796  1.0604 -0.2288
   28DOPE  H11A 3492   1.013   7.113   6.559 -0.7380 -0.4215 -0.8986
   28DOPE  H11B 3493   0.999   7.097   6.368  0.1183 -1.9310  1.3658
   28DOPE     P 3494   0.828   7.312   6.460 -0.2034 -0.4467 -0.0021
   28DOPE   O13 3495   0.826   7.452   6.510  0.0677  0.2070  0.0155
   28DOPE   O14 3496   0.766   7.215   6.544  0.4206 -0.0993 -0.0155
   28DOPE   O11 3497   0.760   7.304   6.313 -0.1269  0.6153 -0.0538
   28DOPE   O12 3498   0.980   7.284   6.435 -0.1188  0.2892 -0.1601
   28DOPE    C1 3499   0.815   7.394   6.212 -0.1429 -0.3549 -0.3366
   28DOPE    HA 3500   0.829   7.339   6.116  0.6989 -0.0374 -0.4076
   28DOPE    HB 3501   0.910   7.447   6.239 -1.5881  1.5250  1.3821
   28DOPE    C2 3502   0.713   7.508   6.175  0.2921 -0.0429  0.7549
   28DOPE    HS 3503   0.681   7.569   6.262  1.3236 -1.6808  2.3444
   28DOPE   O21 3504   0.608   7.449   6.103  0.6608  0.2006 -0.1489
   28DOPE   C21 3505   0.516   7.399   6.182 -0.6887  0.4419 -0.6291
   28DOPE   O22 3506   0.502   7.428   6.300 -0.4924 -0.2623 -0.1991
   28DOPE   C22 3507   0.428   7.308   6.092  0.1784  0.0368 -0.0040
   28DOPE   H2R 3508   0.405   7.366   6.000  2.9793 -0.0514 -0.8422
   28DOPE   H2S 3509   0.336   7.292   6.152  0.2726 -0.7436 -0.0657
   28DOPE    C3 3510   0.773   7.614   6.078  0.1190 -0.1084 -0.3210
   28DOPE    HX 3511   0.696   7.694   6.067  0.5275  0.2897 -0.3367
   28DOPE    HY 3512   0.788   7.561   5.981  1.6181  1.1694 -0.8279
   28DOPE   O31 3513   0.902   7.671   6.126  0.0437 -0.1470 -0.5661
   28DOPE   C31 3514   0.902   7.745   6.241  0.6569 -0.4805  0.0606
   28DOPE   O32 3515   0.800   7.784   6.295 -0.5077  0.2490  1.2063
   28DOPE   C32 3516   1.045   7.774   6.284 -0.3926 -0.1890  0.1652
   28DOPE   H2X 3517   1.043   7.818   6.386 -0.9917  1.4909 -0.5266
   28DOPE   H2Y 3518   1.103   7.680   6.291  0.0806  0.1884  1.7846
   28DOPE   C23 3519   0.491   7.174   6.065 -0.5529  0.5733  0.8576
   28DOPE   H3R 3520   0.475   7.115   6.158  0.8972 -0.6572  0.3498
   28DOPE   H3S 3521   0.597   7.187   6.035 -0.3287 -3.2130 -0.4596
   28DOPE   C24 3522   0.413   7.091   5.958 -1.2510 -0.2875 -0.2642
   28DOPE   H4R 3523   0.306   7.083   5.986 -1.1013 -0.1616  0.3741
   28DOPE   H4S 3524   0.460   6.990   5.954  0.4079  0.4831 -2.6720
   28DOPE   C25 3525   0.428   7.151   5.819 -0.0669  0.4031  0.0339
   28DOPE   H5R 3526   0.360   7.239   5.818 -1.5137 -0.6618 -0.4969
   28DOPE   H5S 3527   0.392   7.082   5.739 -0.0842  2.6088 -1.9688
   28DOPE   C26 3528   0.561   7.186   5.764  0.2824 -0.7496 -0.5278
   28DOPE   H6R 3529   0.580   7.279   5.823 -1.6541 -0.7113  0.1133
   28DOPE   H6S 3530   0.555   7.223   5.660 -2.9648  0.4254 -0.0495
   28DOPE   C27 3531   0.669   7.072   5.771  0.5056 -0.5827 -0.1685
   28DOPE   H7R 3532   0.666   7.031   5.874  0.4644 -0.9347 -0.3088
   28DOPE   H7S 3533   0.767   7.122   5.753 -0.5328  1.6665  0.1321
   28DOPE   C28 3534   0.650   6.962   5.668 -0.2151  0.0039  0.2812
   28DOPE   H8R 3535   0.641   7.015   5.570 -1.9313 -1.3922 -0.3735
   28DOPE   H8S 3536   0.551   6.915   5.684 -0.4677  1.0747  2.1256
   28DOPE   C29 3537   0.751   6.853   5.659  0.0317  0.7012  0.0564
   28DOPE   H9R 3538   0.812   6.838   5.749 -0.6619  1.8975  0.7618
   28DOPE  C210 3539   0.765   6.768   5.559 -0.1471  1.2502 -0.1362
   28DOPE  H10R 3540   0.828   6.678   5.553 -1.0797  0.6474 -1.3047
   28DOPE  C211 3541   0.689   6.765   5.430  0.5602  0.4383 -0.1683
   28DOPE  H11R 3542   0.757   6.745   5.344 -0.4522  0.1679 -0.9155
   28DOPE  H11S 3543   0.633   6.854   5.395  1.1710 -0.1945 -3.0013
   28DOPE  C212 3544   0.584   6.652   5.445  1.0213 -0.0217 -0.3641
   28DOPE  H12R 3545   0.530   6.690   5.534  0.8236  0.6772 -0.7724
   28DOPE  H12S 3546   0.644   6.561   5.469  0.8922 -0.3173 -1.1113
   28DOPE  C213 3547   0.495   6.647   5.329 -0.2956 -0.8427 -0.7893
   28DOPE  H13R 3548   0.562   6.667   5.243  1.7942 -1.3597  0.6032
   28DOPE  H13S 3549   0.422   6.730   5.323  1.1774  0.5906  0.2287
   28DOPE  C214 3550   0.443   6.506   5.298 -1.0071  0.0063  0.5015
   28DOPE  H14R 3551   0.377   6.465   5.377  0.0762 -1.1634  0.8451
   28DOPE  H14S 3552   0.534   6.441   5.303 -0.5636  0.4987 -0.7741
   28DOPE  C215 3553   0.385   6.501   5.153 -0.0538  0.3329 -0.5137
   28DOPE  H15R 3554   0.463   6.511   5.074  0.1139  0.8184 -0.2873
   28DOPE  H15S 3555   0.318   6.586   5.129  2.1589  1.4411 -3.4129
   28DOPE  C216 3556   0.307   6.371   5.117  0.0067  0.0313 -0.1604
   28DOPE  H16R 3557   0.214   6.388   5.175 -1.2529  2.7404 -2.6820
   28DOPE  H16S 3558   0.353   6.273   5.139  2.4669  1.3047  0.7640
   28DOPE  C217 3559   0.261   6.370   4.977 -0.3115 -0.3232  0.5138
   28DOPE  H17R 3560   0.346   6.376   4.905  0.4386 -2.5226  1.1564
   28DOPE  H17S 3561   0.200   6.462   4.961  1.3182  0.8543  0.8437
   28DOPE  C218 3562   0.190   6.245   4.936 -0.9894  0.1665  0.0802
   28DOPE  H18R 3563   0.250   6.154   4.956 -1.3179 -0.3986 -1.3974
   28DOPE  H18S 3564   0.156   6.250   4.831  0.7405  2.1692 -0.4440
   28DOPE  H18T 3565   0.094   6.241   4.993 -0.6311 -0.0453  0.6763
   28DOPE   C33 3566   1.112   7.877   6.196  0.3239  0.3220  0.2852
   28DOPE   H3X 3567   1.191   7.921   6.260  0.8024 -0.7747  0.4739
   28DOPE   H3Y 3568   1.037   7.956   6.174 -2.6198 -1.7207  2.2759
   28DOPE   C34 3569   1.170   7.815   6.071 -0.1174 -0.7429  0.4874
   28DOPE   H4X 3570   1.260   7.756   6.098 -0.2076 -0.7259  0.8284
   28DOPE   H4Y 3571   1.086   7.759   6.026  2.2768 -2.8269 -1.7073
   28DOPE   C35 3572   1.222   7.937   5.985 -0.2791  0.5585 -0.2124
   28DOPE   H5X 3573   1.312   7.985   6.028 -2.2545  2.6900  1.7588
   28DOPE   H5Y 3574   1.140   8.011   5.985 -0.4796  0.3414  0.4357
   28DOPE   C36 3575   1.265   7.897   5.840  0.5297  0.0784 -0.0783
   28DOPE   H6X 3576   1.193   7.815   5.818  0.2667  0.6887 -1.6564
   28DOPE   H6Y 3577   1.363   7.845   5.838  0.3689 -0.2321 -2.1010
   28DOPE   C37 3578   1.236   8.001   5.735 -0.1329 -0.0227  0.0042
   28DOPE   H7X 3579   1.137   8.045   5.759 -0.4791 -2.2269  3.0603
   28DOPE   H7Y 3580   1.316   8.079   5.740 -0.5569  0.3766  0.6290
   28DOPE   C38 3581   1.239   7.931   5.593 -0.6306  0.8184 -0.2112
   28DOPE   H8X 3582   1.326   7.862   5.596 -0.1178  1.4274 -0.7474
   28DOPE   H8Y 3583   1.251   8.017   5.524 -0.0422  1.1971  0.3451
   28DOPE   C39 3584   1.109   7.856   5.565  0.0525 -0.2325 -0.5454
   28DOPE   H9X 3585   1.021   7.883   5.625 -1.2234  1.0777 -2.8796
   28DOPE  C310 3586   1.092   7.749   5.484  0.2609 -0.2345 -0.5992
   28DOPE  H10X 3587   0.990   7.710   5.472 -0.6568  1.9704 -0.4774
   28DOPE  C311 3588   1.209   7.688   5.409  0.1568 -0.4219 -0.0487
   28DOPE  H11X 3589   1.307   7.739   5.421 -0.0771 -0.3722  2.2105
   28DOPE  H11Y 3590   1.213   7.585   5.451 -1.6491 -0.4463  0.1554
   28DOPE  C312 3591   1.159   7.690   5.262 -0.0287 -0.0437 -0.4258
   28DOPE  H12X 3592   1.055   7.652   5.261 -1.0075  2.3313  1.1249
   28DOPE  H12Y 3593   1.221   7.612   5.212  1.3168  1.2814 -0.8981
   28DOPE  C313 3594   1.174   7.830   5.203  0.5600  0.5240 -0.1169
   28DOPE  H13X 3595   1.164   7.907   5.281 -0.8117  0.2014  0.0562
   28DOPE  H13Y 3596   1.274   7.829   5.156  0.2555  0.5538 -0.7820
   28DOPE  C314 3597   1.087   7.858   5.078  0.2807 -0.1021 -0.4238
   28DOPE  H14X 3598   1.116   7.957   5.037 -0.4863  0.8357  1.1968
   28DOPE  H14Y 3599   0.977   7.867   5.095 -0.0044 -0.1296 -2.0786
   28DOPE  C315 3600   1.093   7.760   4.964  0.0897  0.3130  0.2938
   28DOPE  H15X 3601   1.029   7.672   4.987  0.8174 -0.3684 -0.2441
   28DOPE  H15Y 3602   1.193   7.712   4.951  1.1931  2.9830 -2.1195
   28DOPE  C316 3603   1.065   7.821   4.831 -0.4783  0.0014  0.1152
   28DOPE  H16X 3604   1.122   7.914   4.806 -0.6841  1.1302  3.3468
   28DOPE  H16Y 3605   0.956   7.839   4.828 -0.6038 -0.6089  0.8583
   28DOPE  C317 3606   1.080   7.714   4.721  0.3526 -0.1641 -0.6014
   28DOPE  H17X 3607   1.180   7.668   4.707  0.3726 -0.4904  0.5351
   28DOPE  H17Y 3608   1.008   7.635   4.751 -2.4027  2.6329  0.7208
   28DOPE  C318 3609   1.034   7.780   4.595 -0.3936  0.0394  0.1836
   28DOPE  H18X 3610   0.928   7.813   4.598 -0.2199  0.5821  0.4779
   28DOPE  H18Y 3611   1.106   7.862   4.575  1.5115 -0.7927  2.9470
   28DOPE  H18Z 3612   1.050   7.700   4.519 -0.3965  1.1941 -1.0528
   29DOPE     N 3613   0.445   0.469   6.869 -0.1264  0.6041 -0.0758
   29DOPE   HN1 3614   0.521   0.440   6.934  1.0217  0.9165 -1.2436
   29DOPE   HN2 3615   0.357   0.415   6.885 -1.0893  1.4965 -1.9768
   29DOPE   HN3 3616   0.474   0.442   6.773 -0.1797 -0.6440  0.2508
   29DOPE   C12 3617   0.421   0.612   6.886  0.0768 -0.5776  0.5943
   29DOPE  H12A 3618   0.325   0.631   6.834  1.8350  1.6118 -2.1878
   29DOPE  H12B 3619   0.505   0.665   6.836 -1.6453  0.4836 -1.3226
   29DOPE   C11 3620   0.407   0.651   7.029  0.9708  0.3052 -0.8478
   29DOPE  H11A 3621   0.438   0.756   7.048 -0.5893  0.3663  1.8209
   29DOPE  H11B 3622   0.475   0.595   7.098  0.8364  0.4817 -0.5704
   29DOPE     P 3623   0.153   0.735   7.053 -0.3525 -0.1491  0.0643
   29DOPE   O13 3624   0.083   0.735   7.182  0.1143 -0.1561 -0.2617
   29DOPE   O14 3625   0.082   0.709   6.933  0.4675  0.5854  0.5052
   29DOPE   O11 3626   0.228   0.874   7.037 -0.1926  0.0986 -0.4138
   29DOPE   O12 3627   0.269   0.626   7.071 -0.4177 -0.2843  0.3241
   29DOPE    C1 3628   0.173   0.983   6.969 -0.7563 -0.2930 -0.3767
   29DOPE    HA 3629   0.194   1.077   7.023 -3.2600  1.0405 -1.5597
   29DOPE    HB 3630   0.064   0.974   6.948 -1.0774 -0.6306  1.2997
   29DOPE    C2 3631   0.257   1.004   6.828 -0.2812  0.7460  0.0864
   29DOPE    HS 3632   0.208   1.092   6.782 -0.6014 -0.4933 -2.0875
   29DOPE   O21 3633   0.240   0.891   6.734  0.2224  0.2796  0.6515
   29DOPE   C21 3634   0.117   0.881   6.692 -0.5108 -0.1250 -0.5329
   29DOPE   O22 3635   0.019   0.950   6.712 -0.1471 -0.2389  0.6728
   29DOPE   C22 3636   0.122   0.753   6.603 -0.6196  0.3429  0.0742
   29DOPE   H2R 3637   0.179   0.674   6.658 -1.0300  0.4829  0.7108
   29DOPE   H2S 3638   0.188   0.778   6.517  1.9020  1.8504  2.2928
   29DOPE    C3 3639   0.401   1.028   6.871  0.2143  0.3007 -0.3029
   29DOPE    HX 3640   0.451   0.934   6.900  0.3729  0.5909  0.3785
   29DOPE    HY 3641   0.416   1.089   6.963  2.1425  1.5185 -1.3498
   29DOPE   O31 3642   0.468   1.096   6.761  0.0438  0.0032 -0.1031
   29DOPE   C31 3643   0.432   1.218   6.734 -0.3413  0.2474 -0.0849
   29DOPE   O32 3644   0.362   1.284   6.806  0.4488  0.0073  0.1925
   29DOPE   C32 3645   0.492   1.261   6.601 -0.1425  0.2132  0.5780
   29DOPE   H2X 3646   0.484   1.180   6.526  0.5719 -0.7097  1.4716
   29DOPE   H2Y 3647   0.428   1.350   6.582 -0.6512  0.1001  1.6476
   29DOPE   C23 3648  -0.019   0.700   6.566 -0.2617 -0.0197  0.1385
   29DOPE   H3R 3649  -0.066   0.771   6.496 -0.6953 -0.1410  0.3027
   29DOPE   H3S 3650  -0.081   0.695   6.658 -1.7745 -1.5399 -0.9072
   29DOPE   C24 3651  -0.015   0.557   6.514 -0.1333  0.1990 -0.3716
   29DOPE   H4R 3652  -0.115   0.523   6.479 -0.5607  1.6187 -0.5938
   29DOPE   H4S 3653   0.017   0.477   6.585  0.9080  0.0915 -0.9477
   29DOPE   C25 3654   0.075   0.540   6.389 -0.2881 -0.5716  0.5590
   29DOPE   H5R 3655   0.076   0.431   6.367  0.5181 -0.3499 -0.5777
   29DOPE   H5S 3656   0.184   0.551   6.406 -0.0493 -1.8841  0.0187
   29DOPE   C26 3657   0.037   0.630   6.270  0.2700 -0.0980  0.1953
   29DOPE   H6R 3658   0.058   0.738   6.284 -0.8224  0.1086  0.2934
   29DOPE   H6S 3659  -0.071   0.627   6.247  0.6952 -1.5741 -1.8247
   29DOPE   C27 3660   0.096   0.571   6.136  0.0810  0.5511 -0.9295
   29DOPE   H7R 3661   0.064   0.466   6.120  1.0942  0.2151 -0.8326
   29DOPE   H7S 3662   0.207   0.584   6.132  0.2597 -0.8430 -0.7376
   29DOPE   C28 3663   0.040   0.631   6.005  0.0648  0.3364 -0.8382
   29DOPE   H8R 3664  -0.071   0.622   6.014  0.0300  0.3878 -1.2040
   29DOPE   H8S 3665   0.076   0.556   5.932  0.1792 -0.8360  0.3946
   29DOPE   C29 3666   0.090   0.773   5.968 -0.5204  0.0310  1.1219
   29DOPE   H9R 3667   0.172   0.815   6.027 -0.4294  1.5175 -0.0109
   29DOPE  C210 3668   0.026   0.845   5.867  0.3014 -0.7587  0.3787
   29DOPE  H10R 3669   0.062   0.946   5.845  0.6903 -0.6193  1.5857
   29DOPE  C211 3670  -0.094   0.800   5.789 -0.3597 -0.1517 -0.9219
   29DOPE  H11R 3671  -0.172   0.850   5.850 -0.7832 -0.0382 -1.5432
   29DOPE  H11S 3672  -0.110   0.690   5.801  2.3671 -0.3273  3.2521
   29DOPE  C212 3673  -0.110   0.851   5.649  0.4598 -0.0058 -0.1817
   29DOPE  H12R 3674  -0.208   0.817   5.607 -0.6701  0.3905  2.0327
   29DOPE  H12S 3675  -0.032   0.798   5.589  0.0482  0.2600 -0.9716
   29DOPE  C213 3676  -0.104   0.997   5.634  0.1393 -0.4704  0.0990
   29DOPE  H13R 3677  -0.011   1.040   5.678 -0.1331 -1.5461  1.8180
   29DOPE  H13S 3678  -0.190   1.040   5.689 -0.0888  0.0770 -0.6699
   29DOPE  C214 3679  -0.098   1.059   5.498  0.1144  0.4011 -0.0323
   29DOPE  H14R 3680  -0.172   1.028   5.421 -1.6804 -0.5168  1.9876
   29DOPE  H14S 3681  -0.002   1.023   5.455 -0.0706 -1.6843  1.1811
   29DOPE  C215 3682  -0.108   1.213   5.502 -0.8407 -0.0771  0.7357
   29DOPE  H15R 3683  -0.041   1.260   5.578  0.7716  0.2248 -0.8019
   29DOPE  H15S 3684  -0.212   1.245   5.526 -1.2026  0.6989 -1.5937
   29DOPE  C216 3685  -0.068   1.287   5.365  0.0166 -0.2433  0.1610
   29DOPE  H16R 3686  -0.142   1.242   5.295  0.6156  0.3706 -0.9078
   29DOPE  H16S 3687   0.039   1.263   5.344 -0.0260 -0.0425 -0.3037
   29DOPE  C217 3688  -0.076   1.438   5.373  0.0203 -0.1205  0.2936
   29DOPE  H17R 3689   0.010   1.466   5.438 -1.4693 -0.4840  2.5542
   29DOPE  H17S 3690  -0.169   1.476   5.420  0.6513  1.0386  0.6646
   29DOPE  C218 3691  -0.054   1.521   5.239 -0.6682  0.5618  0.5317
   29DOPE  H18R 3692  -0.122   1.489   5.158 -0.8467  0.0679  0.8769
   29DOPE  H18S 3693   0.049   1.510   5.197 -0.7541  0.1534  0.4326
   29DOPE  H18T 3694  -0.066   1.631   5.254  0.7705  1.0372 -1.2991
   29DOPE   C33 3695   0.647   1.302   6.615  0.5155 -0.0898  0.5863
   29DOPE   H3X 3696   0.704   1.207   6.623  0.2068 -0.2660  0.7228
   29DOPE   H3Y 3697   0.672   1.371   6.698  1.6672  0.7689 -0.4303
   29DOPE   C34 3698   0.694   1.374   6.485  0.1304 -0.3780 -0.6586
   29DOPE   H4X 3699   0.692   1.297   6.405 -0.8825 -0.1185 -0.8948
   29DOPE   H4Y 3700   0.620   1.453   6.458  0.0489  0.2200  1.1386
   29DOPE   C35 3701   0.839   1.423   6.509 -0.0416 -0.7687 -0.0528
   29DOPE   H5X 3702   0.898   1.330   6.526  2.7007  0.7383 -0.7425
   29DOPE   H5Y 3703   0.829   1.498   6.590 -1.5247 -0.1759 -0.7488
   29DOPE   C36 3704   0.904   1.472   6.376 -0.0697  0.6188 -0.1091
   29DOPE   H6X 3705   0.911   1.391   6.300 -0.2278  0.7287 -0.2419
   29DOPE   H6Y 3706   1.009   1.499   6.399  1.1301 -1.9068 -2.1091
   29DOPE   C37 3707   0.834   1.595   6.311 -0.2289  0.1815  0.6820
   29DOPE   H7X 3708   0.733   1.569   6.273 -0.6219 -0.4298  2.0788
   29DOPE   H7Y 3709   0.806   1.671   6.387  0.4869  0.9580  0.1917
   29DOPE   C38 3710   0.912   1.647   6.184  0.3637  0.6116 -0.2952
   29DOPE   H8X 3711   0.919   1.568   6.107  0.9421  1.5076 -1.1844
   29DOPE   H8Y 3712   1.011   1.667   6.230  1.0609 -0.8690 -1.0777
   29DOPE   C39 3713   0.854   1.778   6.158  0.2721  0.0266 -0.5088
   29DOPE   H9X 3714   0.891   1.861   6.220  1.2242 -1.4059  0.9304
   29DOPE  C310 3715   0.764   1.806   6.064 -0.0352  0.1159  0.5641
   29DOPE  H10X 3716   0.716   1.904   6.061  0.4361  0.3376 -0.1663
   29DOPE  C311 3717   0.712   1.713   5.957 -0.9182  0.7536 -1.1176
   29DOPE  H11X 3718   0.779   1.625   5.941  1.8208  2.0071  2.2917
   29DOPE  H11Y 3719   0.617   1.666   5.990 -0.5423 -1.6178 -3.0480
   29DOPE  C312 3720   0.686   1.777   5.819 -0.4717  0.3939  0.2359
   29DOPE  H12X 3721   0.780   1.820   5.778 -0.1826 -0.5738 -0.1524
   29DOPE  H12Y 3722   0.626   1.868   5.835 -0.2089  0.4118  1.1988
   29DOPE  C313 3723   0.610   1.684   5.730 -0.4751 -0.3757  0.8697
   29DOPE  H13X 3724   0.670   1.591   5.715  0.3617  0.1182  1.1124
   29DOPE  H13Y 3725   0.512   1.661   5.777 -1.0730  2.1203  0.9728
   29DOPE  C314 3726   0.577   1.734   5.588  0.2962  0.2918  0.3551
   29DOPE  H14X 3727   0.677   1.764   5.550  1.0572  1.3538  2.9463
   29DOPE  H14Y 3728   0.515   1.826   5.589 -1.3329 -0.7562 -0.6174
   29DOPE  C315 3729   0.501   1.627   5.505  0.9100 -0.1396  0.5628
   29DOPE  H15X 3730   0.411   1.595   5.560  0.8827  1.1337  1.3147
   29DOPE  H15Y 3731   0.567   1.541   5.482  0.2323 -0.3511 -0.6629
   29DOPE  C316 3732   0.451   1.702   5.378  0.1370  0.0037  0.6803
   29DOPE  H16X 3733   0.536   1.715   5.309 -0.5248  1.3679  0.0951
   29DOPE  H16Y 3734   0.415   1.804   5.403 -0.9186  0.9673 -3.9073
   29DOPE  C317 3735   0.334   1.623   5.307 -0.0816  0.0768 -0.8534
   29DOPE  H17X 3736   0.357   1.517   5.330 -3.2215 -0.6499 -0.6044
   29DOPE  H17Y 3737   0.243   1.648   5.366  1.4146  1.1362  1.1102
   29DOPE  C318 3738   0.320   1.637   5.157  1.2347  0.2188  0.0881
   29DOPE  H18X 3739   0.345   1.736   5.113  0.9160 -0.3678 -1.4771
   29DOPE  H18Y 3740   0.372   1.566   5.089  0.6088  0.5481 -0.7539
   29DOPE  H18Z 3741   0.213   1.630   5.130  0.8796 -0.6807  1.6464
   30DOPE     N 3742   1.935   0.356   7.127 -0.2555  0.0357 -0.3213
   30DOPE   HN1 3743   1.895   0.442   7.085  0.6236  0.7396  0.2508
   30DOPE   HN2 3744   2.013   0.391   7.187  0.8509  1.8624 -2.6479
   30DOPE   HN3 3745   1.981   0.284   7.066  1.7725  0.3163  0.7761
   30DOPE   C12 3746   1.840   0.269   7.207 -0.2783 -0.0120 -0.0819
   30DOPE  H12A 3747   1.811   0.334   7.292  0.4422 -0.3872  0.4546
   30DOPE  H12B 3748   1.907   0.189   7.246  0.3065  0.8353  0.6939
   30DOPE   C11 3749   1.735   0.221   7.114  0.0529 -0.3098  0.0535
   30DOPE  H11A 3750   1.694   0.127   7.157  1.4591 -0.2714  1.5856
   30DOPE  H11B 3751   1.777   0.191   7.016 -0.0199  1.8832 -0.6919
   30DOPE     P 3752   1.513   0.296   7.000  0.0892  0.0019  0.0075
   30DOPE   O13 3753   1.445   0.422   6.998  0.2680 -0.1844  0.0111
   30DOPE   O14 3754   1.435   0.168   7.028  0.1536 -0.6659 -0.3384
   30DOPE   O11 3755   1.590   0.282   6.865  0.1526  0.2550 -0.0477
   30DOPE   O12 3756   1.640   0.317   7.097  0.4821 -0.0017 -0.0035
   30DOPE    C1 3757   1.638   0.406   6.809 -0.4548  0.6306 -0.4081
   30DOPE    HA 3758   1.714   0.445   6.880 -1.5684 -1.7803  2.3174
   30DOPE    HB 3759   1.554   0.476   6.788 -3.1410 -1.9352  1.0242
   30DOPE    C2 3760   1.707   0.393   6.671  0.2888  0.5379  0.3900
   30DOPE    HS 3761   1.711   0.496   6.628  3.0817  0.1572 -0.5224
   30DOPE   O21 3762   1.636   0.302   6.582  1.1008  0.0191  0.0085
   30DOPE   C21 3763   1.525   0.362   6.526 -0.3568  0.3536 -0.1053
   30DOPE   O22 3764   1.503   0.481   6.542  0.9815 -0.3703  0.7228
   30DOPE   C22 3765   1.429   0.265   6.465  0.2757  0.4948 -0.1045
   30DOPE   H2R 3766   1.328   0.311   6.463 -0.1503 -0.3652  0.8645
   30DOPE   H2S 3767   1.412   0.178   6.531  0.4392  1.8857  1.8666
   30DOPE    C3 3768   1.852   0.337   6.694  0.0566  0.1602  0.2716
   30DOPE    HX 3769   1.850   0.245   6.756 -3.1694  1.7953  2.8881
   30DOPE    HY 3770   1.905   0.418   6.749  0.5268  1.1632 -1.5874
   30DOPE   O31 3771   1.922   0.292   6.577  0.3014 -0.5873  0.2949
   30DOPE   C31 3772   1.956   0.389   6.498  0.6789 -0.1130 -0.0091
   30DOPE   O32 3773   1.955   0.511   6.525 -0.4073 -0.3136  0.0325
   30DOPE   C32 3774   1.988   0.325   6.366  0.2195 -0.0828  0.4501
   30DOPE   H2X 3775   2.092   0.287   6.376  1.5507  3.5821  2.2857
   30DOPE   H2Y 3776   1.917   0.240   6.349  2.6713 -2.2406  0.3454
   30DOPE   C23 3777   1.470   0.216   6.324 -0.1613 -0.0690 -0.2825
   30DOPE   H3R 3778   1.388   0.146   6.296  0.6667 -2.8519  3.4979
   30DOPE   H3S 3779   1.556   0.147   6.333 -0.3042 -0.2064  0.0851
   30DOPE   C24 3780   1.506   0.320   6.220  0.0588  0.2089  0.1781
   30DOPE   H4R 3781   1.575   0.391   6.270 -0.9292  0.7449  0.8143
   30DOPE   H4S 3782   1.418   0.378   6.184  0.5853  1.6957  1.1892
   30DOPE   C25 3783   1.576   0.261   6.096  0.4725  0.2770  0.0151
   30DOPE   H5R 3784   1.511   0.188   6.045  0.2662  0.3857  0.1228
   30DOPE   H5S 3785   1.656   0.203   6.149 -0.5743 -0.5697  0.7072
   30DOPE   C26 3786   1.623   0.373   6.005  0.6152 -0.0569 -0.3273
   30DOPE   H6R 3787   1.692   0.440   6.061 -0.0065  0.8801 -0.6640
   30DOPE   H6S 3788   1.544   0.443   5.969 -1.4064 -1.7723  0.5449
   30DOPE   C27 3789   1.700   0.319   5.886 -0.1425  0.2427  0.2288
   30DOPE   H7R 3790   1.628   0.246   5.844 -0.3376  0.4668  0.1743
   30DOPE   H7S 3791   1.781   0.262   5.937  0.2507 -0.0937 -0.7429
   30DOPE   C28 3792   1.735   0.431   5.786  0.0407  0.6373  0.8181
   30DOPE   H8R 3793   1.806   0.387   5.712 -0.0654  1.7903  0.0109
   30DOPE   H8S 3794   1.786   0.515   5.838 -0.1260  0.7954  0.7268
   30DOPE   C29 3795   1.625   0.495   5.699 -0.9641  0.1374  0.4383
   30DOPE   H9R 3796   1.553   0.544   5.766 -0.3646  3.9903 -1.4745
   30DOPE  C210 3797   1.608   0.487   5.563  0.1647 -0.8749 -0.1297
   30DOPE  H10R 3798   1.515   0.533   5.525  0.2666 -0.7852 -0.2694
   30DOPE  C211 3799   1.695   0.404   5.466 -0.3579 -0.0374 -0.4760
   30DOPE  H11R 3800   1.793   0.386   5.515  0.0783  0.5894 -1.0981
   30DOPE  H11S 3801   1.721   0.472   5.382 -0.9301  0.8528  0.0389
   30DOPE  C212 3802   1.641   0.270   5.416  0.0305 -0.3660  0.4510
   30DOPE  H12R 3803   1.713   0.223   5.346  0.4478 -1.1487  1.3741
   30DOPE  H12S 3804   1.545   0.292   5.365 -0.2157 -0.1786  0.9834
   30DOPE  C213 3805   1.618   0.157   5.520 -0.1685  0.4336 -0.1248
   30DOPE  H13R 3806   1.549   0.194   5.598 -1.0881 -0.8368 -0.3000
   30DOPE  H13S 3807   1.717   0.120   5.554  0.9102  1.1706 -2.2393
   30DOPE  C214 3808   1.552   0.024   5.454 -0.2019 -0.0869  0.2887
   30DOPE  H14R 3809   1.626  -0.028   5.390 -0.4423  3.1925 -2.9455
   30DOPE  H14S 3810   1.473   0.058   5.384  0.8706  2.2741  0.1284
   30DOPE  C215 3811   1.482  -0.066   5.563  0.1136  0.7911  0.1101
   30DOPE  H15R 3812   1.406  -0.007   5.618 -0.2473 -0.5754  1.1528
   30DOPE  H15S 3813   1.555  -0.094   5.642 -2.0090 -3.0357  0.9642
   30DOPE  C216 3814   1.434  -0.200   5.517  0.0435 -0.3156 -0.3619
   30DOPE  H16R 3815   1.436  -0.275   5.599 -1.5208  1.7181  1.6576
   30DOPE  H16S 3816   1.491  -0.230   5.427  0.1734  0.4855 -0.5580
   30DOPE  C217 3817   1.293  -0.198   5.469  0.2226  0.9022  0.2103
   30DOPE  H17R 3818   1.300  -0.139   5.375 -2.0509 -2.4668 -2.2827
   30DOPE  H17S 3819   1.223  -0.151   5.542 -0.3238  1.4777 -0.6667
   30DOPE  C218 3820   1.233  -0.339   5.456 -0.2409  0.4287  0.2527
   30DOPE  H18R 3821   1.292  -0.400   5.384 -2.0374 -0.1083 -0.8482
   30DOPE  H18S 3822   1.131  -0.331   5.412  0.2150  1.5459 -0.6741
   30DOPE  H18T 3823   1.226  -0.394   5.552  0.6655 -0.4564 -0.1675
   30DOPE   C33 3824   1.974   0.431   6.255 -0.6907  0.0496  0.2751
   30DOPE   H3X 3825   2.011   0.530   6.288  0.4150 -0.8655  1.9866
   30DOPE   H3Y 3826   1.867   0.446   6.228 -0.5385  0.2101 -0.2466
   30DOPE   C34 3827   2.047   0.391   6.123 -0.1349  0.3040  0.3154
   30DOPE   H4X 3828   2.132   0.326   6.154  0.1376  1.2574  1.6973
   30DOPE   H4Y 3829   1.990   0.321   6.059  0.9933  0.3194 -0.7528
   30DOPE   C35 3830   2.094   0.505   6.032  0.1416 -0.9058  0.2014
   30DOPE   H5X 3831   2.178   0.558   6.082  0.4237 -1.2456  0.0982
   30DOPE   H5Y 3832   2.004   0.569   6.032  0.8867  0.1676 -0.9617
   30DOPE   C36 3833   2.135   0.465   5.894 -0.8510  0.2981 -0.1879
   30DOPE   H6X 3834   2.067   0.416   5.821 -0.5767  0.9796 -0.9183
   30DOPE   H6Y 3835   2.215   0.390   5.906  0.0610  1.2673 -0.0755
   30DOPE   C37 3836   2.191   0.586   5.814  0.0142  0.1200  0.2514
   30DOPE   H7X 3837   2.277   0.636   5.863 -0.0576  0.1811  0.3166
   30DOPE   H7Y 3838   2.230   0.548   5.718 -1.3840 -1.8788  0.3982
   30DOPE   C38 3839   2.087   0.700   5.777 -0.0799  0.2406 -0.0587
   30DOPE   H8X 3840   2.041   0.751   5.864  0.1327  1.5996 -0.7299
   30DOPE   H8Y 3841   1.997   0.651   5.734  0.3750  1.3998 -2.5321
   30DOPE   C39 3842   2.133   0.797   5.674 -0.3057 -0.5655  0.6370
   30DOPE   H9X 3843   2.159   0.898   5.708 -3.4265  0.1650  1.1437
   30DOPE  C310 3844   2.131   0.768   5.542 -0.7399 -0.6292  0.6468
   30DOPE  H10X 3845   2.152   0.849   5.471 -1.8332  0.5706  1.6583
   30DOPE  C311 3846   2.088   0.634   5.489  0.0643 -0.3560  0.0293
   30DOPE  H11X 3847   2.181   0.577   5.469  1.4229  0.6490  3.0536
   30DOPE  H11Y 3848   2.029   0.570   5.558 -1.3065  1.1196  0.2910
   30DOPE  C312 3849   1.989   0.654   5.371 -0.6492 -0.1766  0.0333
   30DOPE  H12X 3850   1.912   0.725   5.406 -0.3188 -0.0951  0.6055
   30DOPE  H12Y 3851   1.939   0.557   5.349  0.0749 -0.6823  0.5816
   30DOPE  C313 3852   2.053   0.706   5.235  0.4847  0.3110 -0.2513
   30DOPE  H13X 3853   1.968   0.710   5.164  1.0535  2.6996 -0.8814
   30DOPE  H13Y 3854   2.071   0.816   5.238  1.4164  0.2827 -2.7835
   30DOPE  C314 3855   2.162   0.625   5.181  0.0035 -0.1655 -0.0973
   30DOPE  H14X 3856   2.129   0.519   5.191  2.6591 -0.9752  0.9137
   30DOPE  H14Y 3857   2.248   0.642   5.250  0.0551  3.1271 -0.8118
   30DOPE  C315 3858   2.182   0.642   5.027  0.0885 -0.5774  0.9239
   30DOPE  H15X 3859   2.200   0.747   4.994 -1.4301 -1.2047 -2.2168
   30DOPE  H15Y 3860   2.088   0.613   4.975  0.8253 -0.2071 -0.6681
   30DOPE  C316 3861   2.299   0.544   4.984  0.3179 -0.0071 -0.3488
   30DOPE  H16X 3862   2.274   0.442   5.022  0.4538  0.4192  0.9371
   30DOPE  H16Y 3863   2.384   0.583   5.044 -1.4716  0.8202  1.7848
   30DOPE  C317 3864   2.325   0.531   4.835  1.3305  0.3343 -0.2212
   30DOPE  H17X 3865   2.406   0.455   4.836  0.4530 -0.6739 -1.7196
   30DOPE  H17Y 3866   2.234   0.486   4.791  2.1318 -0.1228 -1.4612
   30DOPE  C318 3867   2.362   0.662   4.764 -0.7673 -0.0675  0.0980
   30DOPE  H18X 3868   2.403   0.650   4.662 -0.5813  1.7775 -0.0790
   30DOPE  H18Y 3869   2.271   0.725   4.755 -1.8583 -1.5476  0.2225
   30DOPE  H18Z 3870   2.436   0.722   4.821 -0.2108  0.0947 -0.7787
   31DOPE     N 3871   3.453   3.033   2.972 -0.0631 -0.5688 -0.3182
   31DOPE   HN1 3872   3.502   3.123   2.991  0.7271 -0.7161 -1.5604
   31DOPE   HN2 3873   3.496   2.967   3.039 -1.4873  1.3596  2.7675
   31DOPE   HN3 3874   3.454   3.008   2.871 -2.2606 -1.0704 -0.2642
   31DOPE   C12 3875   3.315   3.053   3.030  0.0440 -0.2910  0.4991
   31DOPE  H12A 3876   3.312   3.010   3.133  1.4663 -1.5375  0.0588
   31DOPE  H12B 3877   3.248   3.005   2.956  0.1207  2.7969 -1.7557
   31DOPE   C11 3878   3.286   3.204   3.024  0.1712  0.3312 -0.0762
   31DOPE  H11A 3879   3.183   3.217   3.063 -0.7211 -0.2853 -2.0914
   31DOPE  H11B 3880   3.274   3.239   2.919  0.5905  0.2598 -0.1468
   31DOPE     P 3881   3.487   3.371   3.040  0.2734  0.0264  0.2747
   31DOPE   O13 3882   3.432   3.501   3.002 -0.6039 -0.4362  0.8038
   31DOPE   O14 3883   3.568   3.290   2.947  0.2279  0.6193  0.2130
   31DOPE   O11 3884   3.577   3.404   3.165 -0.9115 -0.3663 -0.0537
   31DOPE   O12 3885   3.380   3.278   3.101  0.6636  0.3073  0.0285
   31DOPE    C1 3886   3.520   3.455   3.284  0.2750  0.0068  0.1334
   31DOPE    HA 3887   3.489   3.366   3.344  0.2519 -1.1040 -1.4770
   31DOPE    HB 3888   3.439   3.526   3.257  0.7424  0.8964  0.9912
   31DOPE    C2 3889   3.637   3.521   3.371  0.3769  0.0161  0.1589
   31DOPE    HS 3890   3.665   3.610   3.311  0.0253 -0.1566 -0.2613
   31DOPE   O21 3891   3.745   3.422   3.384  0.0372 -0.1141  0.5319
   31DOPE   C21 3892   3.870   3.473   3.395  0.3796  0.0033  0.3148
   31DOPE   O22 3893   3.899   3.592   3.391  0.2488  0.8273 -0.0713
   31DOPE   C22 3894   3.969   3.362   3.407  0.3471 -0.1580 -0.0728
   31DOPE   H2R 3895   4.071   3.406   3.412 -0.1794  1.1274 -0.0651
   31DOPE   H2S 3896   3.951   3.295   3.320 -0.3499 -2.6733  1.9202
   31DOPE    C3 3897   3.583   3.563   3.514  0.2422 -0.1203  0.0386
   31DOPE    HX 3898   3.543   3.462   3.539  0.5702 -0.7276 -1.7221
   31DOPE    HY 3899   3.506   3.640   3.493  0.5593  0.3414  0.5411
   31DOPE   O31 3900   3.685   3.607   3.608 -0.1195 -0.1960 -0.1854
   31DOPE   C31 3901   3.644   3.694   3.702  0.4064 -0.4261  0.4489
   31DOPE   O32 3902   3.527   3.728   3.717  0.0698 -0.6780 -0.1593
   31DOPE   C32 3903   3.759   3.762   3.775  0.1381 -0.0615 -0.5039
   31DOPE   H2X 3904   3.852   3.702   3.763  1.4382  1.9393 -0.9734
   31DOPE   H2Y 3905   3.780   3.862   3.731  0.4107 -0.3376 -1.0102
   31DOPE   C23 3906   3.937   3.290   3.545 -0.2104  0.0943  0.5672
   31DOPE   H3R 3907   4.010   3.207   3.533 -1.8610 -1.2469 -0.5714
   31DOPE   H3S 3908   3.838   3.241   3.553  0.1525 -1.0759 -1.4723
   31DOPE   C24 3909   3.967   3.373   3.668 -0.1000 -0.4976  0.1609
   31DOPE   H4R 3910   3.879   3.440   3.678  0.0027 -0.1450 -1.1075
   31DOPE   H4S 3911   4.060   3.435   3.662 -0.1233 -0.5667 -1.2154
   31DOPE   C25 3912   3.970   3.297   3.801  0.3490 -0.1356  0.1524
   31DOPE   H5R 3913   4.059   3.231   3.807  2.2569  1.7318 -3.8281
   31DOPE   H5S 3914   3.885   3.228   3.820  0.2855 -0.3829 -0.9353
   31DOPE   C26 3915   3.977   3.388   3.925 -0.1170  0.1415 -0.5166
   31DOPE   H6R 3916   3.885   3.450   3.924 -0.3992 -0.1364 -4.3029
   31DOPE   H6S 3917   4.062   3.455   3.898 -0.8209  1.1789 -0.2020
   31DOPE   C27 3918   3.999   3.314   4.060 -0.4701 -0.8280  0.3845
   31DOPE   H7R 3919   4.096   3.261   4.049  1.0183  1.9552 -0.7795
   31DOPE   H7S 3920   3.910   3.247   4.060 -0.7315 -0.5438  2.0656
   31DOPE   C28 3921   4.006   3.407   4.180 -0.1198 -0.0487 -0.0900
   31DOPE   H8R 3922   4.105   3.457   4.168 -0.0736  0.4531  2.0219
   31DOPE   H8S 3923   4.032   3.349   4.271 -0.7438 -0.4301 -0.1486
   31DOPE   C29 3924   3.893   3.501   4.207  0.3760  0.5128 -0.2124
   31DOPE   H9R 3925   3.873   3.580   4.134 -1.3366  2.5443  2.2809
   31DOPE  C210 3926   3.829   3.511   4.330  0.2410  0.6577 -0.3674
   31DOPE  H10R 3927   3.736   3.571   4.334 -0.0051  0.2179  1.0400
   31DOPE  C211 3928   3.853   3.424   4.453  0.5334 -0.0171 -0.2516
   31DOPE  H11R 3929   3.936   3.351   4.441 -0.6449 -1.2445 -1.3011
   31DOPE  H11S 3930   3.772   3.349   4.466 -1.5227  2.0524 -0.2527
   31DOPE  C212 3931   3.866   3.481   4.597  0.2073  0.2538 -0.9195
   31DOPE  H12R 3932   3.950   3.553   4.600 -0.0792  0.5713 -0.3009
   31DOPE  H12S 3933   3.895   3.404   4.672 -0.9076 -0.4618 -1.2010
   31DOPE  C213 3934   3.727   3.532   4.646  0.2462 -0.5166  0.1164
   31DOPE  H13R 3935   3.655   3.448   4.654  0.5845 -0.6352  2.4980
   31DOPE  H13S 3936   3.683   3.592   4.563  0.4076 -1.5080 -0.6970
   31DOPE  C214 3937   3.737   3.617   4.770 -0.3990 -0.0189  0.2449
   31DOPE  H14R 3938   3.802   3.705   4.757 -1.6163  0.7663 -0.7625
   31DOPE  H14S 3939   3.786   3.544   4.838  1.0445  0.2544 -0.4791
   31DOPE  C215 3940   3.608   3.677   4.825  0.9822  0.6446  0.6523
   31DOPE  H15R 3941   3.546   3.604   4.882  2.5435 -0.3580  1.1145
   31DOPE  H15S 3942   3.557   3.704   4.730  1.4823  0.0204  0.1959
   31DOPE  C216 3943   3.622   3.812   4.899  0.0452 -0.0026  0.1328
   31DOPE  H16R 3944   3.677   3.896   4.852 -0.6298  1.4454  1.8388
   31DOPE  H16S 3945   3.674   3.783   4.993 -0.8317 -0.9431  0.3531
   31DOPE  C217 3946   3.482   3.857   4.943 -1.1103 -0.2698 -0.4780
   31DOPE  H17R 3947   3.431   3.768   4.985  0.5347 -1.5176 -0.9922
   31DOPE  H17S 3948   3.421   3.880   4.853 -0.2712  1.0995 -0.7260
   31DOPE  C218 3949   3.472   3.977   5.044 -0.3239  0.1954  0.1723
   31DOPE  H18R 3950   3.540   4.057   5.008 -0.1339  0.2958  0.7403
   31DOPE  H18S 3951   3.492   3.954   5.151 -0.5089 -0.5223  0.0555
   31DOPE  H18T 3952   3.366   4.013   5.046 -0.5069 -0.0495 -2.5326
   31DOPE   C33 3953   3.729   3.795   3.925  0.9433 -0.9448  0.1895
   31DOPE   H3X 3954   3.714   3.697   3.974 -0.0324 -1.0969 -0.3867
   31DOPE   H3Y 3955   3.633   3.848   3.942  0.8686 -0.9620 -0.1627
   31DOPE   C34 3956   3.846   3.880   3.981  0.0740 -0.5755  0.2014
   31DOPE   H4X 3957   3.934   3.819   4.008  0.7322  0.3093  0.0904
   31DOPE   H4Y 3958   3.896   3.959   3.921 -1.3234  1.8099  1.9846
   31DOPE   C35 3959   3.799   3.966   4.104 -0.0566 -0.1884  0.6091
   31DOPE   H5X 3960   3.727   4.042   4.067  2.7421  1.4571 -1.9257
   31DOPE   H5Y 3961   3.875   4.041   4.131  0.2131 -0.4881  0.6895
   31DOPE   C36 3962   3.757   3.889   4.229 -0.2825  0.4229 -0.0703
   31DOPE   H6X 3963   3.850   3.858   4.280  0.4013  2.3797 -0.0492
   31DOPE   H6Y 3964   3.694   3.805   4.192  0.5338 -0.1700 -0.1472
   31DOPE   C37 3965   3.677   3.976   4.316 -0.1317 -0.5408 -0.0938
   31DOPE   H7X 3966   3.730   4.074   4.320  1.5172 -1.3447 -1.0948
   31DOPE   H7Y 3967   3.575   3.994   4.276 -0.8783 -3.3305  0.3661
   31DOPE   C38 3968   3.659   3.911   4.458 -0.1498  0.2932 -0.4159
   31DOPE   H8X 3969   3.759   3.880   4.496 -0.2403 -0.0740 -0.4698
   31DOPE   H8Y 3970   3.600   3.817   4.445 -0.5552  0.6915 -1.5760
   31DOPE   C39 3971   3.590   4.008   4.549 -0.7097 -0.2313 -0.9006
   31DOPE   H9X 3972   3.481   4.001   4.539 -0.8025 -1.6976  0.6684
   31DOPE  C310 3973   3.657   4.094   4.636  0.1395 -0.4666 -0.1571
   31DOPE  H10X 3974   3.597   4.141   4.715  0.9620 -0.0593  0.2351
   31DOPE  C311 3975   3.803   4.102   4.646  0.1189 -0.5811 -0.4042
   31DOPE  H11X 3976   3.839   4.072   4.747 -1.2396 -2.6198 -0.4686
   31DOPE  H11Y 3977   3.855   4.032   4.576 -0.3788  1.1344 -2.6243
   31DOPE  C312 3978   3.862   4.237   4.627 -0.2737 -0.2197 -0.0545
   31DOPE  H12X 3979   3.968   4.240   4.659  0.0986  2.2967 -1.2808
   31DOPE  H12Y 3980   3.815   4.297   4.708  0.3481  0.8741 -0.4800
   31DOPE  C313 3981   3.850   4.292   4.482  0.6494 -0.5631  0.0155
   31DOPE  H13X 3982   3.891   4.221   4.407  1.9985  0.6487 -0.4350
   31DOPE  H13Y 3983   3.742   4.300   4.456  0.6934 -1.3348 -0.4392
   31DOPE  C314 3984   3.914   4.427   4.464 -0.0711 -0.7200  0.3166
   31DOPE  H14X 3985   4.024   4.415   4.467 -0.1273 -1.0608  1.2801
   31DOPE  H14Y 3986   3.871   4.486   4.547  0.8135 -0.2469  0.4486
   31DOPE  C315 3987   3.879   4.496   4.327 -1.1653  0.2412 -0.5411
   31DOPE  H15X 3988   3.925   4.598   4.321  3.0374 -1.4457 -0.7045
   31DOPE  H15Y 3989   3.770   4.502   4.307 -0.8424  0.1525 -2.5747
   31DOPE  C316 3990   3.931   4.434   4.196 -0.3833 -0.0512  0.5160
   31DOPE  H16X 3991   3.882   4.336   4.177 -0.3517  0.2773 -1.4544
   31DOPE  H16Y 3992   4.040   4.411   4.199 -0.8376 -2.6616 -0.1186
   31DOPE  C317 3993   3.901   4.525   4.075  0.1759 -0.2788 -0.0527
   31DOPE  H17X 3994   3.793   4.551   4.071  0.2526 -0.0468 -3.1252
   31DOPE  H17Y 3995   3.956   4.619   4.100  1.3274 -1.2603  1.2445
   31DOPE  C318 3996   3.943   4.457   3.943  0.8522 -0.0847 -0.7992
   31DOPE  H18X 3997   3.950   4.535   3.864 -3.6220  0.6257 -0.7648
   31DOPE  H18Y 3998   4.039   4.403   3.957  0.9666 -0.0862 -1.5447
   31DOPE  H18Z 3999   3.872   4.375   3.921  0.9272 -0.4815  0.3630
   32DOPE     N 4000   6.115   4.262   2.546 -0.3411  0.0970 -0.0172
   32DOPE   HN1 4001   6.082   4.257   2.644  1.3168  1.8149  0.6796
   32DOPE   HN2 4002   6.218   4.275   2.547 -0.6077  3.0004 -0.5264
   32DOPE   HN3 4003   6.059   4.343   2.510 -1.5608 -0.4796  0.5170
   32DOPE   C12 4004   6.093   4.141   2.470  0.3930  0.8155  0.2731
   32DOPE  H12A 4005   6.152   4.135   2.377 -1.8747  1.8675 -1.3295
   32DOPE  H12B 4006   5.987   4.148   2.438  0.1947  1.1091  0.9756
   32DOPE   C11 4007   6.119   4.012   2.549  0.8089 -0.4103  0.3090
   32DOPE  H11A 4008   6.099   3.925   2.483 -0.4219 -0.7419  1.0754
   32DOPE  H11B 4009   6.062   4.005   2.644  2.7999 -1.3502  1.4946
   32DOPE     P 4010   6.323   3.873   2.641  0.0416  0.2777 -0.4586
   32DOPE   O13 4011   6.385   3.898   2.767  0.1886 -0.0099  0.4522
   32DOPE   O14 4012   6.410   3.808   2.538 -0.4436  0.5883 -0.1777
   32DOPE   O11 4013   6.195   3.784   2.651  0.2432  0.4476 -0.5286
   32DOPE   O12 4014   6.254   4.008   2.589 -0.1266 -0.2086 -0.4146
   32DOPE    C1 4015   6.194   3.640   2.668 -0.0461  0.6617 -0.1840
   32DOPE    HA 4016   6.294   3.602   2.696 -0.0602  0.3939 -0.4928
   32DOPE    HB 4017   6.172   3.592   2.571 -0.6614  0.9309 -0.1844
   32DOPE    C2 4018   6.093   3.584   2.779  0.1867 -0.2643 -0.2787
   32DOPE    HS 4019   5.988   3.612   2.753 -0.7890 -1.7401  1.7832
   32DOPE   O21 4020   6.141   3.638   2.906  0.0186  0.5890  0.4613
   32DOPE   C21 4021   6.087   3.748   2.937  0.0493 -0.5050  0.4235
   32DOPE   O22 4022   5.980   3.794   2.904  0.2444 -0.0535 -1.0464
   32DOPE   C22 4023   6.187   3.816   3.032  0.1996  0.2269 -0.3116
   32DOPE   H2R 4024   6.212   3.912   2.983 -1.7731  0.4973 -0.8318
   32DOPE   H2S 4025   6.287   3.766   3.031  1.1764  1.9483  1.6526
   32DOPE    C3 4026   6.097   3.431   2.793 -0.4876 -0.2926 -0.5065
   32DOPE    HX 4027   6.199   3.406   2.828  1.3229  2.3130 -3.3983
   32DOPE    HY 4028   6.072   3.406   2.687 -0.4202  2.3425 -1.2333
   32DOPE   O31 4029   5.989   3.386   2.878  0.0867 -0.8538 -0.0183
   32DOPE   C31 4030   5.997   3.254   2.922  0.0641  0.1870  0.3885
   32DOPE   O32 4031   6.091   3.183   2.889 -0.4343  0.3228 -0.2845
   32DOPE   C32 4032   5.879   3.232   3.013  0.4979  0.3199 -0.1664
   32DOPE   H2X 4033   5.926   3.185   3.103 -0.1095 -2.2983 -1.1138
   32DOPE   H2Y 4034   5.825   3.327   3.033  0.2745  0.4722 -1.4310
   32DOPE   C23 4035   6.143   3.831   3.181  0.2157 -0.1963 -0.5305
   32DOPE   H3R 4036   6.087   3.737   3.204 -0.5699 -0.1423 -2.1008
   32DOPE   H3S 4037   6.078   3.921   3.187  0.5800  0.0337  0.1337
   32DOPE   C24 4038   6.266   3.844   3.281  0.3128 -0.1600  0.1162
   32DOPE   H4R 4039   6.337   3.917   3.238 -1.4759  0.0822 -2.6650
   32DOPE   H4S 4040   6.327   3.752   3.295  1.1489  0.3702  0.0345
   32DOPE   C25 4041   6.211   3.896   3.410  0.6545  0.8085  0.3561
   32DOPE   H5R 4042   6.111   3.853   3.430  0.7253  0.3333 -0.2575
   32DOPE   H5S 4043   6.210   4.006   3.397 -0.4524  0.9563  1.4955
   32DOPE   C26 4044   6.297   3.867   3.533  0.3122 -0.3228 -0.2008
   32DOPE   H6R 4045   6.393   3.923   3.521 -0.7917  1.6317 -0.3784
   32DOPE   H6S 4046   6.310   3.757   3.526 -2.9243 -0.8554  0.5986
   32DOPE   C27 4047   6.242   3.896   3.673 -0.2304  0.8511  0.3768
   32DOPE   H7R 4048   6.158   3.824   3.685  0.1436  0.6837  2.2673
   32DOPE   H7S 4049   6.200   3.998   3.678 -0.5058  0.8473 -1.1586
   32DOPE   C28 4050   6.334   3.867   3.792  0.0947  0.1463  0.2805
   32DOPE   H8R 4051   6.382   3.771   3.762 -1.6803 -1.3890  2.0436
   32DOPE   H8S 4052   6.279   3.853   3.887  0.1829 -2.3908  0.0240
   32DOPE   C29 4053   6.446   3.960   3.812 -0.4593  0.0826  0.8775
   32DOPE   H9R 4054   6.493   4.011   3.726 -1.7501 -1.1613 -0.6426
   32DOPE  C210 4055   6.502   3.991   3.930 -0.2191  0.6759 -0.5775
   32DOPE  H10R 4056   6.585   4.062   3.935  0.3444  0.0512 -0.9485
   32DOPE  C211 4057   6.457   3.937   4.067  0.1086  0.0867 -0.1320
   32DOPE  H11R 4058   6.397   3.844   4.070  0.6887 -0.2761  0.4391
   32DOPE  H11S 4059   6.392   4.018   4.107 -1.0580  0.7248 -3.0575
   32DOPE  C212 4060   6.558   3.921   4.182 -0.7316  0.3883  0.4360
   32DOPE  H12R 4061   6.622   3.832   4.160 -1.9769 -0.6214  0.7888
   32DOPE  H12S 4062   6.502   3.892   4.273 -0.8383  0.4694  0.3956
   32DOPE  C213 4063   6.641   4.045   4.210  1.1099 -0.5405  0.0529
   32DOPE  H13R 4064   6.650   4.046   4.321 -1.9031 -2.0468  0.4209
   32DOPE  H13S 4065   6.583   4.128   4.166  1.5810 -0.9745 -1.4588
   32DOPE  C214 4066   6.777   4.028   4.143  0.8550  0.7850 -0.0915
   32DOPE  H14R 4067   6.761   4.039   4.034 -0.4079 -0.9781 -0.1412
   32DOPE  H14S 4068   6.826   3.930   4.166 -0.5938  0.0240 -0.1057
   32DOPE  C215 4069   6.878   4.144   4.178  0.5993 -0.5006  0.5219
   32DOPE  H15R 4070   6.898   4.133   4.287 -2.8787 -1.6567  1.1918
   32DOPE  H15S 4071   6.823   4.241   4.172  1.1668 -0.1019  1.5462
   32DOPE  C216 4072   7.003   4.148   4.096 -1.0825  0.5692 -0.5127
   32DOPE  H16R 4073   6.970   4.130   3.991  0.7274 -1.9442 -0.7363
   32DOPE  H16S 4074   7.070   4.062   4.117 -1.5961 -0.6558 -3.3372
   32DOPE  C217 4075   7.072   4.282   4.099 -0.8719 -0.3728 -0.4807
   32DOPE  H17R 4076   6.995   4.360   4.080 -0.9942 -0.7570 -1.6130
   32DOPE  H17S 4077   7.149   4.289   4.020  1.7257  1.4056  1.9876
   32DOPE  C218 4078   7.139   4.308   4.234  0.0501  0.1117  0.7896
   32DOPE  H18R 4079   7.210   4.393   4.246 -0.1794  0.1041  2.3687
   32DOPE  H18S 4080   7.199   4.216   4.252 -1.4982 -1.6314 -2.2506
   32DOPE  H18T 4081   7.058   4.317   4.309 -0.5849 -0.5780  0.1933
   32DOPE   C33 4082   5.785   3.120   2.942 -0.0366  0.3062 -0.3782
   32DOPE   H3X 4083   5.850   3.030   2.928  1.8777  1.7506 -1.2796
   32DOPE   H3Y 4084   5.747   3.156   2.844 -1.2134 -0.3883 -0.1943
   32DOPE   C34 4085   5.665   3.091   3.030  1.0921  0.2527  0.4758
   32DOPE   H4X 4086   5.610   3.187   3.017  0.7546 -0.0696 -0.5263
   32DOPE   H4Y 4087   5.604   3.015   2.977  3.2567  0.5177 -2.6350
   32DOPE   C35 4088   5.692   3.069   3.178  0.3868  0.2986  0.5135
   32DOPE   H5X 4089   5.739   3.163   3.213  0.0328  1.3259 -1.6215
   32DOPE   H5Y 4090   5.765   2.987   3.194  0.9921  0.8776  0.7505
   32DOPE   C36 4091   5.562   3.038   3.258 -0.0201  0.0983 -0.2063
   32DOPE   H6X 4092   5.595   3.023   3.363 -1.2974 -1.8646 -0.0483
   32DOPE   H6Y 4093   5.519   2.942   3.223 -1.3362  0.9621 -1.0300
   32DOPE   C37 4094   5.455   3.156   3.257 -0.7723  0.1599 -0.1983
   32DOPE   H7X 4095   5.501   3.256   3.273 -0.1774 -0.5255  3.4722
   32DOPE   H7Y 4096   5.399   3.138   3.163 -0.4143 -1.5606 -0.1092
   32DOPE   C38 4097   5.357   3.130   3.381  0.0752  0.0565 -0.0583
   32DOPE   H8X 4098   5.288   3.216   3.392  2.1220  1.9872 -1.4182
   32DOPE   H8Y 4099   5.417   3.109   3.472  0.1770 -1.9740 -0.5391
   32DOPE   C39 4100   5.275   3.005   3.362 -0.0729 -0.4591  0.1258
   32DOPE   H9X 4101   5.223   3.000   3.266 -1.8066  0.1932  0.9880
   32DOPE  C310 4102   5.259   2.900   3.446  0.3448  0.5706 -0.0716
   32DOPE  H10X 4103   5.196   2.818   3.407  2.0850 -0.7223 -0.2571
   32DOPE  C311 4104   5.313   2.875   3.585 -0.0712  0.1240  0.4841
   32DOPE  H11X 4105   5.345   2.769   3.594  1.7947  0.7889  2.5623
   32DOPE  H11Y 4106   5.410   2.928   3.598  0.7219 -1.2416  0.3228
   32DOPE  C312 4107   5.220   2.918   3.699  0.0657  0.0849  0.1061
   32DOPE  H12X 4108   5.135   2.847   3.696 -0.1500  0.3529 -0.3072
   32DOPE  H12Y 4109   5.195   3.024   3.675 -2.6859 -0.1335  1.7181
   32DOPE  C313 4110   5.309   2.915   3.828  0.7363 -0.5600  0.2645
   32DOPE  H13X 4111   5.362   2.817   3.826 -0.4723 -1.2302 -0.0453
   32DOPE  H13Y 4112   5.386   2.994   3.819 -0.8889  1.1692  0.8342
   32DOPE  C314 4113   5.225   2.938   3.957  0.4895  0.7300  0.1612
   32DOPE  H14X 4114   5.145   2.861   3.951  0.0988  1.2068 -1.0070
   32DOPE  H14Y 4115   5.177   3.038   3.965 -0.4266  0.4820 -1.6846
   32DOPE  C315 4116   5.309   2.912   4.078 -0.0240 -0.4248  0.3832
   32DOPE  H15X 4117   5.413   2.901   4.040  0.2545  2.3599  0.1532
   32DOPE  H15Y 4118   5.271   2.814   4.114  0.3611 -0.6948  0.0682
   32DOPE  C316 4119   5.283   3.007   4.202 -0.2120 -0.3610  0.0601
   32DOPE  H16X 4120   5.184   3.058   4.195  0.9646  2.0615 -0.2388
   32DOPE  H16Y 4121   5.368   3.079   4.203  0.0192 -0.6173 -0.5697
   32DOPE  C317 4122   5.277   2.933   4.336 -0.2615  0.2694  0.7310
   32DOPE  H17X 4123   5.187   2.869   4.334  0.0382 -0.1590 -1.1268
   32DOPE  H17Y 4124   5.369   2.872   4.334  0.1073  0.7995  1.0544
   32DOPE  C318 4125   5.260   3.032   4.448 -0.0825 -0.4078  0.2027
   32DOPE  H18X 4126   5.347   3.100   4.461  0.2522 -1.0508  1.5334
   32DOPE  H18Y 4127   5.168   3.092   4.436 -1.3332 -1.7633  2.3305
   32DOPE  H18Z 4128   5.245   2.985   4.548 -2.4564 -1.8171 -0.7465
   33DOPE     N 4129   4.143   2.977   2.920 -0.5462  0.5607  0.6923
   33DOPE   HN1 4130   4.054   2.929   2.942 -1.2842 -0.0910 -2.9583
   33DOPE   HN2 4131   4.221   2.909   2.934  1.1102  1.5972 -2.3626
   33DOPE   HN3 4132   4.159   3.062   2.978  2.2425  0.5876  0.0243
   33DOPE   C12 4133   4.149   3.008   2.771  0.7769 -0.1994 -0.7505
   33DOPE  H12A 4134   4.075   3.089   2.751  0.6215  0.4685  2.0338
   33DOPE  H12B 4135   4.113   2.918   2.717 -0.4786 -0.5755  0.6192
   33DOPE   C11 4136   4.283   3.052   2.726  0.0002  0.4529 -0.1016
   33DOPE  H11A 4137   4.291   3.068   2.616  0.7196 -1.7624 -0.4196
   33DOPE  H11B 4138   4.351   2.966   2.743 -0.1204  0.7987  2.5156
   33DOPE     P 4139   4.276   3.301   2.816 -0.2396 -0.1030  0.1617
   33DOPE   O13 4140   4.134   3.298   2.851  0.5234 -0.0388 -0.2312
   33DOPE   O14 4141   4.303   3.379   2.688 -0.1970  0.1185 -0.6895
   33DOPE   O11 4142   4.356   3.376   2.929  0.3831 -0.3678 -0.5088
   33DOPE   O12 4143   4.344   3.161   2.801  0.0430  0.1811  0.0972
   33DOPE    C1 4144   4.472   3.330   2.996  0.0728 -0.6049  0.0053
   33DOPE    HA 4145   4.562   3.373   2.949 -0.1283 -0.8364 -0.5951
   33DOPE    HB 4146   4.497   3.223   2.982 -1.2784 -0.7563 -1.5213
   33DOPE    C2 4147   4.474   3.335   3.149  0.4705  0.5899  0.4272
   33DOPE    HS 4148   4.396   3.262   3.179  2.2845 -1.0950  1.2637
   33DOPE   O21 4149   4.447   3.468   3.191 -0.0739  0.0877  0.1542
   33DOPE   C21 4150   4.335   3.506   3.237 -0.4600  0.1631 -0.2799
   33DOPE   O22 4151   4.233   3.445   3.229  0.4388  0.4317 -0.6209
   33DOPE   C22 4152   4.356   3.638   3.309  0.0757  0.1643 -0.5665
   33DOPE   H2R 4153   4.259   3.692   3.307 -1.0074 -1.6775 -0.5720
   33DOPE   H2S 4154   4.434   3.700   3.262  0.4109  0.5697  0.4852
   33DOPE    C3 4155   4.605   3.286   3.214 -0.0597 -1.2297  0.4977
   33DOPE    HX 4156   4.680   3.336   3.148 -1.2924  1.0196  0.6823
   33DOPE    HY 4157   4.611   3.176   3.200  0.6819 -0.9017 -2.6833
   33DOPE   O31 4158   4.618   3.321   3.352  0.0185  0.0831 -0.4284
   33DOPE   C31 4159   4.732   3.376   3.393  1.1099  0.2820  0.4742
   33DOPE   O32 4160   4.835   3.386   3.325  0.1701  0.4507 -0.0788
   33DOPE   C32 4161   4.711   3.424   3.536  0.3574 -0.5149  0.2093
   33DOPE   H2X 4162   4.745   3.529   3.544 -2.0179  0.2556  1.0294
   33DOPE   H2Y 4163   4.605   3.417   3.567 -0.6335  0.6602 -2.6575
   33DOPE   C23 4164   4.400   3.610   3.455 -0.5264 -0.5703 -0.0577
   33DOPE   H3R 4165   4.494   3.668   3.471 -0.8380 -0.7977  3.4152
   33DOPE   H3S 4166   4.419   3.503   3.475  0.4328 -0.4980 -0.4880
   33DOPE   C24 4167   4.309   3.665   3.560  0.2318 -0.2566 -0.5155
   33DOPE   H4R 4168   4.211   3.626   3.526  0.1986  0.4739 -1.3049
   33DOPE   H4S 4169   4.313   3.776   3.567  0.6368 -0.2916 -0.1714
   33DOPE   C25 4170   4.338   3.607   3.697 -0.2380  0.3385  0.2249
   33DOPE   H5R 4171   4.447   3.584   3.699  0.2978  2.2896 -1.8220
   33DOPE   H5S 4172   4.279   3.514   3.715 -0.3801  0.7310  1.9458
   33DOPE   C26 4173   4.308   3.711   3.805 -0.1662 -0.3343  0.4934
   33DOPE   H6R 4174   4.206   3.749   3.783 -0.0080 -0.0548  0.2321
   33DOPE   H6S 4175   4.366   3.805   3.791  0.5183 -0.7516  0.5108
   33DOPE   C27 4176   4.336   3.647   3.942 -0.6312 -0.5972 -0.1814
   33DOPE   H7R 4177   4.444   3.622   3.942 -0.2806  0.7904 -1.0962
   33DOPE   H7S 4178   4.280   3.552   3.953 -0.6356 -0.8028 -1.7691
   33DOPE   C28 4179   4.308   3.740   4.058  0.0654  0.6618  0.4986
   33DOPE   H8R 4180   4.198   3.734   4.069 -0.0931  1.4598 -0.4252
   33DOPE   H8S 4181   4.320   3.846   4.024 -0.3865  0.3185 -0.8200
   33DOPE   C29 4182   4.373   3.711   4.192  0.6104 -0.5456 -0.4982
   33DOPE   H9R 4183   4.481   3.726   4.188  0.4803  0.2764 -1.2269
   33DOPE  C210 4184   4.303   3.684   4.307  0.2704  0.3971  0.3653
   33DOPE  H10R 4185   4.361   3.674   4.400 -0.6920  2.2099  1.2294
   33DOPE  C211 4186   4.156   3.680   4.330 -0.0153 -0.1238  0.3789
   33DOPE  H11R 4187   4.132   3.576   4.363  1.5669 -1.2195 -1.6807
   33DOPE  H11S 4188   4.099   3.695   4.236  1.7055  0.3190 -0.6432
   33DOPE  C212 4189   4.112   3.788   4.431 -0.6678 -0.2091  0.6751
   33DOPE  H12R 4190   4.002   3.780   4.446 -1.3188  1.4023 -2.4396
   33DOPE  H12S 4191   4.130   3.889   4.387  1.6949 -0.3715  1.1690
   33DOPE  C213 4192   4.175   3.781   4.567  0.6230  0.4721  0.0038
   33DOPE  H13R 4193   4.281   3.814   4.572  0.4190  1.0304  0.9730
   33DOPE  H13S 4194   4.185   3.679   4.608  1.2686  0.7359  0.5109
   33DOPE  C214 4195   4.090   3.866   4.670  0.0023 -0.3210 -0.0024
   33DOPE  H14R 4196   3.983   3.868   4.639  0.5535  4.8130 -2.6034
   33DOPE  H14S 4197   4.114   3.973   4.654 -2.6580  0.4093  0.3772
   33DOPE  C215 4198   4.104   3.806   4.815  0.6416  0.1708 -0.2900
   33DOPE  H15R 4199   4.209   3.773   4.833  0.5220 -0.1913 -0.2293
   33DOPE  H15S 4200   4.042   3.714   4.823  0.9927 -0.3785 -2.8603
   33DOPE  C216 4201   4.048   3.893   4.935  0.0138 -0.3596 -0.2252
   33DOPE  H16R 4202   3.980   3.837   5.003  1.9781 -2.4330  0.1380
   33DOPE  H16S 4203   3.989   3.975   4.889  1.0302  1.0953  0.9822
   33DOPE  C217 4204   4.159   3.955   5.006  0.0348  0.1286 -0.0361
   33DOPE  H17R 4205   4.224   3.989   4.923  0.1107 -1.5482 -0.6847
   33DOPE  H17S 4206   4.213   3.880   5.068  0.3012 -2.1165 -2.7791
   33DOPE  C218 4207   4.115   4.080   5.088  0.1951 -0.0924  0.3237
   33DOPE  H18R 4208   4.197   4.154   5.104 -0.8578  1.1012  0.3414
   33DOPE  H18S 4209   4.087   4.049   5.191  0.4424  0.3077  0.5156
   33DOPE  H18T 4210   4.043   4.137   5.026  1.0786 -1.4994 -2.1340
   33DOPE   C33 4211   4.784   3.334   3.635 -0.1764  0.3317  0.0078
   33DOPE   H3X 4212   4.890   3.366   3.625 -0.5526  1.4067 -0.6314
   33DOPE   H3Y 4213   4.776   3.227   3.604  0.6623 -0.0641  1.0606
   33DOPE   C34 4214   4.779   3.362   3.795  1.2455  0.0749  0.0273
   33DOPE   H4X 4215   4.684   3.318   3.832  0.9151  2.5469  2.4435
   33DOPE   H4Y 4216   4.865   3.301   3.830  2.9584  2.0226 -0.6263
   33DOPE   C35 4217   4.787   3.509   3.827  0.9321 -0.3989 -0.1121
   33DOPE   H5X 4218   4.714   3.565   3.765  0.5634 -0.4893  0.2342
   33DOPE   H5Y 4219   4.889   3.535   3.791  1.1622 -1.5354 -0.3502
   33DOPE   C36 4220   4.761   3.550   3.971 -0.1978  0.1725  0.3271
   33DOPE   H6X 4221   4.651   3.560   3.981 -0.3207 -0.8504  0.0415
   33DOPE   H6Y 4222   4.809   3.646   4.001 -0.3657 -0.8425  4.2495
   33DOPE   C37 4223   4.806   3.443   4.072 -0.6614  0.3610  0.1943
   33DOPE   H7X 4224   4.744   3.351   4.065 -0.4997  0.1784  1.0178
   33DOPE   H7Y 4225   4.907   3.408   4.042 -0.6124  0.2871  0.4447
   33DOPE   C38 4226   4.823   3.491   4.222 -0.3301 -0.0109 -0.2553
   33DOPE   H8X 4227   4.725   3.533   4.254 -0.8957 -2.1975  1.0998
   33DOPE   H8Y 4228   4.896   3.575   4.228 -3.0789  2.5551 -0.0091
   33DOPE   C39 4229   4.850   3.366   4.307 -0.4516  0.1804 -0.2304
   33DOPE   H9X 4230   4.779   3.282   4.306  0.4486 -0.6124  0.8447
   33DOPE  C310 4231   4.954   3.345   4.391  0.0240  0.2709  0.0630
   33DOPE  H10X 4232   4.953   3.248   4.442 -1.0194  0.9817  1.4891
   33DOPE  C311 4233   5.072   3.436   4.412  0.2999  0.6794 -0.7730
   33DOPE  H11X 4234   5.171   3.386   4.401 -0.1744 -0.2128 -1.0419
   33DOPE  H11Y 4235   5.076   3.520   4.339  0.3970 -0.1251 -1.7079
   33DOPE  C312 4236   5.041   3.517   4.546  0.9027 -0.0536 -0.3619
   33DOPE  H12X 4237   4.943   3.568   4.544  1.4844  1.1929  0.6674
   33DOPE  H12Y 4238   5.107   3.607   4.543 -0.9979  1.3723 -1.1903
   33DOPE  C313 4239   5.077   3.452   4.678 -0.1424 -0.0268  0.1430
   33DOPE  H13X 4240   5.031   3.351   4.684 -0.8326  0.3539  2.1001
   33DOPE  H13Y 4241   5.187   3.439   4.689  0.8644  4.2871 -2.5984
   33DOPE  C314 4242   5.031   3.520   4.804  0.0510  0.4192  0.0180
   33DOPE  H14X 4243   4.933   3.572   4.793 -1.8738 -3.1569 -1.4518
   33DOPE  H14Y 4244   5.101   3.596   4.843 -1.2596  1.8790 -0.3838
   33DOPE  C315 4245   5.007   3.433   4.934 -0.1847 -0.8045 -0.3897
   33DOPE  H15X 4246   5.105   3.395   4.971 -1.2511 -1.6053  1.8187
   33DOPE  H15Y 4247   4.949   3.351   4.886  0.8252 -0.4638 -2.3231
   33DOPE  C316 4248   4.943   3.516   5.053 -0.3417  0.0961 -0.3789
   33DOPE  H16X 4249   4.843   3.548   5.019 -0.1099  2.0865  0.6565
   33DOPE  H16Y 4250   4.998   3.612   5.058 -1.4614  0.7120  0.7541
   33DOPE  C317 4251   4.954   3.450   5.185  0.0405  0.0642 -0.3632
   33DOPE  H17X 4252   5.062   3.460   5.208 -0.4704  1.6625  1.5858
   33DOPE  H17Y 4253   4.898   3.516   5.254  2.4775  0.7869  1.0490
   33DOPE  C318 4254   4.918   3.307   5.199 -0.6944 -0.1452  0.1851
   33DOPE  H18X 4255   4.983   3.253   5.127  0.4045  0.5845  0.5896
   33DOPE  H18Y 4256   4.931   3.271   5.304 -0.7102 -1.5872 -0.2940
   33DOPE  H18Z 4257   4.816   3.279   5.166  0.5718 -0.8317 -3.6204
   34DOPE     N 4258   2.720   4.284   2.986  0.2370 -0.7195  0.4292
   34DOPE   HN1 4259   2.763   4.284   2.891  0.4965  1.9667  0.4616
   34DOPE   HN2 4260   2.657   4.365   3.001  2.1860  1.0918 -0.5549
   34DOPE   HN3 4261   2.789   4.299   3.062  0.4881 -0.1168  0.0979
   34DOPE   C12 4262   2.654   4.157   3.015  0.8824 -0.1582  0.1048
   34DOPE  H12A 4263   2.720   4.074   2.984  2.3181  0.7533  0.6048
   34DOPE  H12B 4264   2.554   4.158   2.965 -0.4253 -0.6970  2.5123
   34DOPE   C11 4265   2.635   4.144   3.170  0.7692 -0.2907  0.5493
   34DOPE  H11A 4266   2.569   4.229   3.196  2.5644  1.3202  0.0894
   34DOPE  H11B 4267   2.731   4.165   3.223  1.4741 -0.3322 -0.6827
   34DOPE     P 4268   2.642   3.894   3.222  0.0677  0.0331  0.4988
   34DOPE   O13 4269   2.776   3.907   3.164  0.1612 -0.8428 -0.5356
   34DOPE   O14 4270   2.569   3.780   3.172  0.1021 -0.6629 -0.1537
   34DOPE   O11 4271   2.651   3.892   3.376 -0.2597 -0.1441 -0.0850
   34DOPE   O12 4272   2.561   4.024   3.202  0.1996  0.4962  0.0120
   34DOPE    C1 4273   2.541   3.931   3.459  0.4294  0.2522  0.0633
   34DOPE    HA 4274   2.534   3.855   3.539  0.6158  1.6997  1.5064
   34DOPE    HB 4275   2.440   3.933   3.413  0.0646  0.6653  0.8711
   34DOPE    C2 4276   2.574   4.069   3.525 -0.4547 -0.4452  0.4386
   34DOPE    HS 4277   2.584   4.143   3.444 -1.9825 -0.4206  0.2390
   34DOPE   O21 4278   2.698   4.062   3.611 -0.1857  0.3977 -0.1419
   34DOPE   C21 4279   2.758   4.174   3.614  0.6473  0.1664 -0.6128
   34DOPE   O22 4280   2.732   4.273   3.546  0.4529  0.3518  0.4667
   34DOPE   C22 4281   2.865   4.162   3.723 -0.0995 -0.1587  0.3797
   34DOPE   H2R 4282   2.963   4.128   3.683 -0.1048  1.8911 -1.5644
   34DOPE   H2S 4283   2.831   4.095   3.805  0.4978 -1.7116 -0.6014
   34DOPE    C3 4284   2.462   4.104   3.624  0.3739 -0.7242 -0.3133
   34DOPE    HX 4285   2.374   4.088   3.558 -0.4888 -0.7537  0.8110
   34DOPE    HY 4286   2.456   4.211   3.652 -1.0439 -0.2132 -2.3727
   34DOPE   O31 4287   2.457   4.016   3.743  0.0930  0.5078  0.4027
   34DOPE   C31 4288   2.511   4.060   3.856 -0.0985  0.0151 -0.7288
   34DOPE   O32 4289   2.556   4.167   3.883  0.0121  0.2725  0.1568
   34DOPE   C32 4290   2.502   3.944   3.958  0.1180 -0.1868 -0.1835
   34DOPE   H2X 4291   2.396   3.917   3.979  0.3382 -1.8462 -1.0360
   34DOPE   H2Y 4292   2.552   3.855   3.914 -0.6256 -0.9365  0.4408
   34DOPE   C23 4293   2.895   4.297   3.791 -0.6807 -0.4790  0.1993
   34DOPE   H3R 4294   2.795   4.330   3.827  0.0931 -1.1555  3.2471
   34DOPE   H3S 4295   2.941   4.350   3.705  0.7270  1.2525  1.9376
   34DOPE   C24 4296   2.983   4.306   3.914  0.2229  0.1933 -0.0625
   34DOPE   H4R 4297   3.018   4.412   3.919  1.6347 -0.2958  1.2277
   34DOPE   H4S 4298   3.077   4.249   3.901 -0.1700 -0.5553  0.3553
   34DOPE   C25 4299   2.924   4.262   4.045  1.0977 -0.5453 -0.1045
   34DOPE   H5R 4300   3.006   4.250   4.118  0.8713 -0.9096  0.0929
   34DOPE   H5S 4301   2.874   4.163   4.034 -1.7218  0.6907  0.7255
   34DOPE   C26 4302   2.824   4.360   4.113  0.6279  0.1465 -0.0828
   34DOPE   H6R 4303   2.747   4.321   4.184  1.9443  1.7853  2.4033
   34DOPE   H6S 4304   2.752   4.387   4.033  0.0600  1.7424  0.9195
   34DOPE   C27 4305   2.888   4.489   4.173  0.6142  0.2909  0.7293
   34DOPE   H7R 4306   2.970   4.521   4.106 -1.0252  1.3913 -0.8165
   34DOPE   H7S 4307   2.928   4.462   4.274 -2.1472  0.5823  2.0009
   34DOPE   C28 4308   2.799   4.620   4.196 -0.4644 -0.9318 -0.2697
   34DOPE   H8R 4309   2.707   4.581   4.245  1.7615 -2.3697  3.1338
   34DOPE   H8S 4310   2.770   4.670   4.101 -0.7865 -0.3966  0.1044
   34DOPE   C29 4311   2.888   4.713   4.277  0.2912 -0.2380 -0.3101
   34DOPE   H9R 4312   2.986   4.745   4.238 -0.3477  1.2197 -0.7926
   34DOPE  C210 4313   2.861   4.769   4.397  0.3111 -0.9864 -0.5385
   34DOPE  H10R 4314   2.917   4.857   4.432 -0.3879 -0.9574  0.5627
   34DOPE  C211 4315   2.732   4.749   4.477 -0.1154 -0.1133 -0.5333
   34DOPE  H11R 4316   2.763   4.733   4.582 -0.4998 -0.3340 -0.4519
   34DOPE  H11S 4317   2.683   4.655   4.444  1.3482 -0.7602 -0.9699
   34DOPE  C212 4318   2.622   4.849   4.473 -0.4411 -0.3155  0.5872
   34DOPE  H12R 4319   2.532   4.829   4.535 -0.5215  2.0362  1.2941
   34DOPE  H12S 4320   2.592   4.852   4.366  0.3503 -0.3636  0.3599
   34DOPE  C213 4321   2.679   4.985   4.504 -0.1030  0.2525  0.3671
   34DOPE  H13R 4322   2.607   5.058   4.461 -0.0374  0.4968  0.6702
   34DOPE  H13S 4323   2.777   5.000   4.455 -0.3599  0.9583  0.0535
   34DOPE  C214 4324   2.684   5.004   4.660 -0.0201 -0.0622 -0.2037
   34DOPE  H14R 4325   2.752   4.925   4.700  1.5426  0.4853 -1.6630
   34DOPE  H14S 4326   2.577   4.991   4.687 -0.4847 -0.4097 -2.0412
   34DOPE  C215 4327   2.750   5.139   4.695 -0.3291 -0.3465 -0.3862
   34DOPE  H15R 4328   2.686   5.215   4.646  0.5147  0.0795 -0.8565
   34DOPE  H15S 4329   2.853   5.133   4.654  0.9709  1.9842  2.2197
   34DOPE  C216 4330   2.757   5.175   4.848  0.3417  0.7834  0.9846
   34DOPE  H16R 4331   2.759   5.286   4.858  1.2598  0.8978 -0.1335
   34DOPE  H16S 4332   2.840   5.123   4.901  0.1614  0.1216  0.6312
   34DOPE  C217 4333   2.636   5.120   4.925  0.5546 -0.4750  0.1648
   34DOPE  H17R 4334   2.640   5.009   4.921  0.5984 -0.4487 -0.6676
   34DOPE  H17S 4335   2.540   5.159   4.884 -0.9046 -1.3085  2.6265
   34DOPE  C218 4336   2.657   5.149   5.073 -0.3224  0.0415 -0.6837
   34DOPE  H18R 4337   2.753   5.110   5.112 -0.3675  0.0735 -0.5393
   34DOPE  H18S 4338   2.576   5.106   5.136 -0.8663 -0.3009 -1.6042
   34DOPE  H18T 4339   2.644   5.260   5.078 -1.7947 -0.0681 -1.5464
   34DOPE   C33 4340   2.567   3.982   4.097  0.4748  0.7000  0.6035
   34DOPE   H3X 4341   2.529   4.077   4.140 -0.1041  0.6438  0.2297
   34DOPE   H3Y 4342   2.677   3.991   4.086  0.7329 -1.4542  1.0972
   34DOPE   C34 4343   2.540   3.871   4.199 -0.9478 -0.2732 -0.0372
   34DOPE   H4X 4344   2.434   3.839   4.189 -1.6268  0.5663  3.3216
   34DOPE   H4Y 4345   2.602   3.779   4.185 -0.8902 -0.5886  2.0228
   34DOPE   C35 4346   2.581   3.918   4.343  0.2692  0.5070 -0.2532
   34DOPE   H5X 4347   2.516   4.005   4.366  0.1220  0.3550 -0.0894
   34DOPE   H5Y 4348   2.686   3.945   4.321 -0.1233  0.9253 -1.7881
   34DOPE   C36 4349   2.566   3.807   4.452 -0.6009 -0.2372 -0.0282
   34DOPE   H6X 4350   2.466   3.759   4.446 -0.5442 -0.6557  1.8542
   34DOPE   H6Y 4351   2.566   3.866   4.547  1.2548 -1.1568  0.6012
   34DOPE   C37 4352   2.686   3.707   4.446  0.0052 -0.3431  0.1259
   34DOPE   H7X 4353   2.685   3.643   4.355 -0.2191  1.8572 -1.4841
   34DOPE   H7Y 4354   2.779   3.766   4.457 -0.1149 -0.5021  2.8550
   34DOPE   C38 4355   2.677   3.611   4.563  0.5846  0.4259  0.1153
   34DOPE   H8X 4356   2.573   3.571   4.564  1.2538 -1.3965  0.9416
   34DOPE   H8Y 4357   2.684   3.672   4.656  1.4015  1.4844 -0.6164
   34DOPE   C39 4358   2.793   3.509   4.561 -0.4636 -0.2983  0.4069
   34DOPE   H9X 4359   2.810   3.476   4.458  0.4278  1.6359 -0.1199
   34DOPE  C310 4360   2.844   3.437   4.657  0.3207  0.6185  0.6520
   34DOPE  H10X 4361   2.921   3.362   4.631 -0.5318  0.1718 -0.7092
   34DOPE  C311 4362   2.792   3.441   4.800 -0.0284 -0.3235  0.5002
   34DOPE  H11X 4363   2.835   3.526   4.856 -2.0558  0.3190  1.1478
   34DOPE  H11Y 4364   2.682   3.456   4.798 -0.4727 -3.1200  0.0650
   34DOPE  C312 4365   2.816   3.316   4.896  0.1887  0.2430 -0.6306
   34DOPE  H12X 4366   2.926   3.301   4.900  0.2030  0.4282 -0.3298
   34DOPE  H12Y 4367   2.771   3.226   4.849 -0.3849  1.3405 -2.3061
   34DOPE  C313 4368   2.754   3.323   5.032  0.8835  0.0360  0.6131
   34DOPE  H13X 4369   2.669   3.394   5.046  1.3493  0.3566  1.9644
   34DOPE  H13Y 4370   2.720   3.223   5.067  0.7605  0.7118  2.5723
   34DOPE  C314 4371   2.853   3.374   5.131 -0.3311 -0.0999  0.0902
   34DOPE  H14X 4372   2.910   3.458   5.086  1.2108 -1.8529 -1.4414
   34DOPE  H14Y 4373   2.929   3.301   5.167  0.4659 -0.2302 -1.7385
   34DOPE  C315 4374   2.777   3.426   5.260 -0.1553  0.5139  0.4806
   34DOPE  H15X 4375   2.719   3.344   5.308 -1.6355  1.5166  0.4553
   34DOPE  H15Y 4376   2.700   3.500   5.232 -0.3634  0.8439  1.8353
   34DOPE  C316 4377   2.868   3.468   5.370 -0.3088  0.0231 -0.0989
   34DOPE  H16X 4378   2.801   3.510   5.448  0.2131  0.8834 -0.0975
   34DOPE  H16Y 4379   2.941   3.549   5.349  0.5898 -0.7291  0.0323
   34DOPE  C317 4380   2.956   3.360   5.438 -0.4162 -0.2077 -1.3438
   34DOPE  H17X 4381   2.901   3.264   5.451 -0.6467  0.2289  1.8815
   34DOPE  H17Y 4382   3.033   3.329   5.364  0.1945 -2.1711  0.0262
   34DOPE  C318 4383   3.010   3.402   5.578  0.8466 -0.1893 -0.8575
   34DOPE  H18X 4384   3.096   3.336   5.602 -1.1036 -2.4474  0.4734
   34DOPE  H18Y 4385   3.042   3.505   5.554  0.7152 -0.4409 -2.1691
   34DOPE  H18Z 4386   2.935   3.392   5.660  0.3813  0.4166 -1.1957
   35DOPE     N 4387   6.524   3.567   2.480  0.2027 -0.1531  0.1127
   35DOPE   HN1 4388   6.477   3.480   2.515  1.4912 -1.3768 -1.0584
   35DOPE   HN2 4389   6.593   3.589   2.555 -0.4405  0.3330  0.5718
   35DOPE   HN3 4390   6.462   3.650   2.472  0.0864  0.1136  2.8128
   35DOPE   C12 4391   6.606   3.547   2.359 -0.0826  0.5418  0.2437
   35DOPE  H12A 4392   6.631   3.645   2.312 -0.7773 -1.2886 -4.5907
   35DOPE  H12B 4393   6.550   3.499   2.275  1.0159  0.8497 -0.6887
   35DOPE   C11 4394   6.737   3.463   2.387  0.7117 -0.0225  0.2345
   35DOPE  H11A 4395   6.821   3.498   2.323  0.3451  2.4172  0.9892
   35DOPE  H11B 4396   6.702   3.359   2.369 -1.0720  0.7251 -0.8523
   35DOPE     P 4397   6.883   3.376   2.585  0.0065  0.4550  0.1380
   35DOPE   O13 4398   6.983   3.471   2.640  0.6237 -0.1766 -0.7246
   35DOPE   O14 4399   6.933   3.279   2.484 -0.1894  0.1650  0.6875
   35DOPE   O11 4400   6.814   3.287   2.701 -0.5125  0.4461  0.0209
   35DOPE   O12 4401   6.773   3.471   2.517 -0.2676 -0.2483 -0.3535
   35DOPE    C1 4402   6.688   3.291   2.752 -0.0703  0.7662 -0.3791
   35DOPE    HA 4403   6.626   3.204   2.725  1.0272 -0.3476  0.5730
   35DOPE    HB 4404   6.631   3.379   2.716 -1.0690 -0.1068 -0.9599
   35DOPE    C2 4405   6.687   3.305   2.908  0.3357 -0.0532 -0.8792
   35DOPE    HS 4406   6.742   3.399   2.930 -1.2897  0.2360  2.3915
   35DOPE   O21 4407   6.738   3.181   2.976  0.1674  0.5790 -0.2294
   35DOPE   C21 4408   6.849   3.203   3.039 -0.7119  0.4611 -0.2394
   35DOPE   O22 4409   6.915   3.306   3.035  0.3967 -0.4752  0.0785
   35DOPE   C22 4410   6.896   3.079   3.114 -0.2704 -0.2417 -0.1609
   35DOPE   H2R 4411   6.999   3.088   3.155 -0.7460 -1.7210  1.4909
   35DOPE   H2S 4412   6.890   2.994   3.043  2.4963 -2.0947  1.6146
   35DOPE    C3 4413   6.542   3.333   2.970 -0.2505 -0.4310  0.0893
   35DOPE    HX 4414   6.486   3.237   2.972  1.0072 -1.2012 -0.1496
   35DOPE    HY 4415   6.495   3.409   2.904 -0.3843  0.0003  0.6803
   35DOPE   O31 4416   6.544   3.375   3.103  0.0304 -0.8951 -0.1687
   35DOPE   C31 4417   6.594   3.498   3.129  0.4792 -1.0435  0.2761
   35DOPE   O32 4418   6.627   3.576   3.043  0.8501 -0.3074  0.8599
   35DOPE   C32 4419   6.584   3.534   3.277 -0.1702 -0.0082 -0.1994
   35DOPE   H2X 4420   6.506   3.613   3.270  2.1812  2.5812  0.9430
   35DOPE   H2Y 4421   6.539   3.451   3.337  0.9829  1.5720  3.1128
   35DOPE   C23 4422   6.813   3.049   3.239  0.0106  0.3781 -0.0852
   35DOPE   H3R 4423   6.879   2.981   3.297  1.6335 -0.0065 -2.2524
   35DOPE   H3S 4424   6.715   3.004   3.214  0.9132 -3.0040  1.8338
   35DOPE   C24 4425   6.772   3.157   3.339  0.4759 -0.5846 -0.0263
   35DOPE   H4R 4426   6.687   3.216   3.299  0.1967 -0.7092  0.3773
   35DOPE   H4S 4427   6.850   3.232   3.364 -1.9761  2.5118 -1.0484
   35DOPE   C25 4428   6.728   3.088   3.468 -0.7798 -0.2769  0.4607
   35DOPE   H5R 4429   6.825   3.064   3.516  0.0006 -0.0362 -0.9543
   35DOPE   H5S 4430   6.674   2.996   3.435 -1.1165  0.5200 -1.3160
   35DOPE   C26 4431   6.636   3.189   3.545  1.0255  0.0009 -0.0001
   35DOPE   H6R 4432   6.546   3.195   3.481  0.7134 -2.0762  0.1829
   35DOPE   H6S 4433   6.685   3.288   3.555  0.8765  0.1003 -0.2666
   35DOPE   C27 4434   6.597   3.141   3.681 -0.1791 -0.2945 -0.6207
   35DOPE   H7R 4435   6.695   3.137   3.734  0.6283  0.5172 -1.9553
   35DOPE   H7S 4436   6.552   3.040   3.678  0.8844 -0.7878 -0.3059
   35DOPE   C28 4437   6.511   3.240   3.756  0.1519  0.0629  0.1125
   35DOPE   H8R 4438   6.559   3.340   3.761  0.2722 -0.0511  1.5217
   35DOPE   H8S 4439   6.514   3.197   3.858 -0.0939  1.1820  0.6109
   35DOPE   C29 4440   6.372   3.271   3.702 -0.4958  0.6945  0.0738
   35DOPE   H9R 4441   6.345   3.207   3.616  0.4780  1.7004 -1.0122
   35DOPE  C210 4442   6.291   3.371   3.733  0.5061 -0.4504  0.3085
   35DOPE  H10R 4443   6.187   3.379   3.696  0.4354  2.3152  0.8734
   35DOPE  C211 4444   6.323   3.471   3.829  0.0826 -0.1304  0.1611
   35DOPE  H11R 4445   6.264   3.563   3.808 -0.1235  0.4687  2.9331
   35DOPE  H11S 4446   6.433   3.487   3.822  0.0770 -0.7474 -1.9799
   35DOPE  C212 4447   6.291   3.417   3.970 -0.3535  0.0792 -0.8148
   35DOPE  H12R 4448   6.326   3.320   4.011 -0.1136 -0.2028 -1.6774
   35DOPE  H12S 4449   6.180   3.408   3.978 -0.4882  1.6251 -0.5984
   35DOPE  C213 4450   6.351   3.514   4.075 -0.5364 -0.4625  0.4457
   35DOPE  H13R 4451   6.315   3.615   4.044 -3.2243 -1.8435 -1.3223
   35DOPE  H13S 4452   6.462   3.521   4.080 -0.5281 -0.6127  0.4726
   35DOPE  C214 4453   6.295   3.501   4.213 -0.4033  0.5643 -0.0912
   35DOPE  H14R 4454   6.329   3.407   4.261 -2.2853  0.6610  1.5355
   35DOPE  H14S 4455   6.185   3.487   4.211 -0.1982 -1.2417  0.0337
   35DOPE  C215 4456   6.316   3.619   4.310 -0.0845  0.0031 -0.0819
   35DOPE  H15R 4457   6.282   3.715   4.267  2.6891  0.8703 -0.5928
   35DOPE  H15S 4458   6.423   3.646   4.326 -0.9435  2.6055  1.9638
   35DOPE  C216 4459   6.260   3.602   4.446  0.5413 -0.2744 -0.0770
   35DOPE  H16R 4460   6.310   3.516   4.496  0.4845  0.4266  1.2487
   35DOPE  H16S 4461   6.153   3.573   4.436  0.5430 -1.3322  2.3127
   35DOPE  C217 4462   6.279   3.720   4.546 -0.3804  0.5036 -0.7379
   35DOPE  H17R 4463   6.222   3.809   4.510 -1.3918 -0.8419 -2.6536
   35DOPE  H17S 4464   6.389   3.727   4.557 -0.3705  1.8654 -1.5241
   35DOPE  C218 4465   6.214   3.692   4.684  0.6842 -0.0586 -0.2515
   35DOPE  H18R 4466   6.253   3.593   4.713 -0.0031 -0.0914  0.5971
   35DOPE  H18S 4467   6.103   3.691   4.671  0.6227  4.0193 -1.4900
   35DOPE  H18T 4468   6.245   3.774   4.753  1.1564 -0.8122  0.4461
   35DOPE   C33 4469   6.709   3.604   3.334  0.1104  0.2894 -0.0018
   35DOPE   H3X 4470   6.744   3.680   3.260 -0.5149 -1.1156 -1.8018
   35DOPE   H3Y 4471   6.789   3.528   3.345  2.2382  2.1600 -1.6558
   35DOPE   C34 4472   6.674   3.674   3.469 -0.3026  0.4590  0.0132
   35DOPE   H4X 4473   6.571   3.715   3.455 -0.5449 -0.9669 -3.2507
   35DOPE   H4Y 4474   6.659   3.590   3.540 -1.3322 -0.8004 -1.6160
   35DOPE   C35 4475   6.782   3.775   3.507 -0.0060  0.9896  0.5558
   35DOPE   H5X 4476   6.807   3.849   3.428  1.8942  1.9000  1.9323
   35DOPE   H5Y 4477   6.870   3.709   3.520 -2.4787 -2.4857  1.0638
   35DOPE   C36 4478   6.750   3.837   3.640  0.0968 -0.5996  0.0521
   35DOPE   H6X 4479   6.722   3.757   3.712 -0.1217 -0.9920 -0.4603
   35DOPE   H6Y 4480   6.659   3.893   3.613 -1.1303 -2.5479 -0.0218
   35DOPE   C37 4481   6.870   3.910   3.711 -0.6274 -0.6719  0.1674
   35DOPE   H7X 4482   6.826   3.942   3.808 -1.1884 -0.1165 -0.2627
   35DOPE   H7Y 4483   6.946   3.831   3.728  0.8638  0.2777 -1.7265
   35DOPE   C38 4484   6.942   4.027   3.631 -0.1539 -0.5655  0.7884
   35DOPE   H8X 4485   6.871   4.108   3.604 -1.1558 -1.6377  0.1108
   35DOPE   H8Y 4486   6.969   3.975   3.537 -2.5026 -0.6514  0.1010
   35DOPE   C39 4487   7.071   4.080   3.695 -0.6778  0.0376  0.5619
   35DOPE   H9X 4488   7.090   4.029   3.790  0.9422 -0.2825  0.1011
   35DOPE  C310 4489   7.149   4.183   3.650  0.8822 -0.0785 -0.2327
   35DOPE  H10X 4490   7.238   4.218   3.704 -0.3954  0.6469  1.5042
   35DOPE  C311 4491   7.122   4.272   3.529  0.9831 -0.0233  0.2192
   35DOPE  H11X 4492   7.217   4.324   3.506  0.0404  1.0396 -1.5447
   35DOPE  H11Y 4493   7.098   4.221   3.434 -1.1583  2.6258 -0.8136
   35DOPE  C312 4494   7.009   4.375   3.549 -0.6685 -0.1685  0.6710
   35DOPE  H12X 4495   6.930   4.328   3.612 -1.2648  0.6283  0.5255
   35DOPE  H12Y 4496   6.974   4.404   3.447 -2.4480  0.9241  1.5338
   35DOPE  C313 4497   7.053   4.508   3.617 -0.5698 -0.7809  0.4996
   35DOPE  H13X 4498   7.148   4.539   3.568 -0.5245 -0.6966  0.6396
   35DOPE  H13Y 4499   6.983   4.587   3.582  1.0857  0.5185 -0.0238
   35DOPE  C314 4500   7.077   4.492   3.768  0.2803  0.4118  0.4069
   35DOPE  H14X 4501   7.161   4.419   3.772  1.3989  1.5300 -1.2591
   35DOPE  H14Y 4502   6.985   4.455   3.818  0.2994  0.8698  0.7907
   35DOPE  C315 4503   7.124   4.624   3.833 -0.6451 -0.2656  0.1679
   35DOPE  H15X 4504   7.068   4.713   3.796 -1.1431 -1.3606 -1.7884
   35DOPE  H15Y 4505   7.224   4.635   3.788 -0.2941 -1.2878  0.6764
   35DOPE  C316 4506   7.133   4.616   3.989 -0.1840 -0.0748  0.0315
   35DOPE  H16X 4507   7.182   4.520   4.017 -0.4439 -0.1956  0.0718
   35DOPE  H16Y 4508   7.031   4.613   4.032 -0.0627 -1.0808  0.2912
   35DOPE  C317 4509   7.203   4.728   4.058  0.7589  0.4024 -0.1283
   35DOPE  H17X 4510   7.305   4.734   4.015  0.3005  0.1715 -1.2941
   35DOPE  H17Y 4511   7.134   4.813   4.037 -1.1271 -0.9710  0.1983
   35DOPE  C318 4512   7.195   4.711   4.210  0.2702  0.4302  0.5296
   35DOPE  H18X 4513   7.252   4.790   4.263 -0.4723  0.1676  1.7555
   35DOPE  H18Y 4514   7.091   4.720   4.250  1.0306 -0.8823  2.9850
   35DOPE  H18Z 4515   7.240   4.619   4.252 -2.5023  0.1044  3.1232
   36DOPE     N 4516   6.816   5.213   2.882  0.1622  0.3489 -0.5960
   36DOPE   HN1 4517   6.895   5.280   2.888 -1.2888  2.3112 -2.1907
   36DOPE   HN2 4518   6.831   5.162   2.793 -1.9956  2.4506 -2.2692
   36DOPE   HN3 4519   6.725   5.262   2.879 -0.1822 -0.2473 -0.1005
   36DOPE   C12 4520   6.811   5.106   2.988  0.0217 -0.1574  0.0605
   36DOPE  H12A 4521   6.765   5.138   3.084  0.1211 -0.3655  0.1777
   36DOPE  H12B 4522   6.915   5.075   3.009 -0.2001 -0.7313  0.3236
   36DOPE   C11 4523   6.736   4.977   2.942 -0.0246  0.1391 -0.0475
   36DOPE  H11A 4524   6.636   5.019   2.916 -0.2222 -0.2474  0.0822
   36DOPE  H11B 4525   6.732   4.915   3.034 -0.1494  1.0506  0.5808
   36DOPE     P 4526   6.836   4.776   2.783 -0.1014  0.1643  0.1270
   36DOPE   O13 4527   6.943   4.784   2.682  0.0912  0.2322 -0.1804
   36DOPE   O14 4528   6.711   4.718   2.735 -0.4464  0.0307  0.0992
   36DOPE   O11 4529   6.891   4.712   2.918  0.1000  0.4500 -0.1849
   36DOPE   O12 4530   6.802   4.924   2.833 -0.0460  0.5679  0.3449
   36DOPE    C1 4531   6.921   4.577   2.930 -0.1239  0.1810  0.3084
   36DOPE    HA 4532   7.021   4.567   2.976  0.1331 -1.4134 -0.5292
   36DOPE    HB 4533   6.934   4.530   2.830  1.0849  1.2145 -0.0473
   36DOPE    C2 4534   6.821   4.492   3.019 -0.2731 -0.0070 -0.0178
   36DOPE    HS 4535   6.723   4.507   2.968 -0.6046  0.3279  0.6955
   36DOPE   O21 4536   6.810   4.541   3.155 -0.4844  0.6075 -0.3137
   36DOPE   C21 4537   6.720   4.633   3.182  0.1822 -0.2775 -0.3891
   36DOPE   O22 4538   6.631   4.670   3.104  0.3683 -0.1956 -0.3666
   36DOPE   C22 4539   6.756   4.687   3.328  0.0091  0.1506 -0.0697
   36DOPE   H2R 4540   6.849   4.642   3.369  0.3840 -0.6208 -1.7084
   36DOPE   H2S 4541   6.674   4.646   3.390  0.3969 -1.5462 -0.6369
   36DOPE    C3 4542   6.874   4.346   3.027  0.5059 -0.5986 -0.4590
   36DOPE    HX 4543   6.973   4.339   3.078  0.2667  0.3198  0.1597
   36DOPE    HY 4544   6.884   4.320   2.919 -0.9305  0.0903 -0.7798
   36DOPE   O31 4545   6.776   4.251   3.075 -0.5842  0.2093  0.0853
   36DOPE   C31 4546   6.818   4.179   3.177 -0.7182 -0.2416  0.1868
   36DOPE   O32 4547   6.929   4.182   3.238  0.0160  0.3082 -0.1231
   36DOPE   C32 4548   6.713   4.067   3.190  0.4574  0.3978 -0.3942
   36DOPE   H2X 4549   6.643   4.076   3.104  0.9090  0.1655 -0.7924
   36DOPE   H2Y 4550   6.773   3.974   3.181  0.4934  0.3011  0.6916
   36DOPE   C23 4551   6.777   4.836   3.317  0.0274 -0.7311  0.2793
   36DOPE   H3R 4552   6.679   4.886   3.299  0.0280  0.1296  2.3396
   36DOPE   H3S 4553   6.853   4.866   3.242  0.0020  1.3947  1.0323
   36DOPE   C24 4554   6.831   4.905   3.443 -0.3302 -0.0512  0.0413
   36DOPE   H4R 4555   6.850   5.013   3.423 -0.7247 -0.0247 -0.2292
   36DOPE   H4S 4556   6.925   4.854   3.469  1.0419  2.8376  1.2058
   36DOPE   C25 4557   6.752   4.873   3.569 -0.1516 -0.6305 -0.4329
   36DOPE   H5R 4558   6.721   4.767   3.575 -1.3157 -0.2434  1.0601
   36DOPE   H5S 4559   6.659   4.933   3.569  1.5928  2.2668  0.2033
   36DOPE   C26 4560   6.831   4.906   3.697 -0.1805  0.0587 -0.2772
   36DOPE   H6R 4561   6.860   5.013   3.694  0.2637 -0.0564 -0.2087
   36DOPE   H6S 4562   6.929   4.854   3.694  0.0286  0.4744 -1.1940
   36DOPE   C27 4563   6.756   4.884   3.835 -0.0634 -0.2158  0.0659
   36DOPE   H7R 4564   6.752   4.779   3.870 -0.0256 -0.5125 -0.7750
   36DOPE   H7S 4565   6.650   4.908   3.810  0.6275 -0.6837 -4.0632
   36DOPE   C28 4566   6.789   4.993   3.944  0.0539  0.3188 -0.4154
   36DOPE   H8R 4567   6.702   4.996   4.013 -0.5019 -2.4844 -0.8855
   36DOPE   H8S 4568   6.797   5.091   3.893  0.9846  0.8162  0.6145
   36DOPE   C29 4569   6.915   4.964   4.027 -0.0176  0.7631  0.8095
   36DOPE   H9R 4570   7.005   4.998   3.975 -0.8717  1.1100 -0.4909
   36DOPE  C210 4571   6.911   4.914   4.154  0.4318 -0.2514  0.7945
   36DOPE  H10R 4572   7.001   4.900   4.216  0.6373 -0.9270  0.3490
   36DOPE  C211 4573   6.785   4.879   4.233 -0.2788 -0.1941  0.1016
   36DOPE  H11R 4574   6.817   4.784   4.281  1.4657  0.3518  0.0535
   36DOPE  H11S 4575   6.701   4.853   4.165 -0.1549  0.5887 -0.3645
   36DOPE  C212 4576   6.737   4.990   4.333  0.3060  0.3080 -0.0725
   36DOPE  H12R 4577   6.707   5.085   4.283  1.4615 -0.3760 -2.2198
   36DOPE  H12S 4578   6.822   5.022   4.397 -0.0318 -1.9397  1.5959
   36DOPE  C213 4579   6.636   4.921   4.434 -0.2402 -0.9343  0.5760
   36DOPE  H13R 4580   6.676   4.821   4.463  2.8296  0.7042  2.5761
   36DOPE  H13S 4581   6.542   4.918   4.375  0.4345 -1.1979 -0.5059
   36DOPE  C214 4582   6.602   4.993   4.565  0.4528  0.0067  0.3232
   36DOPE  H14R 4583   6.505   4.950   4.597  0.4823  0.4869  1.0640
   36DOPE  H14S 4584   6.589   5.101   4.544  0.5643  0.3914  2.1046
   36DOPE  C215 4585   6.714   4.994   4.666 -0.3837  0.0693 -0.0826
   36DOPE  H15R 4586   6.798   5.054   4.623 -0.6110  0.8432  0.5394
   36DOPE  H15S 4587   6.760   4.893   4.668  2.8567  1.4100 -0.6851
   36DOPE  C216 4588   6.674   5.038   4.808 -0.0735 -0.0195  0.1439
   36DOPE  H16R 4589   6.671   5.148   4.822 -0.7772 -0.3138  3.0856
   36DOPE  H16S 4590   6.758   5.001   4.872  0.6501 -1.1512 -1.4047
   36DOPE  C217 4591   6.552   4.967   4.872 -0.3252  0.1982 -0.1978
   36DOPE  H17R 4592   6.549   4.865   4.828  2.4437  0.2454 -0.6858
   36DOPE  H17S 4593   6.462   5.029   4.851  0.0202  1.5773  2.1115
   36DOPE  C218 4594   6.570   4.958   5.027 -0.1414 -0.1019  0.6304
   36DOPE  H18R 4595   6.624   5.044   5.071 -0.1338  0.2722 -0.0807
   36DOPE  H18S 4596   6.623   4.868   5.064  0.2915  0.4840  1.4670
   36DOPE  H18T 4597   6.464   4.950   5.061 -0.1993 -1.6271  0.1585
   36DOPE   C33 4598   6.633   4.071   3.322 -0.0088  0.8884  0.0201
   36DOPE   H3X 4599   6.713   4.083   3.397  1.2208  0.6145 -1.2152
   36DOPE   H3Y 4600   6.579   3.974   3.330 -0.8727  1.3991  0.5534
   36DOPE   C34 4601   6.517   4.176   3.326  0.2844 -0.1144 -0.2584
   36DOPE   H4X 4602   6.468   4.197   3.228 -3.8779 -0.0579  1.6307
   36DOPE   H4Y 4603   6.445   4.133   3.399  4.2264 -2.8206  2.4080
   36DOPE   C35 4604   6.571   4.311   3.384  0.0261 -0.3048  0.3180
   36DOPE   H5X 4605   6.505   4.399   3.369 -0.0268 -0.4094 -0.0848
   36DOPE   H5Y 4606   6.665   4.339   3.332  0.2947 -0.8885  0.4733
   36DOPE   C36 4607   6.599   4.297   3.533  0.3651 -0.2354 -0.0096
   36DOPE   H6X 4608   6.691   4.239   3.554 -0.9941 -2.3215  0.4552
   36DOPE   H6Y 4609   6.515   4.254   3.591  0.5183  0.8279  1.0484
   36DOPE   C37 4610   6.641   4.437   3.594 -0.5591  0.7970 -0.2710
   36DOPE   H7X 4611   6.725   4.476   3.532  0.3817  0.1203  0.5322
   36DOPE   H7Y 4612   6.553   4.502   3.578 -0.8511  0.6324  0.5726
   36DOPE   C38 4613   6.698   4.428   3.738  0.0839  0.2960  0.8584
   36DOPE   H8X 4614   6.701   4.537   3.759  0.4534  0.3539  0.5145
   36DOPE   H8Y 4615   6.804   4.399   3.751 -0.2577 -0.2799  2.6840
   36DOPE   C39 4616   6.608   4.347   3.832  0.2567  0.6061  0.7909
   36DOPE   H9X 4617   6.573   4.251   3.791  3.9309 -0.3987 -0.4197
   36DOPE  C310 4618   6.561   4.402   3.949 -0.7749  0.0269 -0.4720
   36DOPE  H10X 4619   6.495   4.339   4.011  1.0206  0.8135  2.4547
   36DOPE  C311 4620   6.586   4.536   4.010  0.3703  0.5081 -0.6453
   36DOPE  H11X 4621   6.603   4.615   3.933  0.1096  2.4365  1.1997
   36DOPE  H11Y 4622   6.495   4.565   4.067  0.3279 -1.6293  0.4660
   36DOPE  C312 4623   6.711   4.527   4.102  0.5476 -0.0274 -0.8327
   36DOPE  H12X 4624   6.743   4.629   4.132 -0.0409  0.3117 -1.3193
   36DOPE  H12Y 4625   6.796   4.474   4.055 -0.4697 -1.1217 -1.5091
   36DOPE  C313 4626   6.686   4.461   4.239  0.1545  0.0852 -0.2660
   36DOPE  H13X 4627   6.591   4.508   4.273 -1.4961 -1.6277 -2.2252
   36DOPE  H13Y 4628   6.657   4.354   4.233 -0.9957  0.4017 -0.7207
   36DOPE  C314 4629   6.807   4.477   4.334 -0.1165 -0.1608  0.0877
   36DOPE  H14X 4630   6.813   4.586   4.354  2.5158 -0.4998  1.4850
   36DOPE  H14Y 4631   6.902   4.442   4.289 -0.8213  1.5427 -3.0132
   36DOPE  C315 4632   6.782   4.418   4.474 -0.2604  0.5883  0.0544
   36DOPE  H15X 4633   6.752   4.312   4.467 -2.1499  0.6506  4.2169
   36DOPE  H15Y 4634   6.690   4.461   4.520 -1.1593 -2.0056  0.8529
   36DOPE  C316 4635   6.908   4.425   4.574  0.3936  0.2741 -0.3623
   36DOPE  H16X 4636   6.997   4.372   4.534  1.4743  1.2964  0.6191
   36DOPE  H16Y 4637   6.880   4.364   4.662  1.1025  1.2926  0.5943
   36DOPE  C317 4638   6.957   4.573   4.603 -0.2343  0.2577 -0.5222
   36DOPE  H17X 4639   6.876   4.647   4.589  1.2039  1.9791 -0.1551
   36DOPE  H17Y 4640   6.991   4.578   4.709  1.9037 -1.4118 -1.0545
   36DOPE  C318 4641   7.075   4.611   4.522 -0.4935  0.2420  0.4270
   36DOPE  H18X 4642   7.049   4.600   4.415 -0.1631 -0.4527  0.4156
   36DOPE  H18Y 4643   7.112   4.711   4.553  1.3827 -0.7387  1.4864
   36DOPE  H18Z 4644   7.157   4.542   4.549  1.2426  2.7123  1.8389
   37DOPE     N 4645   3.979   2.311   2.771 -0.1641 -0.8662  0.7210
   37DOPE   HN1 4646   4.062   2.297   2.710  0.7853  0.8043  1.5654
   37DOPE   HN2 4647   3.905   2.247   2.735 -1.1951  2.0122 -2.8839
   37DOPE   HN3 4648   3.935   2.404   2.758  2.8697  0.4551 -1.3537
   37DOPE   C12 4649   4.015   2.290   2.916  0.1960 -0.1494 -0.1201
   37DOPE  H12A 4650   4.090   2.366   2.945  0.8067 -0.7406 -0.1041
   37DOPE  H12B 4651   4.066   2.192   2.934 -0.4398 -0.2208  1.4093
   37DOPE   C11 4652   3.892   2.304   3.005 -0.4280  0.1556  0.3519
   37DOPE  H11A 4653   3.921   2.290   3.111 -1.7281  1.2878  0.8741
   37DOPE  H11B 4654   3.804   2.240   2.985 -1.0947  0.6359  1.6779
   37DOPE     P 4655   3.767   2.530   3.103 -0.0396 -0.7237  0.0487
   37DOPE   O13 4656   3.746   2.437   3.213  0.5484 -0.7041  0.0873
   37DOPE   O14 4657   3.649   2.592   3.039 -0.0409  0.0040  0.4503
   37DOPE   O11 4658   3.880   2.641   3.137 -0.1292 -0.0425 -0.3705
   37DOPE   O12 4659   3.846   2.442   2.993  0.1857 -0.0562  0.3117
   37DOPE    C1 4660   4.008   2.597   3.192  0.4687  0.0612 -0.4525
   37DOPE    HA 4661   4.085   2.674   3.170 -0.4486  0.7627 -1.2891
   37DOPE    HB 4662   4.039   2.499   3.151 -0.1949 -0.3721  0.0680
   37DOPE    C2 4663   4.002   2.594   3.349  0.2866  0.1264 -0.8048
   37DOPE    HS 4664   3.912   2.532   3.363  0.9260 -0.6112  0.1589
   37DOPE   O21 4665   3.992   2.730   3.401 -0.3782 -0.2784 -0.0696
   37DOPE   C21 4666   3.872   2.769   3.419  0.4744 -0.0734 -0.3366
   37DOPE   O22 4667   3.765   2.707   3.391  0.3042 -0.1651 -0.2752
   37DOPE   C22 4668   3.877   2.914   3.465  0.3043  0.4495 -0.3704
   37DOPE   H2R 4669   3.849   2.972   3.374  0.1171 -0.5864 -1.0000
   37DOPE   H2S 4670   3.983   2.939   3.486  0.5428 -0.9075  0.1575
   37DOPE    C3 4671   4.124   2.526   3.414 -0.7188 -0.0844  0.2092
   37DOPE    HX 4672   4.220   2.562   3.371 -1.4801 -0.2567 -1.7130
   37DOPE    HY 4673   4.109   2.418   3.397  0.6865  0.0256 -2.1915
   37DOPE   O31 4674   4.123   2.548   3.555  0.1755 -0.4492 -0.5383
   37DOPE   C31 4675   4.194   2.652   3.607  0.0964 -0.0524 -0.0162
   37DOPE   O32 4676   4.262   2.732   3.546 -0.0088  0.3901  0.3281
   37DOPE   C32 4677   4.182   2.630   3.760  0.4993  0.2393  0.0440
   37DOPE   H2X 4678   4.090   2.669   3.810  0.4563 -0.5016  0.5701
   37DOPE   H2Y 4679   4.180   2.520   3.775 -1.4184  0.2050 -0.1600
   37DOPE   C23 4680   3.786   2.950   3.587  0.4644  0.3402  0.3258
   37DOPE   H3R 4681   3.689   2.897   3.580  0.4276  0.2793  1.1589
   37DOPE   H3S 4682   3.755   3.057   3.580  0.5614  0.2971 -0.8960
   37DOPE   C24 4683   3.849   2.928   3.724 -1.1076 -0.1582  0.1982
   37DOPE   H4R 4684   3.927   3.005   3.742 -1.8345  0.6155  0.0922
   37DOPE   H4S 4685   3.898   2.828   3.720  1.2824  0.8387  1.9714
   37DOPE   C25 4686   3.761   2.916   3.850 -0.2379  0.0328 -0.0075
   37DOPE   H5R 4687   3.672   2.851   3.836 -0.8953  1.2043 -1.5491
   37DOPE   H5S 4688   3.723   3.019   3.869  1.4797  0.7602 -0.3316
   37DOPE   C26 4689   3.853   2.876   3.965 -0.7241  0.0405 -0.7285
   37DOPE   H6R 4690   3.948   2.934   3.960 -0.6199 -0.1548 -1.1242
   37DOPE   H6S 4691   3.899   2.775   3.950  1.8038  1.1731 -1.1700
   37DOPE   C27 4692   3.785   2.867   4.095 -0.4512 -0.0255 -0.9986
   37DOPE   H7R 4693   3.717   2.778   4.094  1.6033 -1.6938 -0.1981
   37DOPE   H7S 4694   3.726   2.959   4.117  1.2540  0.9064 -0.1344
   37DOPE   C28 4695   3.886   2.839   4.206 -0.3242  0.5243 -0.2332
   37DOPE   H8R 4696   3.958   2.768   4.161 -0.5321  0.7806 -0.9775
   37DOPE   H8S 4697   3.837   2.792   4.294  0.3895 -2.6655 -1.4271
   37DOPE   C29 4698   3.961   2.968   4.241 -0.2827 -0.3549 -0.1362
   37DOPE   H9R 4699   4.020   3.013   4.159  0.1600 -2.4799 -1.0579
   37DOPE  C210 4700   3.944   3.038   4.349 -0.4045  0.1756  0.0238
   37DOPE  H10R 4701   4.004   3.128   4.367  0.8823 -0.7468  0.4892
   37DOPE  C211 4702   3.852   3.005   4.466 -0.3977 -0.5444 -0.3308
   37DOPE  H11R 4703   3.872   2.899   4.495  0.9240 -0.0020  0.8318
   37DOPE  H11S 4704   3.745   3.018   4.441 -0.1716  1.5673 -0.3771
   37DOPE  C212 4705   3.894   3.090   4.587  0.5148 -0.5095  0.1889
   37DOPE  H12R 4706   3.829   3.070   4.675 -1.7089  4.2313 -0.0291
   37DOPE  H12S 4707   3.878   3.200   4.582  0.7150 -0.2968  2.6355
   37DOPE  C213 4708   4.035   3.072   4.652 -0.0963 -0.0684  0.3956
   37DOPE  H13R 4709   4.110   3.121   4.586  0.3937 -1.1609  0.1143
   37DOPE  H13S 4710   4.062   2.965   4.659  1.1504  0.1554 -0.6570
   37DOPE  C214 4711   4.045   3.135   4.783 -0.4166  0.4822  0.1771
   37DOPE  H14R 4712   3.983   3.085   4.860 -1.7153  4.0581  1.6932
   37DOPE  H14S 4713   4.015   3.242   4.779 -0.5095  0.5016  1.1375
   37DOPE  C215 4714   4.190   3.113   4.849  0.1271 -0.2039  0.6178
   37DOPE  H15R 4715   4.268   3.166   4.789  2.6388 -0.7848  3.1383
   37DOPE  H15S 4716   4.204   3.003   4.838 -0.5530 -0.1912 -0.5719
   37DOPE  C216 4717   4.208   3.157   4.990  0.2659  0.5214  0.7654
   37DOPE  H16R 4718   4.310   3.125   5.022 -0.7753 -3.2087  0.7781
   37DOPE  H16S 4719   4.143   3.091   5.051  0.6992 -1.4091 -0.7878
   37DOPE  C217 4720   4.172   3.304   5.015  0.1197 -0.5154  0.0765
   37DOPE  H17R 4721   4.228   3.334   5.107  0.1276 -0.3147  0.0077
   37DOPE  H17S 4722   4.064   3.308   5.042 -0.4252 -0.6290 -1.9242
   37DOPE  C218 4723   4.207   3.414   4.910  0.6355 -0.2225 -0.1569
   37DOPE  H18R 4724   4.152   3.395   4.815  2.0076 -0.8002 -0.8758
   37DOPE  H18S 4725   4.316   3.407   4.886  0.2446  0.1863 -2.2872
   37DOPE  H18T 4726   4.171   3.512   4.947 -2.0784  0.6472 -4.3464
   37DOPE   C33 4727   4.299   2.708   3.839  0.6545  0.0262  1.1102
   37DOPE   H3X 4728   4.295   2.812   3.800  2.4510 -1.4564 -3.8708
   37DOPE   H3Y 4729   4.402   2.678   3.810  1.2220  2.4238  0.4372
   37DOPE   C34 4730   4.282   2.679   3.990 -0.3187  0.2371  0.0824
   37DOPE   H4X 4731   4.175   2.678   4.018 -0.6988 -1.2475 -1.2535
   37DOPE   H4Y 4732   4.316   2.576   4.017 -2.4438 -0.9052 -1.2535
   37DOPE   C35 4733   4.350   2.782   4.081 -0.0586  0.3374  0.0273
   37DOPE   H5X 4734   4.333   2.888   4.051 -0.3674  0.5875  1.0565
   37DOPE   H5Y 4735   4.460   2.767   4.092 -0.1180  0.8836  1.5536
   37DOPE   C36 4736   4.291   2.767   4.227  0.3442  0.0777  0.3168
   37DOPE   H6X 4737   4.272   2.659   4.242  1.4234 -0.1042  0.4139
   37DOPE   H6Y 4738   4.188   2.809   4.227 -0.1946 -1.1967  0.9509
   37DOPE   C37 4739   4.383   2.838   4.335  0.5453  0.5511  0.9185
   37DOPE   H7X 4740   4.484   2.792   4.342  0.1556 -0.3800  0.6180
   37DOPE   H7Y 4741   4.401   2.945   4.311 -0.5250  0.8989  1.5977
   37DOPE   C38 4742   4.322   2.819   4.475 -1.0680 -0.1344 -0.2168
   37DOPE   H8X 4743   4.321   2.711   4.502  2.8182 -0.1147  0.5735
   37DOPE   H8Y 4744   4.218   2.858   4.481 -1.6249 -1.6042  0.1137
   37DOPE   C39 4745   4.400   2.901   4.574 -0.8450  0.2576 -0.5279
   37DOPE   H9X 4746   4.383   3.008   4.555 -3.0217 -0.1110 -0.9213
   37DOPE  C310 4747   4.483   2.863   4.676  0.6759  0.6054 -0.7940
   37DOPE  H10X 4748   4.539   2.925   4.747  2.0152 -1.9974  0.5912
   37DOPE  C311 4749   4.499   2.719   4.712 -0.0484  0.2057  0.0306
   37DOPE  H11X 4750   4.473   2.652   4.627  1.0104  0.0929 -0.2224
   37DOPE  H11Y 4751   4.606   2.699   4.733  0.1137 -0.3431 -1.2269
   37DOPE  C312 4752   4.411   2.661   4.826 -0.0762  0.0142  0.1500
   37DOPE  H12X 4753   4.442   2.557   4.850 -2.8356 -0.9688 -0.1708
   37DOPE  H12Y 4754   4.306   2.657   4.790 -0.3529  1.0670  0.7930
   37DOPE  C313 4755   4.412   2.744   4.958 -0.1275  0.4380 -0.3320
   37DOPE  H13X 4756   4.520   2.751   4.983  0.3277  0.2523 -2.1103
   37DOPE  H13Y 4757   4.384   2.850   4.945  0.5466  0.7288  0.4634
   37DOPE  C314 4758   4.333   2.684   5.077  0.4097  0.4217  0.4166
   37DOPE  H14X 4759   4.224   2.686   5.057  0.4594  0.3609  0.1276
   37DOPE  H14Y 4760   4.345   2.747   5.168 -1.0873 -0.0917  1.0000
   37DOPE  C315 4761   4.389   2.550   5.131 -0.0184 -0.3250 -0.4847
   37DOPE  H15X 4762   4.499   2.562   5.124  0.2601  0.6117  3.3131
   37DOPE  H15Y 4763   4.364   2.464   5.065 -1.8644  0.3537 -0.7333
   37DOPE  C316 4764   4.344   2.533   5.278  0.1199  0.7324  0.4416
   37DOPE  H16X 4765   4.340   2.425   5.303 -1.9837  0.0059 -2.4913
   37DOPE  H16Y 4766   4.243   2.577   5.290  0.4646  1.8315 -0.5093
   37DOPE  C317 4767   4.437   2.599   5.379 -0.7249  0.2221  0.4425
   37DOPE  H17X 4768   4.541   2.566   5.356 -1.9188 -2.4256 -1.7547
   37DOPE  H17Y 4769   4.425   2.709   5.367 -1.5870  0.0897  0.0508
   37DOPE  C318 4770   4.410   2.558   5.522  0.8400  0.1076 -0.3839
   37DOPE  H18X 4771   4.323   2.616   5.561  0.1508 -0.2367 -1.3615
   37DOPE  H18Y 4772   4.377   2.451   5.524 -0.8990  0.6058  1.5820
   37DOPE  H18Z 4773   4.493   2.586   5.589  2.1615 -0.3909 -1.7627
   38DOPE     N 4774   4.741   4.758   2.785  0.1228 -0.2583 -0.0160
   38DOPE   HN1 4775   4.656   4.808   2.751  0.6385  0.4562 -0.2800
   38DOPE   HN2 4776   4.812   4.829   2.813 -0.8048  0.0343  1.7062
   38DOPE   HN3 4777   4.777   4.702   2.705  1.1487 -0.4744  0.5770
   38DOPE   C12 4778   4.715   4.696   2.916 -0.2438  0.0751  0.2252
   38DOPE  H12A 4779   4.625   4.632   2.907  0.5299 -1.1775  1.0519
   38DOPE  H12B 4780   4.694   4.782   2.982  1.9900  0.2359  0.8209
   38DOPE   C11 4781   4.835   4.613   2.966  0.5362 -0.8121  0.4742
   38DOPE  H11A 4782   4.837   4.523   2.901 -1.3427  0.6618 -1.7628
   38DOPE  H11B 4783   4.806   4.579   3.068 -0.9005 -1.3575 -0.0930
   38DOPE     P 4784   5.090   4.608   2.984 -0.1027  0.3048 -0.2003
   38DOPE   O13 4785   5.205   4.700   2.984  0.2554  0.3374  0.0611
   38DOPE   O14 4786   5.101   4.488   2.898  0.2291  0.1949 -1.0677
   38DOPE   O11 4787   5.064   4.566   3.127  0.2296 -0.2230 -0.4169
   38DOPE   O12 4788   4.961   4.682   2.954  0.0289 -0.3198  0.2328
   38DOPE    C1 4789   5.163   4.498   3.199  0.3819  0.2568 -0.2029
   38DOPE    HA 4790   5.248   4.452   3.143 -0.7735  0.5108 -2.2495
   38DOPE    HB 4791   5.113   4.410   3.246 -0.9537  2.3258  2.4765
   38DOPE    C2 4792   5.225   4.594   3.300  0.1150 -0.0070 -0.1467
   38DOPE    HS 4793   5.287   4.667   3.244  1.3019 -0.0424  1.0532
   38DOPE   O21 4794   5.306   4.528   3.397  0.5872 -0.2428  0.1476
   38DOPE   C21 4795   5.431   4.496   3.360  0.0820  0.6700 -0.0063
   38DOPE   O22 4796   5.471   4.511   3.246 -0.4620  0.1440  0.0941
   38DOPE   C22 4797   5.514   4.437   3.476 -1.0208  0.0474  0.3747
   38DOPE   H2R 4798   5.610   4.406   3.431 -0.4057  1.7041  0.4554
   38DOPE   H2S 4799   5.460   4.369   3.546 -0.4759  0.7217  1.4711
   38DOPE    C3 4800   5.122   4.669   3.382  0.4371  0.2732 -0.6376
   38DOPE    HX 4801   5.076   4.583   3.436  0.6179 -0.9516 -2.3221
   38DOPE    HY 4802   5.047   4.721   3.318  0.3145 -0.6913 -1.3121
   38DOPE   O31 4803   5.180   4.764   3.472  0.4810 -0.1181 -0.4072
   38DOPE   C31 4804   5.210   4.882   3.427  0.4791 -0.0303 -0.1991
   38DOPE   O32 4805   5.193   4.915   3.311 -0.1163 -0.2501 -0.2734
   38DOPE   C32 4806   5.285   4.966   3.535  0.1673 -0.3878 -0.4134
   38DOPE   H2X 4807   5.313   5.058   3.479 -0.0182 -1.3108 -2.0634
   38DOPE   H2Y 4808   5.204   4.989   3.607 -0.1094  1.4612 -1.2492
   38DOPE   C23 4809   5.556   4.551   3.572  0.6870  0.2701  0.6900
   38DOPE   H3R 4810   5.465   4.602   3.610 -0.6782  1.6289 -3.7574
   38DOPE   H3S 4811   5.610   4.628   3.512 -1.4072  0.0822 -1.5817
   38DOPE   C24 4812   5.634   4.496   3.688  0.1201 -0.6181 -0.2919
   38DOPE   H4R 4813   5.715   4.422   3.669  0.6527 -0.2099  0.3377
   38DOPE   H4S 4814   5.573   4.437   3.759 -1.3787  2.3396  1.0462
   38DOPE   C25 4815   5.686   4.602   3.781 -0.0546 -0.4055 -0.3767
   38DOPE   H5R 4816   5.600   4.662   3.819  0.1038 -1.4588  1.7900
   38DOPE   H5S 4817   5.753   4.670   3.724  0.3459 -1.4025 -1.1214
   38DOPE   C26 4818   5.752   4.548   3.908  1.0803 -0.1857 -0.0831
   38DOPE   H6R 4819   5.856   4.515   3.885  0.6844 -1.2537 -0.4085
   38DOPE   H6S 4820   5.701   4.452   3.929  2.8147 -1.3179 -0.8254
   38DOPE   C27 4821   5.767   4.643   4.025 -0.1447 -0.6884 -0.7950
   38DOPE   H7R 4822   5.666   4.672   4.060 -0.6710 -2.0106 -1.1553
   38DOPE   H7S 4823   5.803   4.740   3.984  0.4657 -0.1191  0.9925
   38DOPE   C28 4824   5.871   4.600   4.130  0.6284  0.0006  0.6378
   38DOPE   H8R 4825   5.919   4.691   4.172  2.9418 -1.7158  1.9106
   38DOPE   H8S 4826   5.954   4.545   4.080  0.0967  0.3159 -0.6360
   38DOPE   C29 4827   5.823   4.502   4.239  0.4523  0.4973 -0.5748
   38DOPE   H9R 4828   5.794   4.406   4.193  1.6423  0.2369 -0.8211
   38DOPE  C210 4829   5.825   4.513   4.371 -0.2662 -0.5186 -0.6448
   38DOPE  H10R 4830   5.792   4.431   4.436 -1.0307  0.0863 -0.2494
   38DOPE  C211 4831   5.881   4.636   4.446 -0.0548  0.6796 -0.3410
   38DOPE  H11R 4832   5.914   4.724   4.387  1.0751 -0.3228 -1.2508
   38DOPE  H11S 4833   5.972   4.609   4.504  0.8913  2.5425 -0.8747
   38DOPE  C212 4834   5.772   4.679   4.549 -0.2676  0.4465 -0.1079
   38DOPE  H12R 4835   5.728   4.588   4.595 -2.1468 -0.1606 -2.8616
   38DOPE  H12S 4836   5.690   4.729   4.495  0.6512 -0.2652 -2.2755
   38DOPE  C213 4837   5.821   4.778   4.662  0.3529  0.2896 -0.5669
   38DOPE  H13R 4838   5.906   4.746   4.724  1.8208  1.0658 -2.0811
   38DOPE  H13S 4839   5.742   4.792   4.739  0.5811  1.1605 -0.4814
   38DOPE  C214 4840   5.871   4.913   4.603 -0.1884  0.0386 -0.0435
   38DOPE  H14R 4841   5.803   4.938   4.519 -0.8177 -1.2773  0.0498
   38DOPE  H14S 4842   5.968   4.902   4.550 -0.1861 -1.5775  0.2401
   38DOPE  C215 4843   5.863   5.021   4.712 -0.2798 -0.9018  0.9444
   38DOPE  H15R 4844   5.925   5.000   4.802 -0.1988 -1.7273  0.7016
   38DOPE  H15S 4845   5.757   5.027   4.745 -0.0688 -0.3578  1.5574
   38DOPE  C216 4846   5.901   5.161   4.656 -0.4590  0.0947 -0.4445
   38DOPE  H16R 4847   5.828   5.197   4.580 -1.7463 -1.0135  0.2141
   38DOPE  H16S 4848   5.999   5.146   4.606  1.8230 -0.8844  3.8513
   38DOPE  C217 4849   5.932   5.267   4.764  0.7812  0.1068 -0.1181
   38DOPE  H17R 4850   5.964   5.362   4.718 -0.3565  0.0053 -1.1603
   38DOPE  H17S 4851   6.015   5.237   4.833 -0.4820  0.7544  1.7707
   38DOPE  C218 4852   5.808   5.308   4.847  0.1892 -0.5197 -0.1214
   38DOPE  H18R 4853   5.719   5.348   4.794  0.4824 -0.0657 -0.2794
   38DOPE  H18S 4854   5.841   5.386   4.920 -0.2108 -0.2510 -0.2205
   38DOPE  H18T 4855   5.771   5.227   4.913 -0.5749 -1.5524 -1.7683
   38DOPE   C33 4856   5.410   4.902   3.590 -0.5349 -0.1993 -0.3242
   38DOPE   H3X 4857   5.462   4.843   3.511  1.5793 -2.6002  2.6222
   38DOPE   H3Y 4858   5.388   4.836   3.677 -1.5138  0.1245 -0.3154
   38DOPE   C34 4859   5.508   5.008   3.642 -0.0968  0.0146  0.0431
   38DOPE   H4X 4860   5.586   4.964   3.707 -2.0285 -0.9056  1.8756
   38DOPE   H4Y 4861   5.550   5.064   3.556  0.4430 -2.1244 -1.1396
   38DOPE   C35 4862   5.444   5.104   3.743  0.5153 -0.5151 -0.8679
   38DOPE   H5X 4863   5.355   5.155   3.700 -0.8775 -0.4781  1.8047
   38DOPE   H5Y 4864   5.512   5.189   3.767 -0.2576 -0.3998  1.1319
   38DOPE   C36 4865   5.422   5.040   3.886 -0.1073 -0.4964  0.0028
   38DOPE   H6X 4866   5.356   4.952   3.869 -1.3856  0.3569  0.3515
   38DOPE   H6Y 4867   5.362   5.109   3.950  0.6489  1.2136 -1.0740
   38DOPE   C37 4868   5.549   4.985   3.955  0.2056 -0.0535  0.2364
   38DOPE   H7X 4869   5.581   4.887   3.913  0.1069  0.4352 -1.0162
   38DOPE   H7Y 4870   5.629   5.062   3.951 -0.4530  0.5800 -1.6948
   38DOPE   C38 4871   5.542   4.977   4.112 -0.9413 -0.0060 -0.5894
   38DOPE   H8X 4872   5.454   4.909   4.119 -0.3672 -0.6400  0.7401
   38DOPE   H8Y 4873   5.516   5.076   4.155 -1.2212  1.3137 -3.5517
   38DOPE   C39 4874   5.654   4.915   4.196  0.8038  0.7967  0.1230
   38DOPE   H9X 4875   5.631   4.815   4.237 -0.5784  1.4657  1.0728
   38DOPE  C310 4876   5.766   4.980   4.222  0.3255  0.4744  0.2202
   38DOPE  H10X 4877   5.844   4.919   4.271 -0.2904 -0.9663 -0.5119
   38DOPE  C311 4878   5.810   5.114   4.171 -0.3212 -0.0459  0.2430
   38DOPE  H11X 4879   5.876   5.104   4.083 -1.8222 -1.6452 -0.7607
   38DOPE  H11Y 4880   5.724   5.175   4.136 -1.3022 -0.8987  1.0831
   38DOPE  C312 4881   5.871   5.182   4.291  0.4132 -0.5432 -0.3524
   38DOPE  H12X 4882   5.963   5.129   4.323  1.5421  2.2540  1.3556
   38DOPE  H12Y 4883   5.794   5.190   4.371  0.2054 -1.2511 -0.4742
   38DOPE  C313 4884   5.925   5.324   4.263  0.2154  0.3801 -0.5175
   38DOPE  H13X 4885   6.018   5.321   4.203  0.2932  1.3810 -0.4703
   38DOPE  H13Y 4886   5.840   5.376   4.214 -0.0809  0.1227 -0.2817
   38DOPE  C314 4887   5.963   5.411   4.384  0.4426 -0.8784  0.3450
   38DOPE  H14X 4888   6.035   5.485   4.343  0.0210  1.2813  3.1155
   38DOPE  H14Y 4889   6.010   5.358   4.470 -1.4267 -1.1181  1.2576
   38DOPE  C315 4890   5.842   5.475   4.450 -0.4285  0.0850 -0.4280
   38DOPE  H15X 4891   5.783   5.396   4.500 -1.6168  1.8189  0.9976
   38DOPE  H15Y 4892   5.771   5.519   4.377 -0.9421  3.0959  1.6963
   38DOPE  C316 4893   5.872   5.588   4.546 -0.0435 -1.0318  0.4506
   38DOPE  H16X 4894   5.960   5.649   4.518 -0.0480 -0.6624  1.1974
   38DOPE  H16Y 4895   5.897   5.551   4.648  1.0494  1.6174  1.2302
   38DOPE  C317 4896   5.748   5.666   4.556  0.9386 -0.0138 -0.3470
   38DOPE  H17X 4897   5.729   5.725   4.464 -0.2249 -1.2608 -0.9429
   38DOPE  H17Y 4898   5.664   5.594   4.566  2.2643 -1.5022  0.4761
   38DOPE  C318 4899   5.754   5.759   4.672 -1.2255 -0.4617 -0.1949
   38DOPE  H18X 4900   5.829   5.841   4.657  0.7135 -2.2549 -0.8148
   38DOPE  H18Y 4901   5.660   5.816   4.688 -0.4559  0.7274  0.3343
   38DOPE  H18Z 4902   5.780   5.715   4.771 -3.1752 -1.4626 -0.0974
   39DOPE     N 4903   2.852   3.706   3.505 -0.4948  0.0356  0.6430
   39DOPE   HN1 4904   2.920   3.783   3.487 -1.4391  0.8758  0.6144
   39DOPE   HN2 4905   2.881   3.606   3.498 -0.1616  0.1407  0.5120
   39DOPE   HN3 4906   2.772   3.724   3.442  1.3284  0.2838 -1.7362
   39DOPE   C12 4907   2.801   3.722   3.647  0.2881  0.5532 -0.2177
   39DOPE  H12A 4908   2.709   3.661   3.650  1.0758 -0.6784 -0.4471
   39DOPE  H12B 4909   2.775   3.826   3.678 -1.7526  0.1103 -0.2977
   39DOPE   C11 4910   2.901   3.668   3.758  0.3364  0.6594  0.0926
   39DOPE  H11A 4911   2.855   3.676   3.859 -0.5580  0.5813 -0.2957
   39DOPE  H11B 4912   2.981   3.744   3.756 -1.1450  2.2707  0.2647
   39DOPE     P 4913   3.094   3.494   3.727 -0.2537 -0.2395 -0.2075
   39DOPE   O13 4914   3.174   3.589   3.643 -0.4206 -0.1000  0.2875
   39DOPE   O14 4915   3.097   3.352   3.697 -0.3072  0.0972  0.1074
   39DOPE   O11 4916   3.126   3.514   3.873  0.7469  0.7783 -0.0142
   39DOPE   O12 4917   2.944   3.535   3.721  0.4211 -0.0428 -0.7441
   39DOPE    C1 4918   3.075   3.440   3.986  0.0936 -0.2638 -0.0351
   39DOPE    HA 4919   3.170   3.406   4.033  0.6873  1.0228 -0.2816
   39DOPE    HB 4920   3.013   3.350   3.966  2.7990 -2.1587 -0.4671
   39DOPE    C2 4921   2.992   3.533   4.078  0.0386 -0.1996 -0.2510
   39DOPE    HS 4922   2.909   3.573   4.017  0.4563  2.4392  0.7968
   39DOPE   O21 4923   3.085   3.634   4.120 -0.6613  0.4524  0.0534
   39DOPE   C21 4924   3.039   3.753   4.116 -0.2450  0.3144  0.5388
   39DOPE   O22 4925   2.930   3.789   4.082  0.2120 -0.3726  0.0163
   39DOPE   C22 4926   3.148   3.858   4.150  0.4075 -0.3890  0.3695
   39DOPE   H2R 4927   3.206   3.872   4.057 -0.3443 -0.3445 -0.1052
   39DOPE   H2S 4928   3.213   3.817   4.230  0.0309  1.4103  1.6679
   39DOPE    C3 4929   2.932   3.465   4.198 -0.3131  0.4065  0.6458
   39DOPE    HX 4930   2.855   3.529   4.248 -2.3469  0.2976 -2.1124
   39DOPE    HY 4931   3.012   3.449   4.273 -2.0221  0.1500  2.5204
   39DOPE   O31 4932   2.875   3.336   4.176  0.3932 -0.3252 -0.4202
   39DOPE   C31 4933   2.883   3.248   4.268 -0.1229  0.2994  0.2546
   39DOPE   O32 4934   2.932   3.257   4.378  0.1214 -0.7096 -0.4346
   39DOPE   C32 4935   2.815   3.126   4.212 -0.4291  0.6120 -0.0734
   39DOPE   H2X 4936   2.719   3.149   4.162 -0.7780 -1.8614 -0.6709
   39DOPE   H2Y 4937   2.875   3.099   4.123  1.8347 -0.5272  1.6871
   39DOPE   C23 4938   3.099   3.993   4.195 -0.2195  0.0819 -0.3208
   39DOPE   H3R 4939   3.027   4.023   4.116  1.7846  1.3140 -1.7765
   39DOPE   H3S 4940   3.178   4.071   4.201  0.4453 -0.4977 -1.2205
   39DOPE   C24 4941   3.034   3.984   4.328  0.5390 -0.5982 -0.8064
   39DOPE   H4R 4942   3.117   3.978   4.402  1.7990 -0.9041 -2.1897
   39DOPE   H4S 4943   2.979   3.889   4.346  1.6133 -0.8128  1.8923
   39DOPE   C25 4944   2.950   4.104   4.370  0.2716 -0.8643 -0.9276
   39DOPE   H5R 4945   2.877   4.132   4.291 -1.4117  0.7834  1.1141
   39DOPE   H5S 4946   3.009   4.197   4.357  1.0140 -0.8134  2.1505
   39DOPE   C26 4947   2.882   4.113   4.511  0.9165 -0.0595  0.2825
   39DOPE   H6R 4948   2.946   4.071   4.592 -0.3488 -0.8984  0.8745
   39DOPE   H6S 4949   2.792   4.052   4.491  0.0659  0.7037  1.6153
   39DOPE   C27 4950   2.839   4.257   4.546 -0.2761  0.3099  0.4773
   39DOPE   H7R 4951   2.759   4.304   4.486  0.2271 -0.1280 -0.5626
   39DOPE   H7S 4952   2.933   4.315   4.532 -0.8516  1.0797 -0.2434
   39DOPE   C28 4953   2.790   4.281   4.690 -0.1551  0.0704  0.5222
   39DOPE   H8R 4954   2.752   4.384   4.709 -0.1145  0.1621  0.1298
   39DOPE   H8S 4955   2.873   4.271   4.763 -1.9697  2.1902  3.0693
   39DOPE   C29 4956   2.678   4.187   4.719 -0.7582  0.0968 -0.1336
   39DOPE   H9R 4957   2.636   4.139   4.630  0.9767 -0.7930 -0.5099
   39DOPE  C210 4958   2.641   4.147   4.841  0.3748 -0.0128  0.1767
   39DOPE  H10R 4959   2.576   4.059   4.849 -3.0381  2.1622 -1.1649
   39DOPE  C211 4960   2.705   4.197   4.966  0.0692 -0.3012 -0.0796
   39DOPE  H11R 4961   2.709   4.308   4.965  0.6234 -0.3185 -0.4697
   39DOPE  H11S 4962   2.813   4.170   4.964  0.6073  1.6291 -2.0917
   39DOPE  C212 4963   2.633   4.141   5.090 -0.0971  0.0275  0.2726
   39DOPE  H12R 4964   2.693   4.167   5.181 -1.4753 -1.7984  1.7939
   39DOPE  H12S 4965   2.625   4.031   5.078  2.4487 -0.1020 -0.8530
   39DOPE  C213 4966   2.497   4.203   5.099 -0.4164  0.7547 -0.0071
   39DOPE  H13R 4967   2.428   4.175   5.016 -1.9463  2.2845  0.6693
   39DOPE  H13S 4968   2.503   4.314   5.098 -2.1723  1.0019  3.0402
   39DOPE  C214 4969   2.422   4.176   5.238  0.4248  0.3595  0.1482
   39DOPE  H14R 4970   2.464   4.220   5.332  1.6555 -2.2716  0.9108
   39DOPE  H14S 4971   2.410   4.069   5.263 -1.7253  0.7456  0.9988
   39DOPE  C215 4972   2.290   4.245   5.237  0.2176 -0.1292  0.1399
   39DOPE  H15R 4973   2.227   4.206   5.320 -0.7144  1.3560  0.1688
   39DOPE  H15S 4974   2.239   4.212   5.144  1.6263 -0.1864 -0.6360
   39DOPE  C216 4975   2.310   4.396   5.248 -0.2003  0.1814  0.2785
   39DOPE  H16R 4976   2.322   4.438   5.146  0.0681 -0.5338  0.0078
   39DOPE  H16S 4977   2.396   4.435   5.307 -0.3490 -1.1538  1.4441
   39DOPE  C217 4978   2.189   4.462   5.313 -0.8010  0.5846 -0.0797
   39DOPE  H17R 4979   2.103   4.394   5.303  1.4187 -2.7653  1.7947
   39DOPE  H17S 4980   2.176   4.563   5.269  1.3283  1.0388  0.1978
   39DOPE  C218 4981   2.208   4.479   5.466 -0.0466 -0.1817  0.2688
   39DOPE  H18R 4982   2.215   4.378   5.511 -1.8259 -0.4270  0.0799
   39DOPE  H18S 4983   2.116   4.530   5.502 -0.6952 -1.5473  0.6018
   39DOPE  H18T 4984   2.307   4.521   5.493  0.9332 -1.5113 -1.1211
   39DOPE   C33 4985   2.801   3.013   4.317  0.1327  0.7081  0.6021
   39DOPE   H3X 4986   2.721   3.033   4.391  0.1949 -2.3357  1.6207
   39DOPE   H3Y 4987   2.895   2.998   4.375  0.7935 -1.8040 -0.9669
   39DOPE   C34 4988   2.766   2.880   4.250 -0.1546  0.2137 -0.0310
   39DOPE   H4X 4989   2.665   2.891   4.205  0.6077  1.6984 -1.4322
   39DOPE   H4Y 4990   2.842   2.870   4.170 -0.2968  2.2668 -0.4774
   39DOPE   C35 4991   2.768   2.744   4.321  0.4311  0.2218  0.8974
   39DOPE   H5X 4992   2.733   2.662   4.255  0.9103  1.1094 -0.5042
   39DOPE   H5Y 4993   2.697   2.745   4.406  0.1926  0.6454  0.6926
   39DOPE   C36 4994   2.910   2.700   4.366  0.0381  0.3985  0.1919
   39DOPE   H6X 4995   2.954   2.783   4.426 -0.5513 -0.2331  1.5337
   39DOPE   H6Y 4996   2.978   2.678   4.281  0.3418  0.2276  0.4797
   39DOPE   C37 4997   2.906   2.566   4.442  0.4137  0.1776 -0.2019
   39DOPE   H7X 4998   2.838   2.563   4.531  1.1322 -3.0508  0.3330
   39DOPE   H7Y 4999   2.872   2.491   4.368  2.5900 -1.8212  0.7030
   39DOPE   C38 5000   3.049   2.525   4.488  0.1304  0.1654 -0.7941
   39DOPE   H8X 5001   3.119   2.525   4.401 -1.0802 -2.6964 -1.8754
   39DOPE   H8Y 5002   3.056   2.416   4.505  0.8307 -0.2906 -3.4394
   39DOPE   C39 5003   3.117   2.613   4.587  0.5864  0.2803 -0.5180
   39DOPE   H9X 5004   3.136   2.709   4.536  1.5127  0.2631 -0.2154
   39DOPE  C310 5005   3.140   2.589   4.722 -0.5827 -0.2476 -0.1235
   39DOPE  H10X 5006   3.192   2.665   4.783  0.3263  0.7965 -2.0920
   39DOPE  C311 5007   3.094   2.466   4.796 -0.4065 -0.0728 -0.2211
   39DOPE  H11X 5008   3.026   2.487   4.881 -0.3316 -0.2141 -0.1261
   39DOPE  H11Y 5009   3.047   2.386   4.735  0.8938 -3.2505  2.6285
   39DOPE  C312 5010   3.210   2.392   4.864 -0.8306  0.4275 -0.2306
   39DOPE  H12X 5011   3.289   2.355   4.795 -0.6942  1.2022 -0.4992
   39DOPE  H12Y 5012   3.172   2.307   4.924 -1.0204  1.5894  1.3563
   39DOPE  C313 5013   3.277   2.484   4.972  0.4053  0.4000  0.5468
   39DOPE  H13X 5014   3.340   2.561   4.924  0.7477  0.7564  1.5399
   39DOPE  H13Y 5015   3.195   2.535   5.028  0.1686  1.1220 -0.4450
   39DOPE  C314 5016   3.359   2.412   5.071 -0.1878  0.5843  0.2738
   39DOPE  H14X 5017   3.434   2.347   5.022 -2.0703  0.0815 -2.0829
   39DOPE  H14Y 5018   3.298   2.344   5.134  0.5833 -2.4242 -1.9794
   39DOPE  C315 5019   3.437   2.511   5.162  0.4193  0.2894  0.2329
   39DOPE  H15X 5020   3.362   2.571   5.218  0.4798  3.6570 -2.8603
   39DOPE  H15Y 5021   3.499   2.585   5.106  1.2532  0.7691  1.7392
   39DOPE  C316 5022   3.531   2.447   5.262 -0.4984  1.4531 -0.8319
   39DOPE  H16X 5023   3.576   2.536   5.311 -1.0261  0.9515  0.6045
   39DOPE  H16Y 5024   3.619   2.390   5.225 -0.4919  1.0190 -0.1616
   39DOPE  C317 5025   3.474   2.365   5.373 -0.1656  0.1574 -0.8008
   39DOPE  H17X 5026   3.406   2.431   5.431  0.8550  3.5087 -3.1137
   39DOPE  H17Y 5027   3.415   2.282   5.329  0.5828 -0.0092 -1.4925
   39DOPE  C318 5028   3.578   2.300   5.462 -0.0922  0.0852  0.1256
   39DOPE  H18X 5029   3.647   2.229   5.412 -0.6345  1.1274 -2.2384
   39DOPE  H18Y 5030   3.635   2.385   5.506 -1.5583  1.0899  0.1772
   39DOPE  H18Z 5031   3.530   2.254   5.551  1.5865  0.3743  1.2291
   40DOPE     N 5032   4.427   5.798   2.682 -0.3392 -0.0417  0.6727
   40DOPE   HN1 5033   4.388   5.706   2.653  1.2510 -1.1531  1.8483
   40DOPE   HN2 5034   4.338   5.838   2.719 -0.6340 -1.0274  1.0704
   40DOPE   HN3 5035   4.457   5.848   2.596  1.6864 -0.7681  0.8879
   40DOPE   C12 5036   4.532   5.777   2.786  0.3935 -0.0033 -0.2971
   40DOPE  H12A 5037   4.616   5.722   2.737  0.2507 -0.2609 -0.2561
   40DOPE  H12B 5038   4.502   5.719   2.876  0.9837  2.6140  1.7332
   40DOPE   C11 5039   4.580   5.912   2.835 -0.1240  0.3502 -0.1525
   40DOPE  H11A 5040   4.665   5.888   2.903 -0.4651 -0.2381  0.0701
   40DOPE  H11B 5041   4.496   5.957   2.891  1.3611  1.7052  1.0899
   40DOPE     P 5042   4.766   5.996   2.667  0.0731  0.4577 -0.3818
   40DOPE   O13 5043   4.838   6.118   2.702 -0.2262 -1.0757  0.2574
   40DOPE   O14 5044   4.756   5.969   2.520  0.2353  0.8613  0.1935
   40DOPE   O11 5045   4.830   5.862   2.737  0.4969  0.1434  0.1029
   40DOPE   O12 5046   4.623   5.999   2.730 -0.7513 -0.2420  0.0987
   40DOPE    C1 5047   4.931   5.784   2.677 -0.5911 -0.1637 -0.4487
   40DOPE    HA 5048   5.025   5.841   2.697 -0.1797 -1.9333  3.6135
   40DOPE    HB 5049   4.929   5.778   2.566  1.9764 -0.4960 -0.5459
   40DOPE    C2 5050   4.962   5.650   2.748  0.1508  0.1867 -0.7773
   40DOPE    HS 5051   4.873   5.589   2.723 -0.4182 -0.0694  1.6100
   40DOPE   O21 5052   4.973   5.673   2.889 -0.0114  0.7078  0.4539
   40DOPE   C21 5053   4.864   5.659   2.964  0.5386 -0.3275  0.6462
   40DOPE   O22 5054   4.760   5.596   2.928 -0.4100  0.7812  0.4305
   40DOPE   C22 5055   4.876   5.718   3.098 -0.8269  1.2731  0.3312
   40DOPE   H2R 5056   4.920   5.820   3.090  3.3813 -0.0919  2.6162
   40DOPE   H2S 5057   4.962   5.672   3.152 -0.7106  1.6933  0.5097
   40DOPE    C3 5058   5.091   5.568   2.693  0.1031 -0.4508 -0.0296
   40DOPE    HX 5059   5.166   5.651   2.696 -1.1608  0.8664 -2.2259
   40DOPE    HY 5060   5.076   5.527   2.591  1.9396  0.4961 -0.7279
   40DOPE   O31 5061   5.126   5.454   2.779 -0.1698  0.5349  0.3861
   40DOPE   C31 5062   5.249   5.431   2.793 -0.4021  0.0618 -0.0518
   40DOPE   O32 5063   5.344   5.482   2.727 -0.2238  0.1547 -0.2795
   40DOPE   C32 5064   5.264   5.325   2.896  0.3340  0.0811 -0.0681
   40DOPE   H2X 5065   5.193   5.348   2.978  0.4231 -1.8938  0.6133
   40DOPE   H2Y 5066   5.236   5.230   2.846 -0.8871  0.3246  0.1117
   40DOPE   C23 5067   4.744   5.716   3.177  0.2427 -0.1624 -0.5431
   40DOPE   H3R 5068   4.708   5.618   3.215  0.4372  0.2482  0.7582
   40DOPE   H3S 5069   4.664   5.742   3.105 -1.8002 -1.5253  1.1219
   40DOPE   C24 5070   4.755   5.809   3.303 -0.0678 -0.2882 -0.2179
   40DOPE   H4R 5071   4.657   5.817   3.356 -0.7112 -2.2656 -1.0069
   40DOPE   H4S 5072   4.769   5.909   3.257 -1.9853  0.1656  0.0743
   40DOPE   C25 5073   4.872   5.777   3.396 -0.5074  0.6601  0.0175
   40DOPE   H5R 5074   4.967   5.781   3.339 -1.1987  0.8977 -1.1342
   40DOPE   H5S 5075   4.866   5.670   3.428  0.1911  0.0592 -1.7452
   40DOPE   C26 5076   4.886   5.873   3.511  0.6279 -0.4165 -0.1536
   40DOPE   H6R 5077   4.801   5.854   3.580  1.6421 -1.0990  0.9494
   40DOPE   H6S 5078   4.880   5.973   3.462 -0.0865 -1.2364 -1.8437
   40DOPE   C27 5079   5.010   5.852   3.594 -0.2899  0.1616  0.4189
   40DOPE   H7R 5080   5.097   5.865   3.527 -0.7801 -2.4317 -0.8518
   40DOPE   H7S 5081   5.009   5.752   3.642  2.8722  0.2442  0.8375
   40DOPE   C28 5082   5.037   5.959   3.704  0.4707  0.1395 -0.6820
   40DOPE   H8R 5083   4.947   5.942   3.767  0.1413 -0.4776 -1.2947
   40DOPE   H8S 5084   5.025   6.063   3.667  1.1454  1.2477  2.0323
   40DOPE   C29 5085   5.174   5.943   3.764 -0.4787 -0.1455 -0.1936
   40DOPE   H9R 5086   5.253   6.000   3.714 -0.5130 -0.1498 -0.2523
   40DOPE  C210 5087   5.208   5.860   3.865  0.0356  0.5301  0.1353
   40DOPE  H10R 5088   5.306   5.868   3.915  0.1318 -0.4259  0.1105
   40DOPE  C211 5089   5.115   5.769   3.932  0.3803  0.0425 -0.6371
   40DOPE  H11R 5090   5.140   5.663   3.913 -2.1329 -0.9270  0.9790
   40DOPE  H11S 5091   5.012   5.787   3.895 -0.1908 -1.7488  0.0178
   40DOPE  C212 5092   5.109   5.777   4.091 -0.3644 -0.1333  0.6174
   40DOPE  H12R 5093   5.016   5.723   4.121 -0.1616 -1.1642 -0.5207
   40DOPE  H12S 5094   5.102   5.883   4.124 -1.5468 -0.0680  0.2232
   40DOPE  C213 5095   5.229   5.700   4.150 -0.1943 -0.3741 -0.2215
   40DOPE  H13R 5096   5.322   5.760   4.139 -1.0971  1.0146 -0.5039
   40DOPE  H13S 5097   5.240   5.598   4.106 -0.7813  0.0913 -1.4829
   40DOPE  C214 5098   5.215   5.697   4.301 -0.4303  0.1459 -0.5640
   40DOPE  H14R 5099   5.121   5.642   4.324 -0.9136  0.9363 -0.6185
   40DOPE  H14S 5100   5.207   5.805   4.326 -3.3383  0.2258 -1.4964
   40DOPE  C215 5101   5.337   5.627   4.370  0.5768 -0.4632  0.4045
   40DOPE  H15R 5102   5.347   5.651   4.478  0.8324 -1.6474  0.6611
   40DOPE  H15S 5103   5.426   5.665   4.317  0.2097  2.9179  1.9791
   40DOPE  C216 5104   5.334   5.474   4.361 -0.0779  0.8123  0.4358
   40DOPE  H16R 5105   5.326   5.448   4.253  0.1869  1.0204  0.3641
   40DOPE  H16S 5106   5.243   5.419   4.390  0.9471 -1.4212 -0.3416
   40DOPE  C217 5107   5.458   5.406   4.422 -0.0446  0.2961  0.0667
   40DOPE  H17R 5108   5.450   5.407   4.533  2.2242 -2.6690  0.4079
   40DOPE  H17S 5109   5.546   5.464   4.384  0.3864 -2.1826 -3.1753
   40DOPE  C218 5110   5.467   5.253   4.387  0.1691 -0.5869 -0.2504
   40DOPE  H18R 5111   5.564   5.206   4.416  0.6266 -0.3445 -1.3323
   40DOPE  H18S 5112   5.447   5.233   4.280 -1.7690 -1.2295  0.1945
   40DOPE  H18T 5113   5.389   5.198   4.444 -0.1272  0.9804  0.9032
   40DOPE   C33 5114   5.403   5.327   2.954 -0.9221 -0.8879 -0.0669
   40DOPE   H3X 5115   5.403   5.416   3.020 -0.7157 -1.0881  0.2052
   40DOPE   H3Y 5116   5.480   5.348   2.877 -1.4239  0.2999 -0.2652
   40DOPE   C34 5117   5.436   5.199   3.030  0.3748 -0.3927  0.3418
   40DOPE   H4X 5118   5.415   5.112   2.964  3.1639 -1.1219  0.2915
   40DOPE   H4Y 5119   5.544   5.201   3.055  0.8630  3.0684 -1.3627
   40DOPE   C35 5120   5.362   5.186   3.167  0.8997  0.1572 -0.1084
   40DOPE   H5X 5121   5.382   5.086   3.212  2.1793  1.4303  2.3417
   40DOPE   H5Y 5122   5.252   5.198   3.161  0.5230 -2.8499 -1.0715
   40DOPE   C36 5123   5.414   5.282   3.273 -0.8053  0.7603  0.6080
   40DOPE   H6X 5124   5.482   5.353   3.221  0.3297 -0.0511  0.9616
   40DOPE   H6Y 5125   5.472   5.254   3.363  2.1574  2.5449 -0.5806
   40DOPE   C37 5126   5.304   5.367   3.347 -0.1540 -0.3397 -0.3029
   40DOPE   H7X 5127   5.227   5.414   3.283 -0.9709  0.2755  1.0954
   40DOPE   H7Y 5128   5.256   5.296   3.418 -1.3581 -0.0894 -0.8444
   40DOPE   C38 5129   5.375   5.490   3.406  0.1372 -0.9056 -0.5667
   40DOPE   H8X 5130   5.415   5.554   3.324 -0.2733 -0.5317 -0.4826
   40DOPE   H8Y 5131   5.469   5.458   3.455  1.4616  2.5771 -0.5383
   40DOPE   C39 5132   5.288   5.571   3.505 -0.4927  0.2084 -0.3022
   40DOPE   H9X 5133   5.217   5.643   3.461  1.0099  1.0213 -1.4746
   40DOPE  C310 5134   5.291   5.560   3.637 -0.0142 -0.6691 -0.1087
   40DOPE  H10X 5135   5.221   5.623   3.693  0.3131 -1.4764  1.2387
   40DOPE  C311 5136   5.381   5.466   3.721 -0.7048 -0.0834 -0.4076
   40DOPE  H11X 5137   5.321   5.395   3.781  0.7578 -0.5478  0.5493
   40DOPE  H11Y 5138   5.449   5.398   3.666  0.6804  1.1362 -0.2527
   40DOPE  C312 5139   5.463   5.550   3.817 -0.0102 -0.9434 -0.0906
   40DOPE  H12X 5140   5.403   5.614   3.885  0.6525 -0.5088  0.0989
   40DOPE  H12Y 5141   5.529   5.613   3.754 -0.6721  0.9552  1.0318
   40DOPE  C313 5142   5.551   5.468   3.912 -0.4455 -0.2967  0.4367
   40DOPE  H13X 5143   5.488   5.414   3.986 -1.3862 -1.9913 -1.4949
   40DOPE  H13Y 5144   5.599   5.394   3.844 -1.9177 -0.8103 -0.1070
   40DOPE  C314 5145   5.664   5.544   3.978  0.2312 -0.7427  0.1181
   40DOPE  H14X 5146   5.730   5.596   3.904 -0.3473 -0.0677  0.0713
   40DOPE  H14Y 5147   5.726   5.470   4.033 -1.6193 -1.1920  1.7089
   40DOPE  C315 5148   5.627   5.674   4.056 -0.1144 -0.1234 -0.3192
   40DOPE  H15X 5149   5.539   5.651   4.119  1.3426 -2.5918  0.9703
   40DOPE  H15Y 5150   5.604   5.752   3.980  0.6533  1.1041  0.6657
   40DOPE  C316 5151   5.743   5.721   4.143 -0.4861  0.3274 -0.0379
   40DOPE  H16X 5152   5.830   5.708   4.075  1.3249 -0.3432  2.2710
   40DOPE  H16Y 5153   5.761   5.661   4.235  0.9955  0.4160 -0.2528
   40DOPE  C317 5154   5.738   5.866   4.193 -0.7545  0.1540 -0.3501
   40DOPE  H17X 5155   5.748   5.926   4.100  2.6411  2.4459  1.2796
   40DOPE  H17Y 5156   5.645   5.894   4.245  0.6446  1.6783  1.4582
   40DOPE  C318 5157   5.851   5.898   4.292 -0.3701  0.7476 -0.0221
   40DOPE  H18X 5158   5.808   5.907   4.394  1.9784 -0.3381  1.1538
   40DOPE  H18Y 5159   5.932   5.822   4.287 -1.1285 -0.0329 -0.9208
   40DOPE  H18Z 5160   5.886   5.999   4.262 -0.4507  1.2077  1.3590
   41DOPE     N 5161   3.726   5.593   2.727  0.1599  0.1647  0.8907
   41DOPE   HN1 5162   3.794   5.603   2.648  0.4990 -1.8611  0.8539
   41DOPE   HN2 5163   3.705   5.491   2.729 -2.0007  0.4847 -1.1028
   41DOPE   HN3 5164   3.639   5.646   2.706  0.5282 -0.1762 -2.0414
   41DOPE   C12 5165   3.766   5.651   2.860 -0.0262  1.0438 -0.4631
   41DOPE  H12A 5166   3.755   5.762   2.856 -0.8919  1.0270  0.7595
   41DOPE  H12B 5167   3.872   5.621   2.870 -1.1500 -3.7559 -0.7271
   41DOPE   C11 5168   3.665   5.586   2.969  0.3158 -0.0596  0.8701
   41DOPE  H11A 5169   3.562   5.608   2.935  0.6983  1.4897  0.6758
   41DOPE  H11B 5170   3.697   5.629   3.067  0.6673 -0.1989  0.8191
   41DOPE     P 5171   3.793   5.372   3.056  0.0131 -0.4478 -0.4759
   41DOPE   O13 5172   3.923   5.447   3.059  0.5603 -0.3011 -0.4285
   41DOPE   O14 5173   3.791   5.226   3.024 -0.2439 -0.1722 -0.2990
   41DOPE   O11 5174   3.736   5.389   3.203  0.2774  0.2234  0.0204
   41DOPE   O12 5175   3.685   5.446   2.967  0.0785  0.2006  0.0785
   41DOPE    C1 5176   3.616   5.312   3.233  0.4274 -0.5401  0.4345
   41DOPE    HA 5177   3.638   5.203   3.234 -2.4869 -1.3542 -2.8900
   41DOPE    HB 5178   3.538   5.333   3.157 -2.2709 -2.7703  2.3884
   41DOPE    C2 5179   3.556   5.370   3.358 -0.2344  0.5255  0.1834
   41DOPE    HS 5180   3.551   5.481   3.350 -0.2354  0.5722  0.7572
   41DOPE   O21 5181   3.642   5.330   3.461 -0.2402  0.2406 -0.5695
   41DOPE   C21 5182   3.730   5.421   3.516  0.2753  0.5165  0.0848
   41DOPE   O22 5183   3.750   5.536   3.483  0.1578 -0.1811  0.3166
   41DOPE   C22 5184   3.782   5.356   3.640  0.0019 -0.2103  0.0798
   41DOPE   H2R 5185   3.852   5.277   3.604 -0.3903  0.6395 -2.8165
   41DOPE   H2S 5186   3.711   5.293   3.698  1.1874  0.2478  2.1270
   41DOPE    C3 5187   3.410   5.309   3.384 -1.1120  0.4505  0.3105
   41DOPE    HX 5188   3.421   5.202   3.355  1.1782  1.1771 -1.8576
   41DOPE    HY 5189   3.343   5.353   3.306 -0.6123  1.6207  0.5213
   41DOPE   O31 5190   3.374   5.322   3.523 -0.0084  0.0866 -0.2031
   41DOPE   C31 5191   3.248   5.282   3.538  0.3086 -0.0309 -0.5118
   41DOPE   O32 5192   3.173   5.242   3.453  0.3356  0.3517 -0.0673
   41DOPE   C32 5193   3.213   5.280   3.695 -0.2343  0.2814 -0.1179
   41DOPE   H2X 5194   3.268   5.194   3.739 -1.2661 -0.1773  0.3068
   41DOPE   H2Y 5195   3.260   5.370   3.739 -0.1872  0.9147 -1.4118
   41DOPE   C23 5196   3.838   5.459   3.743 -0.0060 -0.0268 -0.1213
   41DOPE   H3R 5197   3.757   5.523   3.782 -0.1300 -0.4425  0.3099
   41DOPE   H3S 5198   3.923   5.517   3.701  0.0517 -0.8901 -1.2680
   41DOPE   C24 5199   3.915   5.389   3.856 -0.0692 -0.9316  0.4505
   41DOPE   H4R 5200   4.020   5.365   3.829 -0.3715 -1.3486 -0.3955
   41DOPE   H4S 5201   3.860   5.296   3.883 -0.3793 -1.1682 -0.9134
   41DOPE   C25 5202   3.934   5.493   3.974 -0.3508  0.1138  0.3260
   41DOPE   H5R 5203   3.836   5.534   4.004 -0.8266  0.5878 -1.7193
   41DOPE   H5S 5204   3.982   5.580   3.922 -0.3349  1.0330  1.8245
   41DOPE   C26 5205   4.043   5.461   4.080 -0.3551  0.2581  1.0911
   41DOPE   H6R 5206   4.065   5.555   4.135  1.6328  0.0078  0.7739
   41DOPE   H6S 5207   4.137   5.430   4.030 -0.5242  2.2707 -0.5842
   41DOPE   C27 5208   3.986   5.357   4.179  0.8051  0.1176  0.1248
   41DOPE   H7R 5209   3.981   5.255   4.135 -0.7924 -0.1582  0.8695
   41DOPE   H7S 5210   3.885   5.395   4.205  0.4786  0.7363 -1.8749
   41DOPE   C28 5211   4.060   5.362   4.313 -0.4133  0.0116  0.5842
   41DOPE   H8R 5212   4.034   5.276   4.378 -1.5541  0.1163  0.2910
   41DOPE   H8S 5213   4.028   5.452   4.369  2.2450  0.8927  0.8418
   41DOPE   C29 5214   4.208   5.365   4.301  0.0674  0.1546 -0.4769
   41DOPE   H9R 5215   4.251   5.316   4.212 -0.0510  0.7181 -0.8525
   41DOPE  C210 5216   4.285   5.425   4.391 -0.0556  0.2054  0.0112
   41DOPE  H10R 5217   4.393   5.431   4.371 -0.4541  1.9644 -2.0597
   41DOPE  C211 5218   4.239   5.488   4.523 -0.3516 -0.2641 -0.3767
   41DOPE  H11R 5219   4.135   5.464   4.554 -0.5918  1.6090  0.4249
   41DOPE  H11S 5220   4.228   5.597   4.502 -0.8495 -0.5856 -1.9249
   41DOPE  C212 5221   4.330   5.465   4.649 -0.4384 -0.2725 -0.6136
   41DOPE  H12R 5222   4.430   5.500   4.614 -1.2472  0.4514 -2.3198
   41DOPE  H12S 5223   4.332   5.357   4.672  0.7310  0.3678  2.8394
   41DOPE  C213 5224   4.295   5.562   4.763  0.0436 -0.3129  0.0834
   41DOPE  H13R 5225   4.195   5.529   4.798  0.9024 -3.2326  0.1154
   41DOPE  H13S 5226   4.298   5.670   4.740 -0.3920 -0.5821 -1.2958
   41DOPE  C214 5227   4.396   5.539   4.882  0.1432 -0.1537  0.2491
   41DOPE  H14R 5228   4.501   5.540   4.844  0.6824  1.6003  1.6694
   41DOPE  H14S 5229   4.382   5.438   4.925  0.3451 -0.7640 -1.0474
   41DOPE  C215 5230   4.370   5.650   4.985 -0.2540 -0.3034  0.3571
   41DOPE  H15R 5231   4.266   5.627   5.019  0.0227  0.2003  1.5975
   41DOPE  H15S 5232   4.377   5.749   4.936 -1.5063 -0.9033 -1.1152
   41DOPE  C216 5233   4.451   5.648   5.115  0.1843 -0.3593 -0.8941
   41DOPE  H16R 5234   4.558   5.666   5.090 -0.0041 -0.1729 -1.6176
   41DOPE  H16S 5235   4.432   5.555   5.172  0.0540  1.2924  1.9389
   41DOPE  C217 5236   4.407   5.761   5.215 -0.4489 -0.0692 -0.1594
   41DOPE  H17R 5237   4.428   5.865   5.181 -0.8590 -0.4780 -1.7393
   41DOPE  H17S 5238   4.456   5.745   5.314 -1.5546  1.3643  0.6620
   41DOPE  C218 5239   4.256   5.765   5.238  0.0658 -0.7209 -0.1427
   41DOPE  H18R 5240   4.198   5.787   5.147 -1.0134 -0.7646  0.5211
   41DOPE  H18S 5241   4.230   5.848   5.307  1.5194 -0.5607  0.2508
   41DOPE  H18T 5242   4.217   5.671   5.283 -0.4470 -1.2999 -1.7332
   41DOPE   C33 5243   3.058   5.276   3.713 -0.2405 -0.3016 -0.7307
   41DOPE   H3X 5244   3.030   5.175   3.676 -2.3070 -1.2855  3.0170
   41DOPE   H3Y 5245   3.010   5.354   3.650  0.0796 -0.8597 -1.6797
   41DOPE   C34 5246   3.015   5.304   3.856  0.2533  0.3874  0.3096
   41DOPE   H4X 5247   2.912   5.265   3.874 -0.1804  1.4965  0.2990
   41DOPE   H4Y 5248   3.080   5.245   3.924 -0.7476 -0.9901  0.1210
   41DOPE   C35 5249   3.012   5.451   3.897 -0.7034  0.1247  0.1302
   41DOPE   H5X 5250   3.117   5.487   3.907 -0.4493 -0.5560 -0.0223
   41DOPE   H5Y 5251   2.959   5.459   3.994  0.1245  0.0597  0.5971
   41DOPE   C36 5252   2.929   5.531   3.802 -0.1067  0.2676  0.2019
   41DOPE   H6X 5253   2.835   5.473   3.788  0.4637 -0.6126 -0.0661
   41DOPE   H6Y 5254   2.990   5.543   3.709  1.1700  0.5812  1.0584
   41DOPE   C37 5255   2.880   5.671   3.860  0.4247  0.0704  0.4943
   41DOPE   H7X 5256   2.824   5.712   3.773  0.2207 -0.2182  0.4873
   41DOPE   H7Y 5257   2.824   5.648   3.952  0.5349  0.6020  0.6962
   41DOPE   C38 5258   2.999   5.767   3.890  0.9596 -0.2185 -0.4121
   41DOPE   H8X 5259   3.058   5.764   3.796  0.0706  0.9238 -1.0420
   41DOPE   H8Y 5260   3.060   5.725   3.973 -2.3265  1.4191  3.1429
   41DOPE   C39 5261   2.953   5.905   3.931 -0.1376 -0.2132 -0.2693
   41DOPE   H9X 5262   2.921   5.966   3.845 -2.1794  3.4331  2.7350
   41DOPE  C310 5263   2.933   5.958   4.052  0.0420  0.0363 -0.9762
   41DOPE  H10X 5264   2.878   6.053   4.061  1.7830  0.9344  1.0446
   41DOPE  C311 5265   2.953   5.876   4.182  0.4992 -0.2530  0.3487
   41DOPE  H11X 5266   2.985   5.774   4.151 -2.0292 -0.6592 -1.1870
   41DOPE  H11Y 5267   3.030   5.918   4.251 -1.5517  1.4491  1.7159
   41DOPE  C312 5268   2.828   5.882   4.266  0.1894 -0.0911 -0.4100
   41DOPE  H12X 5269   2.745   5.838   4.208 -0.6766 -0.7283  1.2378
   41DOPE  H12Y 5270   2.781   5.982   4.279 -1.7440 -0.8512 -1.2444
   41DOPE  C313 5271   2.857   5.825   4.398  0.6608 -0.3100 -0.0450
   41DOPE  H13X 5272   2.886   5.718   4.385  0.6813 -0.2878 -0.1817
   41DOPE  H13Y 5273   2.947   5.876   4.437  0.8205 -2.3757  2.5664
   41DOPE  C314 5274   2.745   5.826   4.510 -0.0760 -0.3031  0.3485
   41DOPE  H14X 5275   2.695   5.925   4.522  0.5295 -0.0144  0.5521
   41DOPE  H14Y 5276   2.800   5.817   4.606  0.2854 -2.1335  0.0018
   41DOPE  C315 5277   2.638   5.718   4.519  0.2877 -0.2564  0.7899
   41DOPE  H15X 5278   2.693   5.624   4.540 -1.0197 -1.1836  0.1666
   41DOPE  H15Y 5279   2.593   5.711   4.418 -0.2928 -0.6516  1.0691
   41DOPE  C316 5280   2.527   5.749   4.627 -0.0226 -0.2459  0.1797
   41DOPE  H16X 5281   2.470   5.843   4.609 -2.0264 -1.5236 -0.5673
   41DOPE  H16Y 5282   2.591   5.767   4.715  0.5437  0.8498 -0.4458
   41DOPE  C317 5283   2.427   5.634   4.640  0.3099  0.8719 -0.1331
   41DOPE  H17X 5284   2.329   5.672   4.676  0.1371 -0.6192  1.1194
   41DOPE  H17Y 5285   2.419   5.587   4.540  1.5339  0.9981 -0.3094
   41DOPE  C318 5286   2.479   5.525   4.739 -0.3794 -0.2866  0.0234
   41DOPE  H18X 5287   2.579   5.490   4.705 -0.7641  0.8590 -2.5075
   41DOPE  H18Y 5288   2.497   5.565   4.841  2.3348 -2.4552  0.5339
   41DOPE  H18Z 5289   2.417   5.435   4.757 -0.5444  0.0575  1.2496
   42DOPE     N 5290   3.004   5.226   3.246  0.0588 -0.2564  0.2265
   42DOPE   HN1 5291   3.071   5.225   3.166  2.7506  0.0770  2.3292
   42DOPE   HN2 5292   3.060   5.214   3.333 -1.5125 -0.8191  1.1851
   42DOPE   HN3 5293   2.946   5.141   3.230  0.7390 -0.8145  0.6711
   42DOPE   C12 5294   2.926   5.352   3.244  0.0164  1.1123 -0.3253
   42DOPE  H12A 5295   2.894   5.377   3.140  0.4368  0.6077 -0.5808
   42DOPE  H12B 5296   2.988   5.441   3.268 -0.7043  1.2792  0.9842
   42DOPE   C11 5297   2.798   5.359   3.337 -0.7262 -0.0281  0.1157
   42DOPE  H11A 5298   2.762   5.463   3.329 -0.4119 -0.0476 -2.2401
   42DOPE  H11B 5299   2.828   5.340   3.442 -0.0941  0.3051  0.0007
   42DOPE     P 5300   2.548   5.322   3.251 -0.1118  0.0462 -0.0373
   42DOPE   O13 5301   2.541   5.301   3.104 -0.0844 -0.8733 -0.3875
   42DOPE   O14 5302   2.526   5.462   3.296  0.1427 -0.0656 -0.4502
   42DOPE   O11 5303   2.451   5.237   3.333 -0.8535 -0.1169  0.7519
   42DOPE   O12 5304   2.693   5.273   3.295  0.3297  0.4931 -0.5874
   42DOPE    C1 5305   2.494   5.158   3.451 -0.4956  0.0057  0.7328
   42DOPE    HA 5306   2.585   5.098   3.431 -0.8623 -0.0279 -1.0017
   42DOPE    HB 5307   2.412   5.087   3.473 -0.6617  0.1597  0.6143
   42DOPE    C2 5308   2.507   5.249   3.575 -0.2932 -0.4191 -0.3161
   42DOPE    HS 5309   2.581   5.328   3.553  1.2353 -1.5413  0.5527
   42DOPE   O21 5310   2.540   5.162   3.696  0.2716  0.1803 -0.0860
   42DOPE   C21 5311   2.665   5.113   3.695  0.2154 -0.6187  0.0266
   42DOPE   O22 5312   2.750   5.133   3.609 -0.1335 -0.6199 -0.2694
   42DOPE   C22 5313   2.690   5.014   3.816  0.4764  0.5096 -0.4065
   42DOPE   H2R 5314   2.798   5.003   3.842 -0.1935  1.1409  3.1939
   42DOPE   H2S 5315   2.640   4.917   3.795 -0.5939 -0.0642  3.8771
   42DOPE    C3 5316   2.372   5.327   3.594 -0.2673 -0.3411 -0.1278
   42DOPE    HX 5317   2.295   5.249   3.577 -0.2910  0.1543 -2.5642
   42DOPE    HY 5318   2.364   5.397   3.508  0.2957  0.1507  0.2109
   42DOPE   O31 5319   2.353   5.389   3.729 -0.3474 -0.1371  0.2811
   42DOPE   C31 5320   2.426   5.493   3.759  0.1178  0.0616  0.1516
   42DOPE   O32 5321   2.505   5.550   3.686 -0.0517  0.2363  0.7444
   42DOPE   C32 5322   2.402   5.510   3.915 -0.6917  0.4524 -0.1003
   42DOPE   H2X 5323   2.291   5.514   3.918 -1.0069  0.9250 -4.9555
   42DOPE   H2Y 5324   2.442   5.418   3.963 -1.6950 -0.7219 -1.4304
   42DOPE   C23 5325   2.617   5.044   3.946 -0.4257 -0.5631 -0.5093
   42DOPE   H3R 5326   2.635   4.961   4.018  1.3081  2.5688  2.9785
   42DOPE   H3S 5327   2.507   5.048   3.931 -0.3681 -0.0847 -0.8228
   42DOPE   C24 5328   2.668   5.173   4.024  0.1388  0.2310  0.4995
   42DOPE   H4R 5329   2.628   5.268   3.983  2.0374  1.5800  1.5767
   42DOPE   H4S 5330   2.775   5.199   4.006 -0.4086  0.8360 -2.3099
   42DOPE   C25 5331   2.646   5.170   4.165 -0.3406 -0.3506  0.3433
   42DOPE   H5R 5332   2.708   5.086   4.203 -1.0123 -1.4435 -0.9118
   42DOPE   H5S 5333   2.536   5.157   4.175 -0.3346 -0.5730  0.1042
   42DOPE   C26 5334   2.681   5.294   4.251  0.0865  0.8495  0.1477
   42DOPE   H6R 5335   2.633   5.283   4.351 -1.1359 -1.7028 -0.6333
   42DOPE   H6S 5336   2.649   5.389   4.202 -0.3987  0.0063 -1.2265
   42DOPE   C27 5337   2.832   5.311   4.256 -1.0521  0.2075  0.2256
   42DOPE   H7R 5338   2.881   5.306   4.157 -0.0960 -2.6959  0.7304
   42DOPE   H7S 5339   2.880   5.232   4.319  1.4120 -1.1182 -3.0581
   42DOPE   C28 5340   2.880   5.443   4.302 -0.3498 -0.8719  0.7218
   42DOPE   H8R 5341   2.820   5.486   4.385 -0.3465  1.1683 -0.2672
   42DOPE   H8S 5342   2.856   5.508   4.215 -0.9864  0.4642  1.8430
   42DOPE   C29 5343   3.030   5.458   4.331 -0.2030  0.4008  0.0689
   42DOPE   H9R 5344   3.102   5.484   4.252  0.1075  0.1617  0.2673
   42DOPE  C210 5345   3.084   5.450   4.454  0.6697  1.1824 -0.3083
   42DOPE  H10R 5346   3.193   5.440   4.456  0.5810 -0.4578  2.4494
   42DOPE  C211 5347   3.008   5.431   4.580 -0.1343  0.0163  0.1789
   42DOPE  H11R 5348   3.047   5.354   4.650 -1.1328 -0.3269  0.3723
   42DOPE  H11S 5349   2.905   5.402   4.552 -0.6977  1.8408  0.2690
   42DOPE  C212 5350   2.986   5.565   4.649 -0.4407  0.4888  0.0583
   42DOPE  H12R 5351   2.932   5.623   4.570 -0.3606 -2.7404 -2.5989
   42DOPE  H12S 5352   3.080   5.622   4.664  0.0042 -0.2481  0.1080
   42DOPE  C213 5353   2.891   5.567   4.772  0.0123 -0.1208  0.1436
   42DOPE  H13R 5354   2.815   5.490   4.748 -0.4398  1.1477 -2.9638
   42DOPE  H13S 5355   2.837   5.664   4.782  1.9802  1.4353 -2.9686
   42DOPE  C214 5356   2.957   5.529   4.902  0.2737 -0.0070 -0.4889
   42DOPE  H14R 5357   3.036   5.602   4.930  0.8328 -0.1950 -1.5170
   42DOPE  H14S 5358   3.004   5.428   4.894  1.0371  0.3412 -0.4377
   42DOPE  C215 5359   2.855   5.528   5.014 -0.5490 -0.5574 -0.1444
   42DOPE  H15R 5360   2.766   5.465   4.993 -2.5013  0.8817  3.1553
   42DOPE  H15S 5361   2.810   5.629   5.029  1.7611  0.6837 -1.0316
   42DOPE  C216 5362   2.927   5.503   5.146  0.1850 -0.3097 -0.2902
   42DOPE  H16R 5363   2.998   5.585   5.169 -0.2315  0.3620 -1.3538
   42DOPE  H16S 5364   2.987   5.411   5.128  1.0468  0.2378 -0.2821
   42DOPE  C217 5365   2.840   5.471   5.264  0.1893 -1.0544  0.8810
   42DOPE  H17R 5366   2.787   5.374   5.254  0.9250 -1.3530 -0.5014
   42DOPE  H17S 5367   2.763   5.550   5.258  0.3635 -0.9805 -1.2017
   42DOPE  C218 5368   2.918   5.485   5.399 -0.3253  0.1530  0.6997
   42DOPE  H18R 5369   2.852   5.440   5.476 -2.3909 -0.2243 -1.1844
   42DOPE  H18S 5370   2.927   5.595   5.416 -2.2669  0.6618 -1.1546
   42DOPE  H18T 5371   3.016   5.437   5.382 -1.0184 -0.9877 -0.2099
   42DOPE   C33 5372   2.468   5.636   3.970  0.4442 -0.1764  0.4229
   42DOPE   H3X 5373   2.449   5.723   3.904  0.7593 -0.9610 -0.7279
   42DOPE   H3Y 5374   2.579   5.635   3.974  0.4465  1.3483  2.2801
   42DOPE   C34 5375   2.431   5.673   4.117 -0.1273  0.7505  0.5123
   42DOPE   H4X 5376   2.423   5.577   4.173 -2.1505  0.3029 -0.4513
   42DOPE   H4Y 5377   2.502   5.740   4.168  1.4830 -1.0522  0.7593
   42DOPE   C35 5378   2.293   5.728   4.134  0.2409  0.2005  0.6431
   42DOPE   H5X 5379   2.219   5.652   4.100  1.5543 -1.7207  1.8670
   42DOPE   H5Y 5380   2.290   5.816   4.068  1.1620  1.9337  2.7752
   42DOPE   C36 5381   2.249   5.751   4.281 -0.3983 -0.1704  0.4978
   42DOPE   H6X 5382   2.330   5.803   4.337  1.6918 -3.2726  0.6073
   42DOPE   H6Y 5383   2.239   5.652   4.331  0.9408 -0.1094  0.9211
   42DOPE   C37 5384   2.112   5.831   4.295 -0.0691 -0.2575 -1.0692
   42DOPE   H7X 5385   2.121   5.929   4.243  0.7757  0.4822  0.4113
   42DOPE   H7Y 5386   2.030   5.774   4.246 -0.5777 -2.5704  2.1877
   42DOPE   C38 5387   2.057   5.856   4.442 -0.1516  0.4683  0.2664
   42DOPE   H8X 5388   1.980   5.935   4.449  1.4120  2.1242 -0.3067
   42DOPE   H8Y 5389   2.149   5.882   4.498  0.4975  0.2206 -0.6534
   42DOPE   C39 5390   1.998   5.720   4.486  0.6039 -0.2766 -0.0830
   42DOPE   H9X 5391   2.002   5.654   4.398  1.9328  1.3951 -1.3430
   42DOPE  C310 5392   1.945   5.683   4.609  0.4732 -0.4646  0.0656
   42DOPE  H10X 5393   1.909   5.581   4.624  1.5237 -0.9309 -0.4689
   42DOPE  C311 5394   1.941   5.774   4.731 -0.2694  0.0742  0.4783
   42DOPE  H11X 5395   1.939   5.878   4.694 -3.1935 -0.0897 -0.0304
   42DOPE  H11Y 5396   1.843   5.757   4.781 -0.7645 -0.0756 -0.5132
   42DOPE  C312 5397   2.065   5.756   4.820  0.2650  0.1531  0.6631
   42DOPE  H12X 5398   2.059   5.835   4.898 -1.3550  0.1861  0.5362
   42DOPE  H12Y 5399   2.151   5.785   4.757 -1.3477 -1.0020 -2.2334
   42DOPE  C313 5400   2.077   5.609   4.880  0.3127 -0.5930  0.7998
   42DOPE  H13X 5401   1.981   5.586   4.930 -0.3411 -1.0573 -0.6224
   42DOPE  H13Y 5402   2.101   5.532   4.804 -1.9062 -1.5054  0.9481
   42DOPE  C314 5403   2.184   5.613   4.995 -0.0297  0.3761  0.1017
   42DOPE  H14X 5404   2.143   5.676   5.078 -2.1912  0.5661 -1.0387
   42DOPE  H14Y 5405   2.268   5.672   4.955 -0.5017  0.5827 -0.5934
   42DOPE  C315 5406   2.233   5.473   5.043 -0.1410 -0.7520 -0.3500
   42DOPE  H15X 5407   2.279   5.417   4.959  1.8235 -0.0891  0.2086
   42DOPE  H15Y 5408   2.143   5.418   5.078 -0.2637 -0.6563 -0.5199
   42DOPE  C316 5409   2.344   5.493   5.149  0.2553  0.3347  0.2859
   42DOPE  H16X 5410   2.305   5.559   5.229  0.0671  0.4295  0.1148
   42DOPE  H16Y 5411   2.439   5.534   5.109 -0.2639  0.8842 -0.4020
   42DOPE  C317 5412   2.362   5.359   5.224 -0.0441  0.0670 -0.7570
   42DOPE  H17X 5413   2.270   5.313   5.266  1.6864 -1.8330  1.2173
   42DOPE  H17Y 5414   2.397   5.289   5.145  0.0504 -1.1299  0.3273
   42DOPE  C318 5415   2.458   5.370   5.338  0.0426 -0.4762  0.0544
   42DOPE  H18X 5416   2.470   5.270   5.384  0.5618  0.6781  2.5695
   42DOPE  H18Y 5417   2.558   5.403   5.301 -0.3195  0.9320  0.3050
   42DOPE  H18Z 5418   2.422   5.431   5.423  1.8412  2.9825 -1.4502
   43DOPE     N 5419   2.788   2.977   3.403  0.7953 -0.2400 -0.0357
   43DOPE   HN1 5420   2.725   3.059   3.391 -0.0422 -1.0930 -1.7523
   43DOPE   HN2 5421   2.882   3.004   3.368  0.7599 -1.9763 -1.6092
   43DOPE   HN3 5422   2.748   2.911   3.334 -0.0035  0.7981 -0.6107
   43DOPE   C12 5423   2.785   2.922   3.539  0.5075 -0.4346  0.2677
   43DOPE  H12A 5424   2.854   2.983   3.602 -1.6411  0.9320  1.4101
   43DOPE  H12B 5425   2.822   2.817   3.538 -1.9885 -1.3703  0.1464
   43DOPE   C11 5426   2.637   2.928   3.592 -0.6265  0.4192 -0.1097
   43DOPE  H11A 5427   2.608   3.035   3.597 -1.3395  0.1791  1.7313
   43DOPE  H11B 5428   2.641   2.885   3.695 -0.9305 -1.4798 -0.8399
   43DOPE     P 5429   2.565   2.688   3.529  0.1500 -0.0850 -0.0556
   43DOPE   O13 5430   2.658   2.659   3.638  0.7697  0.2984 -0.3359
   43DOPE   O14 5431   2.593   2.629   3.395 -0.2554  0.2948 -0.1107
   43DOPE   O11 5432   2.420   2.645   3.568  0.1873 -0.0560  0.4241
   43DOPE   O12 5433   2.554   2.847   3.511  0.4619  0.5205  0.0201
   43DOPE    C1 5434   2.341   2.707   3.666  0.4424 -0.1702 -0.7164
   43DOPE    HA 5435   2.242   2.657   3.673  0.9575 -0.9596  2.5540
   43DOPE    HB 5436   2.324   2.814   3.640 -1.5801 -0.3275 -0.2369
   43DOPE    C2 5437   2.397   2.695   3.815 -0.2332  0.3158 -0.1680
   43DOPE    HS 5438   2.488   2.759   3.818  1.6798 -2.2546  2.9696
   43DOPE   O21 5439   2.423   2.556   3.855 -0.7496 -0.1483  0.2429
   43DOPE   C21 5440   2.509   2.544   3.946 -0.5423 -0.2162  1.0299
   43DOPE   O22 5441   2.575   2.634   3.997  0.3351  0.3845 -0.0622
   43DOPE   C22 5442   2.509   2.400   3.992  0.2044  0.5450 -0.5489
   43DOPE   H2R 5443   2.484   2.322   3.917  0.7148 -0.0577 -0.1049
   43DOPE   H2S 5444   2.424   2.395   4.064 -0.7778 -2.8776 -1.7305
   43DOPE    C3 5445   2.290   2.754   3.910  0.7022 -0.0723 -0.1105
   43DOPE    HX 5446   2.193   2.699   3.908  1.0061 -0.6773  0.8416
   43DOPE    HY 5447   2.273   2.849   3.855  1.0647  0.5167  0.7732
   43DOPE   O31 5448   2.347   2.798   4.035  0.1570  0.0835  0.4604
   43DOPE   C31 5449   2.324   2.718   4.135 -0.0026  0.2770 -0.5464
   43DOPE   O32 5450   2.280   2.606   4.134  0.4170  0.0049  0.4665
   43DOPE   C32 5451   2.373   2.792   4.262  0.1855  0.2599 -0.2132
   43DOPE   H2X 5452   2.478   2.760   4.275 -0.4546 -2.4562 -1.0535
   43DOPE   H2Y 5453   2.371   2.901   4.240  1.0837  0.4429  0.5400
   43DOPE   C23 5454   2.644   2.346   4.052  0.1368  0.0013 -0.3070
   43DOPE   H3R 5455   2.719   2.373   3.975  1.5898  0.3614  1.1809
   43DOPE   H3S 5456   2.643   2.235   4.063 -0.1071 -0.0952 -1.2273
   43DOPE   C24 5457   2.664   2.396   4.195  0.2562  0.4437 -0.0973
   43DOPE   H4R 5458   2.635   2.502   4.203 -2.6452 -0.2799  0.1375
   43DOPE   H4S 5459   2.766   2.362   4.223  0.2107  0.4010  0.0174
   43DOPE   C25 5460   2.577   2.320   4.287 -0.2498 -0.0535  0.2034
   43DOPE   H5R 5461   2.596   2.211   4.289 -0.4833 -0.0959  0.1782
   43DOPE   H5S 5462   2.476   2.325   4.242 -0.0958 -0.8863 -0.2402
   43DOPE   C26 5463   2.586   2.364   4.429  0.5963  0.2609  0.2554
   43DOPE   H6R 5464   2.596   2.473   4.443  0.9867  0.0038  2.2543
   43DOPE   H6S 5465   2.681   2.326   4.472  0.9308  1.0195  0.2002
   43DOPE   C27 5466   2.461   2.325   4.508 -0.7348  1.3859 -1.0543
   43DOPE   H7R 5467   2.476   2.217   4.533 -0.6307  1.3060 -1.4536
   43DOPE   H7S 5468   2.369   2.334   4.446 -1.2165 -0.0939 -0.6126
   43DOPE   C28 5469   2.437   2.410   4.635  0.0395  0.2120  0.1602
   43DOPE   H8R 5470   2.392   2.506   4.604  0.3397 -0.1833 -1.6152
   43DOPE   H8S 5471   2.534   2.421   4.687 -0.1724  1.9856  0.2293
   43DOPE   C29 5472   2.329   2.328   4.718  0.1469 -0.4685 -0.1262
   43DOPE   H9R 5473   2.365   2.237   4.768  1.4447 -0.7370 -1.4806
   43DOPE  C210 5474   2.195   2.355   4.736  0.4158  0.2215 -0.4924
   43DOPE  H10R 5475   2.134   2.284   4.794  1.9880 -1.6834 -1.0314
   43DOPE  C211 5476   2.109   2.468   4.682  0.1176 -0.1087  0.0361
   43DOPE  H11R 5477   2.026   2.426   4.621  0.5885  0.6616 -1.1815
   43DOPE  H11S 5478   2.174   2.531   4.616 -0.9717 -0.3886 -1.3536
   43DOPE  C212 5479   2.043   2.545   4.795  0.0556 -0.4618 -0.2186
   43DOPE  H12R 5480   1.996   2.630   4.740  1.4367  0.6309  0.2125
   43DOPE  H12S 5481   2.114   2.598   4.863  0.7148  1.4797 -2.3233
   43DOPE  C213 5482   1.921   2.470   4.856  0.2529 -0.1799 -0.0114
   43DOPE  H13R 5483   1.960   2.382   4.911 -0.9457 -0.8965 -0.2821
   43DOPE  H13S 5484   1.851   2.434   4.778  0.6403 -0.3938 -0.2641
   43DOPE  C214 5485   1.841   2.567   4.949  0.3357 -0.2498  0.1889
   43DOPE  H14R 5486   1.760   2.617   4.893 -0.8112 -2.2784 -0.0721
   43DOPE  H14S 5487   1.899   2.649   4.996  0.0526 -0.4057  0.8217
   43DOPE  C215 5488   1.756   2.492   5.052 -0.3148  0.2111  0.3807
   43DOPE  H15R 5489   1.827   2.426   5.106 -0.4890 -0.1343  0.1899
   43DOPE  H15S 5490   1.676   2.431   5.006 -0.8816  1.3284 -0.1628
   43DOPE  C216 5491   1.683   2.583   5.154 -0.1159 -0.1479 -0.4356
   43DOPE  H16R 5492   1.601   2.639   5.104  0.8101 -0.7017 -2.6990
   43DOPE  H16S 5493   1.755   2.658   5.194  0.5104  0.7612 -3.0099
   43DOPE  C217 5494   1.626   2.496   5.264  0.3517  0.5467 -0.0820
   43DOPE  H17R 5495   1.706   2.437   5.312  0.9044 -0.5323 -2.1992
   43DOPE  H17S 5496   1.548   2.433   5.216  0.1152  0.3754  0.5194
   43DOPE  C218 5497   1.549   2.574   5.377  0.6261 -0.7397  0.8291
   43DOPE  H18R 5498   1.617   2.659   5.403  1.5379 -0.2189 -2.6165
   43DOPE  H18S 5499   1.534   2.501   5.459 -2.0701 -1.3443 -0.1008
   43DOPE  H18T 5500   1.447   2.604   5.345  0.9521 -0.4887 -0.0178
   43DOPE   C33 5501   2.301   2.750   4.392  0.3799 -0.0227  0.2841
   43DOPE   H3X 5502   2.348   2.654   4.422  2.0927  0.9293  0.8381
   43DOPE   H3Y 5503   2.196   2.725   4.370 -0.0444  3.3781 -2.4512
   43DOPE   C34 5504   2.313   2.849   4.506 -0.4596  0.2471 -0.5653
   43DOPE   H4X 5505   2.249   2.936   4.483 -1.4639 -0.1329  0.6727
   43DOPE   H4Y 5506   2.272   2.806   4.600 -0.2234  0.9603 -0.1281
   43DOPE   C35 5507   2.453   2.893   4.532  0.1392 -0.4154 -0.1846
   43DOPE   H5X 5508   2.481   2.974   4.461  0.4701  0.2305  0.6656
   43DOPE   H5Y 5509   2.532   2.816   4.523  1.5678  1.0486 -0.5659
   43DOPE   C36 5510   2.470   2.962   4.672 -0.0666  0.5516 -0.0348
   43DOPE   H6X 5511   2.443   2.885   4.747 -0.5424  1.4992  0.7968
   43DOPE   H6Y 5512   2.401   3.049   4.674  0.7762  1.2078  1.2549
   43DOPE   C37 5513   2.613   3.019   4.705 -0.2367 -0.2556 -0.4931
   43DOPE   H7X 5514   2.630   3.112   4.647 -0.4947 -0.8142 -1.4890
   43DOPE   H7Y 5515   2.621   3.046   4.812 -1.7307 -0.0927 -0.4023
   43DOPE   C38 5516   2.723   2.930   4.660  0.4732 -0.0655 -0.4992
   43DOPE   H8X 5517   2.819   2.986   4.665  0.1589  0.4782 -0.4976
   43DOPE   H8Y 5518   2.710   2.913   4.551 -3.2567  1.9591 -0.5441
   43DOPE   C39 5519   2.738   2.795   4.735  0.1445  0.3070 -0.1111
   43DOPE   H9X 5520   2.664   2.719   4.704  0.6638  0.1126 -0.8928
   43DOPE  C310 5521   2.818   2.777   4.846 -0.3796  0.2551 -0.8804
   43DOPE  H10X 5522   2.820   2.688   4.910  0.9774  1.2225  0.5117
   43DOPE  C311 5523   2.904   2.876   4.917 -0.3623  0.0814  1.3184
   43DOPE  H11X 5524   3.008   2.838   4.905  0.0124  1.4220  0.0500
   43DOPE  H11Y 5525   2.896   2.967   4.854 -0.2680 -1.1797 -0.6197
   43DOPE  C312 5526   2.888   2.908   5.067 -0.3696  0.1593 -0.2291
   43DOPE  H12X 5527   2.784   2.941   5.089 -0.4748 -0.1197 -0.3060
   43DOPE  H12Y 5528   2.970   2.980   5.089  0.2392 -0.8195  0.8510
   43DOPE  C313 5529   2.914   2.783   5.149  0.5554 -0.1364 -0.1059
   43DOPE  H13X 5530   2.867   2.693   5.104  0.1976 -0.2246  0.4310
   43DOPE  H13Y 5531   3.023   2.762   5.142  1.2084  2.0334  2.0488
   43DOPE  C314 5532   2.870   2.804   5.299 -1.0171  0.1685  0.6673
   43DOPE  H14X 5533   2.891   2.910   5.326  0.6839  0.7274 -2.3713
   43DOPE  H14Y 5534   2.938   2.742   5.362 -0.1362 -0.0373 -0.4577
   43DOPE  C315 5535   2.721   2.773   5.327 -0.3731  0.0372  0.2819
   43DOPE  H15X 5536   2.719   2.662   5.331  2.6715 -0.1420 -0.3190
   43DOPE  H15Y 5537   2.665   2.803   5.236  0.9768  2.0968  0.0564
   43DOPE  C316 5538   2.652   2.844   5.446  0.2683 -0.5906 -0.1289
   43DOPE  H16X 5539   2.658   2.951   5.417  1.2075 -1.1487 -2.1763
   43DOPE  H16Y 5540   2.700   2.823   5.545 -0.0072  0.0604  0.1462
   43DOPE  C317 5541   2.504   2.811   5.441 -0.1336  0.1950 -0.0262
   43DOPE  H17X 5542   2.447   2.846   5.353  2.4192 -0.5711 -2.1164
   43DOPE  H17Y 5543   2.487   2.702   5.439  0.3570  0.0899  0.8708
   43DOPE  C318 5544   2.438   2.873   5.570  0.2028 -0.7474 -0.0089
   43DOPE  H18X 5545   2.457   2.980   5.593 -2.8670 -0.2961  0.8841
   43DOPE  H18Y 5546   2.329   2.854   5.562 -0.2678  1.9419 -1.0941
   43DOPE  H18Z 5547   2.461   2.808   5.657  0.8588 -1.8482 -0.9683
   44DOPE     N 5548   5.989   1.083   3.018  0.1130 -0.6204 -0.4224
   44DOPE   HN1 5549   5.924   1.152   3.061  0.8017 -0.4943  0.4501
   44DOPE   HN2 5550   5.938   0.993   3.022 -0.6505 -0.2204 -1.0065
   44DOPE   HN3 5551   6.079   1.077   3.070 -0.8454 -1.8434  1.2082
   44DOPE   C12 5552   6.037   1.110   2.871  0.5061  0.0736 -0.8148
   44DOPE  H12A 5553   6.124   1.048   2.841  0.0853 -0.5760 -0.6951
   44DOPE  H12B 5554   6.065   1.218   2.870  2.9626 -0.4889  0.0425
   44DOPE   C11 5555   5.920   1.092   2.770 -0.2013 -0.0549 -0.0488
   44DOPE  H11A 5556   5.900   0.983   2.777 -1.3774  0.0273 -1.5082
   44DOPE  H11B 5557   5.966   1.121   2.673  3.2621  1.4993  1.8760
   44DOPE     P 5558   5.730   1.263   2.714 -0.1326 -0.0731  0.2076
   44DOPE   O13 5559   5.643   1.181   2.630  0.1498 -0.1712 -0.2883
   44DOPE   O14 5560   5.822   1.358   2.652 -0.3001 -1.2155 -0.1835
   44DOPE   O11 5561   5.637   1.336   2.814  0.3232  0.2479 -0.1997
   44DOPE   O12 5562   5.806   1.173   2.823 -0.1655 -0.1079  0.1441
   44DOPE    C1 5563   5.658   1.450   2.895  0.5067  0.1368 -0.1634
   44DOPE    HA 5564   5.565   1.506   2.919 -0.4253 -1.7993  0.9445
   44DOPE    HB 5565   5.722   1.529   2.850 -0.4803  0.6476 -0.7223
   44DOPE    C2 5566   5.719   1.407   3.032 -0.4127 -0.4773  1.0631
   44DOPE    HS 5567   5.811   1.351   3.003  0.8490  1.5412  1.0069
   44DOPE   O21 5568   5.621   1.336   3.097  0.3348  0.8081 -0.5886
   44DOPE   C21 5569   5.668   1.227   3.155  0.5375 -0.4362  0.6157
   44DOPE   O22 5570   5.783   1.179   3.164  0.2996  0.2084 -0.0063
   44DOPE   C22 5571   5.537   1.156   3.210 -0.3459  1.0325 -0.8992
   44DOPE   H2R 5572   5.559   1.047   3.220 -1.0611  0.6239 -3.1528
   44DOPE   H2S 5573   5.459   1.168   3.132 -1.2287  1.3100  0.0095
   44DOPE    C3 5574   5.779   1.524   3.116  0.2306  0.4593 -0.0228
   44DOPE    HX 5575   5.695   1.575   3.168 -0.0700  1.6707 -1.6189
   44DOPE    HY 5576   5.827   1.603   3.054  1.4470  0.6721  1.1346
   44DOPE   O31 5577   5.868   1.473   3.215 -0.0416 -0.3089 -0.2276
   44DOPE   C31 5578   5.994   1.444   3.173 -0.2000  0.1682 -0.7054
   44DOPE   O32 5579   6.025   1.446   3.056 -0.2014  0.8890 -0.4133
   44DOPE   C32 5580   6.077   1.387   3.292  0.3238 -0.4381 -0.9191
   44DOPE   H2X 5581   6.041   1.443   3.381 -0.2864 -3.4713  0.9071
   44DOPE   H2Y 5582   6.057   1.279   3.312  0.5010 -0.6878 -2.0227
   44DOPE   C23 5583   5.495   1.225   3.342 -0.3306 -0.1045  0.0505
   44DOPE   H3R 5584   5.394   1.182   3.363 -0.1052 -0.0630  1.2723
   44DOPE   H3S 5585   5.486   1.333   3.318 -1.2242 -0.4967 -1.5822
   44DOPE   C24 5586   5.600   1.205   3.454 -0.2651 -0.4206  0.3330
   44DOPE   H4R 5587   5.707   1.202   3.424 -1.2423 -1.9272 -3.5770
   44DOPE   H4S 5588   5.582   1.116   3.517  0.1836 -0.9703 -0.3018
   44DOPE   C25 5589   5.574   1.316   3.556  0.0979 -0.1268  0.6324
   44DOPE   H5R 5590   5.476   1.298   3.605 -0.0519  1.4521  0.9551
   44DOPE   H5S 5591   5.568   1.415   3.505 -0.9350 -1.0735 -1.2042
   44DOPE   C26 5592   5.691   1.319   3.655 -0.3187  0.2482 -0.0942
   44DOPE   H6R 5593   5.780   1.328   3.589 -0.1068 -0.2378  0.1132
   44DOPE   H6S 5594   5.703   1.223   3.710  0.6297  1.3841  1.8129
   44DOPE   C27 5595   5.686   1.449   3.742 -0.7128 -0.3037  0.1459
   44DOPE   H7R 5596   5.608   1.441   3.821 -1.5352  3.6322 -0.0563
   44DOPE   H7S 5597   5.652   1.536   3.682 -1.5214 -1.4534 -1.1129
   44DOPE   C28 5598   5.825   1.492   3.804  0.5018  0.0340 -0.0681
   44DOPE   H8R 5599   5.901   1.482   3.723  0.6408 -0.6398  0.1426
   44DOPE   H8S 5600   5.843   1.417   3.884 -3.4768 -2.0019 -0.8347
   44DOPE   C29 5601   5.811   1.630   3.853 -0.8609 -0.7312 -0.2647
   44DOPE   H9R 5602   5.792   1.705   3.775  0.4001 -0.1035 -0.0042
   44DOPE  C210 5603   5.824   1.673   3.975 -0.0932 -0.6015  0.1540
   44DOPE  H10R 5604   5.828   1.781   3.995  0.7388 -0.5627 -0.1970
   44DOPE  C211 5605   5.853   1.593   4.099 -0.1681 -0.3641  1.2921
   44DOPE  H11R 5606   5.963   1.574   4.090 -0.3521 -0.6453 -1.1208
   44DOPE  H11S 5607   5.795   1.498   4.100 -1.5909  0.4382  3.9573
   44DOPE  C212 5608   5.811   1.663   4.235  0.1314  0.1836 -0.1837
   44DOPE  H12R 5609   5.816   1.601   4.327  2.4441  0.4802 -0.0322
   44DOPE  H12S 5610   5.706   1.694   4.214  0.6445  1.4672 -1.0091
   44DOPE  C213 5611   5.888   1.785   4.285  0.1274 -0.5248 -0.0068
   44DOPE  H13R 5612   5.898   1.857   4.201 -0.0848 -0.3985  0.0768
   44DOPE  H13S 5613   5.995   1.769   4.310 -0.2805 -0.2261  2.1690
   44DOPE  C214 5614   5.817   1.854   4.405 -0.3202 -0.3971 -0.0486
   44DOPE  H14R 5615   5.765   1.785   4.475 -0.0652  1.0981  1.6701
   44DOPE  H14S 5616   5.745   1.929   4.368 -0.4736 -0.4693  0.1028
   44DOPE  C215 5617   5.911   1.940   4.493 -0.1869 -0.2314  0.4867
   44DOPE  H15R 5618   5.954   2.016   4.424 -1.7279 -0.9123 -1.3222
   44DOPE  H15S 5619   5.992   1.881   4.539  0.8101 -0.1742 -1.0998
   44DOPE  C216 5620   5.841   2.003   4.615  0.1355 -0.1372 -0.0774
   44DOPE  H16R 5621   5.818   1.930   4.695  1.5716 -1.3200 -0.7106
   44DOPE  H16S 5622   5.745   2.037   4.571 -0.9468 -1.1164  1.4316
   44DOPE  C217 5623   5.928   2.116   4.679  0.1828 -0.1839 -0.3957
   44DOPE  H17R 5624   5.949   2.186   4.595  2.2347  0.4316  0.5614
   44DOPE  H17S 5625   6.024   2.063   4.696 -0.9534 -2.1889  0.1511
   44DOPE  C218 5626   5.865   2.171   4.812 -0.3389 -0.0761 -0.0166
   44DOPE  H18R 5627   5.930   2.239   4.870 -4.3243  3.4911  0.7951
   44DOPE  H18S 5628   5.837   2.076   4.862 -1.6565 -0.1954 -0.9209
   44DOPE  H18T 5629   5.772   2.230   4.797 -0.3315  0.0469  0.4274
   44DOPE   C33 5630   6.237   1.393   3.285  0.1287  0.2698 -0.0829
   44DOPE   H3X 5631   6.259   1.494   3.244  0.2006  0.4955  0.5022
   44DOPE   H3Y 5632   6.278   1.314   3.219  0.9959  1.1425 -0.6246
   44DOPE   C34 5633   6.304   1.404   3.426  0.1082  0.2649 -0.0330
   44DOPE   H4X 5634   6.263   1.485   3.490  0.5033 -1.9616  3.3343
   44DOPE   H4Y 5635   6.286   1.310   3.483  0.4327 -1.0379 -1.9937
   44DOPE   C35 5636   6.457   1.425   3.410 -0.1297  0.2161 -0.2585
   44DOPE   H5X 5637   6.483   1.476   3.314  0.5298 -0.1532 -0.2822
   44DOPE   H5Y 5638   6.495   1.320   3.402 -0.2048 -0.0827  2.4894
   44DOPE   C36 5639   6.526   1.498   3.519 -0.9978 -0.2590  0.8046
   44DOPE   H6X 5640   6.502   1.445   3.614  1.6005  0.6640  2.0629
   44DOPE   H6Y 5641   6.486   1.601   3.522  0.6750  0.4523 -0.1622
   44DOPE   C37 5642   6.676   1.492   3.503  0.2348  0.0242  0.0838
   44DOPE   H7X 5643   6.697   1.383   3.492  0.9695  0.1777 -0.1398
   44DOPE   H7Y 5644   6.699   1.559   3.417 -1.1128  2.3231  1.4171
   44DOPE   C38 5645   6.773   1.546   3.610 -0.0587  0.1025 -0.2041
   44DOPE   H8X 5646   6.760   1.484   3.701 -0.1357  1.8855  1.0337
   44DOPE   H8Y 5647   6.745   1.650   3.634  0.9273  0.9167 -2.2962
   44DOPE   C39 5648   6.912   1.547   3.553  0.1487  0.2015  0.1950
   44DOPE   H9X 5649   6.915   1.469   3.475 -3.0418  0.9085 -0.7500
   44DOPE  C310 5650   7.016   1.621   3.596 -0.4850  0.1671 -0.0835
   44DOPE  H10X 5651   7.109   1.618   3.537  0.5762 -1.3363  1.5669
   44DOPE  C311 5652   7.001   1.721   3.711  0.1891  0.9573 -0.6516
   44DOPE  H11X 5653   7.087   1.792   3.710  0.5248  0.5590 -0.5898
   44DOPE  H11Y 5654   6.918   1.795   3.713 -0.3147  0.4014 -0.8593
   44DOPE  C312 5655   6.995   1.647   3.852 -0.1906 -0.5539 -0.2395
   44DOPE  H12X 5656   7.094   1.618   3.895 -1.1870 -2.0169  1.1924
   44DOPE  H12Y 5657   6.950   1.547   3.834  1.0997 -1.2665  0.3584
   44DOPE  C313 5658   6.927   1.726   3.969 -0.3992 -0.3359 -0.5045
   44DOPE  H13X 5659   6.817   1.732   3.954 -0.7462 -1.0174  1.5283
   44DOPE  H13Y 5660   6.933   1.672   4.065  0.6262 -1.4491 -1.1718
   44DOPE  C314 5661   6.983   1.869   3.982 -0.2487  0.0873 -0.0998
   44DOPE  H14X 5662   6.965   1.923   3.887  0.7760 -1.7023 -1.3871
   44DOPE  H14Y 5663   7.094   1.867   3.988 -0.2798 -0.2745  0.4343
   44DOPE  C315 5664   6.931   1.961   4.096  0.2184  0.0051 -0.2459
   44DOPE  H15X 5665   6.845   2.018   4.055  0.0902  0.0219  0.0437
   44DOPE  H15Y 5666   7.008   2.033   4.131  0.9608 -0.1127 -1.5692
   44DOPE  C316 5667   6.905   1.886   4.234 -0.7706  0.7466  0.3215
   44DOPE  H16X 5668   6.995   1.823   4.253 -0.8401  0.3518 -0.5875
   44DOPE  H16Y 5669   6.820   1.816   4.224  0.3572 -0.6436  0.1930
   44DOPE  C317 5670   6.890   1.974   4.356  0.1856  0.1678 -0.3919
   44DOPE  H17X 5671   6.913   1.905   4.440  5.3945  1.3394 -0.5293
   44DOPE  H17Y 5672   6.965   2.056   4.355  0.1839  0.1675 -0.4908
   44DOPE  C318 5673   6.753   2.048   4.356  0.0964  0.7984 -0.0711
   44DOPE  H18X 5674   6.741   2.112   4.446 -0.3288  0.1908  0.3123
   44DOPE  H18Y 5675   6.749   2.104   4.260  0.1188  0.4993 -0.2460
   44DOPE  H18Z 5676   6.677   1.968   4.360  0.4047  0.5263  0.3404
   45DOPE     N 5677   4.518   1.009   3.264  0.4133 -0.0396 -0.2667
   45DOPE   HN1 5678   4.492   0.914   3.231  0.1864  0.1407 -0.6141
   45DOPE   HN2 5679   4.618   1.002   3.292 -0.5270 -0.0607  3.7345
   45DOPE   HN3 5680   4.464   1.022   3.352 -0.2642 -2.5485 -0.2459
   45DOPE   C12 5681   4.500   1.114   3.160 -0.0332 -0.0009 -0.5592
   45DOPE  H12A 5682   4.535   1.208   3.208  0.5506 -1.5511  2.3505
   45DOPE  H12B 5683   4.395   1.124   3.126 -0.8529  0.0691  1.7959
   45DOPE   C11 5684   4.589   1.071   3.044 -0.1595 -0.3786 -0.0105
   45DOPE  H11A 5685   4.582   1.146   2.962 -1.0441  0.5024  0.8356
   45DOPE  H11B 5686   4.555   0.975   2.999  2.9874 -1.3563 -0.5235
   45DOPE     P 5687   4.835   1.086   2.997 -0.0840  0.4125 -0.1973
   45DOPE   O13 5688   4.858   1.227   3.009  0.2710  0.1425 -0.0208
   45DOPE   O14 5689   4.794   1.026   2.865  0.5162  0.4625 -0.2871
   45DOPE   O11 5690   4.964   1.002   3.036 -0.0719 -0.0683 -0.4424
   45DOPE   O12 5691   4.724   1.044   3.090  0.0167 -0.0265 -0.4992
   45DOPE    C1 5692   4.951   0.865   3.081 -0.0645 -0.3420 -0.3751
   45DOPE    HA 5693   5.031   0.809   3.027  0.5308  0.5739 -0.4677
   45DOPE    HB 5694   4.853   0.816   3.065 -1.2083  1.2948  1.2256
   45DOPE    C2 5695   4.980   0.869   3.233  0.1533 -0.6289 -0.8240
   45DOPE    HS 5696   4.950   0.969   3.271 -0.9402 -1.5584  0.9147
   45DOPE   O21 5697   5.114   0.831   3.258  0.6562  0.5407  0.4646
   45DOPE   C21 5698   5.194   0.923   3.305 -0.5046  0.3644 -0.1211
   45DOPE   O22 5699   5.158   1.039   3.319  0.4186 -0.0262  0.1280
   45DOPE   C22 5700   5.326   0.864   3.340  0.5805  0.6274  0.3432
   45DOPE   H2R 5701   5.405   0.941   3.349  0.2752  1.1342 -1.0523
   45DOPE   H2S 5702   5.337   0.784   3.263  1.9173 -0.7529  1.9015
   45DOPE    C3 5703   4.900   0.761   3.315 -0.3251  0.1818  0.3194
   45DOPE    HX 5704   4.913   0.656   3.279  0.7989  0.5252 -0.3140
   45DOPE    HY 5705   4.793   0.767   3.287  0.1255  2.5571 -1.1216
   45DOPE   O31 5706   4.920   0.778   3.453 -0.0440 -0.6383  0.3343
   45DOPE   C31 5707   4.831   0.864   3.506  0.3700  0.7789 -0.7495
   45DOPE   O32 5708   4.752   0.933   3.443 -0.1776 -0.3208  0.2906
   45DOPE   C32 5709   4.847   0.862   3.659  0.5848  0.1301 -0.1044
   45DOPE   H2X 5710   4.861   0.969   3.685 -1.5145  0.7919 -1.4651
   45DOPE   H2Y 5711   4.748   0.847   3.707 -0.2141 -0.2195 -1.7780
   45DOPE   C23 5712   5.326   0.797   3.482 -0.1441  0.5587  0.4123
   45DOPE   H3R 5713   5.408   0.722   3.475 -0.7989 -0.0546 -1.1338
   45DOPE   H3S 5714   5.235   0.737   3.500 -0.0437  1.1515  3.2315
   45DOPE   C24 5715   5.347   0.903   3.592  0.4470 -0.3826 -0.5605
   45DOPE   H4R 5716   5.260   0.972   3.596  1.5924  1.0746  0.1641
   45DOPE   H4S 5717   5.440   0.961   3.573 -1.2956  1.8660 -2.8389
   45DOPE   C25 5718   5.356   0.824   3.731 -0.6558  0.1864 -0.5185
   45DOPE   H5R 5719   5.419   0.735   3.707  0.8986  0.8978  0.7323
   45DOPE   H5S 5720   5.258   0.780   3.760 -0.0584  0.5233  2.2625
   45DOPE   C26 5721   5.404   0.907   3.845 -0.7686 -0.0820 -0.2303
   45DOPE   H6R 5722   5.359   1.009   3.847 -0.8998 -0.1485  0.9293
   45DOPE   H6S 5723   5.512   0.930   3.838 -0.9030  0.5809 -0.2235
   45DOPE   C27 5724   5.366   0.843   3.980 -0.2202  0.2957 -0.4906
   45DOPE   H7R 5725   5.400   0.737   3.981  0.3614  0.3863  3.1639
   45DOPE   H7S 5726   5.255   0.844   3.987 -0.3967  0.5280 -2.6527
   45DOPE   C28 5727   5.445   0.902   4.095 -0.0676 -0.3769 -0.0270
   45DOPE   H8R 5728   5.434   1.013   4.095 -0.8802 -0.4349  0.9787
   45DOPE   H8S 5729   5.549   0.888   4.061  0.2234  1.9262 -0.2004
   45DOPE   C29 5730   5.395   0.869   4.227 -0.0965  0.5690 -0.2275
   45DOPE   H9R 5731   5.299   0.906   4.265  0.0005 -0.4890  1.1387
   45DOPE  C210 5732   5.465   0.788   4.310  0.3496  0.3212  0.2251
   45DOPE  H10R 5733   5.411   0.740   4.393 -0.5584  0.6968 -0.1345
   45DOPE  C211 5734   5.600   0.741   4.273 -0.1338 -0.1477 -0.1480
   45DOPE  H11R 5735   5.675   0.822   4.262  1.4294 -1.4700  0.3911
   45DOPE  H11S 5736   5.594   0.680   4.180  0.3605  0.1938 -0.4081
   45DOPE  C212 5737   5.657   0.637   4.367 -0.3122  0.1126 -0.2699
   45DOPE  H12R 5738   5.750   0.590   4.329 -0.7714 -2.9389  1.9824
   45DOPE  H12S 5739   5.584   0.556   4.389  0.1462  0.2073  1.7798
   45DOPE  C213 5740   5.695   0.701   4.502 -0.3616 -0.7212 -0.4733
   45DOPE  H13R 5741   5.601   0.741   4.546  1.5237  0.9099  2.3050
   45DOPE  H13S 5742   5.757   0.791   4.483 -1.0329 -0.4231 -1.3509
   45DOPE  C214 5743   5.762   0.602   4.596 -0.3991 -0.2575  0.5521
   45DOPE  H14R 5744   5.862   0.582   4.553 -0.4509  0.1994  0.2101
   45DOPE  H14S 5745   5.705   0.506   4.603 -0.9702  0.0969  0.8918
   45DOPE  C215 5746   5.779   0.659   4.739  0.6208  0.1177 -0.1334
   45DOPE  H15R 5747   5.676   0.656   4.782  0.6019 -1.2625 -0.2313
   45DOPE  H15S 5748   5.804   0.767   4.731 -0.2774  0.4604  1.2924
   45DOPE  C216 5749   5.867   0.577   4.827 -0.1113 -0.3322 -0.7420
   45DOPE  H16R 5750   5.962   0.556   4.773  0.8361 -0.5176  0.9345
   45DOPE  H16S 5751   5.827   0.475   4.844  1.7824 -0.8003  1.3354
   45DOPE  C217 5752   5.906   0.647   4.955  0.7703  0.2619  0.4538
   45DOPE  H17R 5753   5.951   0.742   4.918  0.5720  0.8687  1.6933
   45DOPE  H17S 5754   5.988   0.604   5.016  1.5480  1.0407 -0.0072
   45DOPE  C218 5755   5.795   0.694   5.046 -0.6459  0.9808 -0.5547
   45DOPE  H18R 5756   5.699   0.706   4.991 -1.3048  1.1224  0.5892
   45DOPE  H18S 5757   5.827   0.784   5.103 -0.7131 -0.1553  1.3844
   45DOPE  H18T 5758   5.774   0.616   5.123  0.0858  2.1739  0.9114
   45DOPE   C33 5759   4.954   0.771   3.729 -0.3261  0.1328 -0.2596
   45DOPE   H3X 5760   5.050   0.776   3.674 -0.4190  1.1504 -0.3573
   45DOPE   H3Y 5761   4.916   0.667   3.722 -0.7450  0.3649 -1.8863
   45DOPE   C34 5762   4.985   0.795   3.884  0.1129  0.1062  0.1621
   45DOPE   H4X 5763   5.078   0.747   3.920 -1.0685 -1.3111  1.4797
   45DOPE   H4Y 5764   4.996   0.904   3.901 -1.9743  0.0454  2.3610
   45DOPE   C35 5765   4.873   0.752   3.982 -0.1145 -0.0869  0.4957
   45DOPE   H5X 5766   4.834   0.658   3.937 -2.0777  1.7329 -1.8311
   45DOPE   H5Y 5767   4.782   0.816   3.976  0.8041  1.3799  1.4835
   45DOPE   C36 5768   4.917   0.739   4.127  0.3385  0.4640  0.0699
   45DOPE   H6X 5769   4.986   0.652   4.137 -1.3419 -1.0212 -0.6570
   45DOPE   H6Y 5770   4.827   0.714   4.186 -0.4599 -1.7670 -1.9246
   45DOPE   C37 5771   4.974   0.870   4.184  0.2152  0.0912  0.1687
   45DOPE   H7X 5772   5.084   0.880   4.175  0.3857 -1.4776  0.3092
   45DOPE   H7Y 5773   4.920   0.949   4.127  1.4379  0.8145 -0.0102
   45DOPE   C38 5774   4.938   0.879   4.331  0.1559  0.3706  0.2339
   45DOPE   H8X 5775   4.992   0.801   4.387  0.0059 -0.3516 -0.6026
   45DOPE   H8Y 5776   4.830   0.852   4.335  0.4631 -0.9016  0.2709
   45DOPE   C39 5777   4.965   1.024   4.368  0.0314  0.1090  0.8608
   45DOPE   H9X 5778   4.926   1.098   4.297  0.6077 -0.0538  0.3542
   45DOPE  C310 5779   5.061   1.062   4.453 -0.3874  0.3764 -0.5714
   45DOPE  H10X 5780   5.068   1.170   4.474 -2.4609  0.0495  2.5504
   45DOPE  C311 5781   5.151   0.965   4.535  0.1378  0.1076  0.5892
   45DOPE  H11X 5782   5.081   0.904   4.596  1.1313 -0.3450  1.2964
   45DOPE  H11Y 5783   5.206   0.900   4.464  2.9243 -0.3642  2.9779
   45DOPE  C312 5784   5.260   1.033   4.619  0.2599  0.3890  0.6113
   45DOPE  H12X 5785   5.285   0.949   4.687 -0.1848 -0.8751 -0.7504
   45DOPE  H12Y 5786   5.216   1.115   4.680 -3.2647 -0.5853 -0.4202
   45DOPE  C313 5787   5.373   1.075   4.521 -0.3062  0.4175  0.1182
   45DOPE  H13X 5788   5.412   0.974   4.497  0.0029  0.0707  1.9011
   45DOPE  H13Y 5789   5.333   1.129   4.433 -1.0820  0.9111  0.7654
   45DOPE  C314 5790   5.486   1.149   4.599  0.1983 -0.3237  0.2584
   45DOPE  H14X 5791   5.441   1.230   4.660  1.5468  2.6597 -2.4047
   45DOPE  H14Y 5792   5.563   1.192   4.531  0.1367 -2.2446 -1.0929
   45DOPE  C315 5793   5.562   1.055   4.696 -0.0848  1.0780 -0.9235
   45DOPE  H15X 5794   5.627   0.994   4.629 -2.0060 -1.4274 -0.6503
   45DOPE  H15Y 5795   5.490   0.986   4.744  0.1194  1.0722 -0.6204
   45DOPE  C316 5796   5.624   1.130   4.812 -0.0387 -0.4431  0.2253
   45DOPE  H16X 5797   5.551   1.202   4.854  2.0645  1.2122  1.2847
   45DOPE  H16Y 5798   5.707   1.187   4.765  0.6714 -1.2435  0.4839
   45DOPE  C317 5799   5.673   1.040   4.933  0.3464  0.0218  0.5385
   45DOPE  H17X 5800   5.749   0.968   4.895 -0.1375  0.5115 -1.4758
   45DOPE  H17Y 5801   5.711   1.107   5.013  0.9905 -1.3292  1.3904
   45DOPE  C318 5802   5.540   0.973   4.993  0.1084 -0.0460 -0.0616
   45DOPE  H18X 5803   5.520   0.888   4.924  0.6424  0.7951 -1.2733
   45DOPE  H18Y 5804   5.567   0.926   5.090  1.2815 -1.0018 -0.8232
   45DOPE  H18Z 5805   5.451   1.039   5.001 -0.6826 -0.8866 -1.6054
   46DOPE     N 5806   6.518   5.663   2.957 -0.1144  0.1419 -0.1801
   46DOPE   HN1 5807   6.546   5.595   3.031  0.1020  0.5110  0.0824
   46DOPE   HN2 5808   6.414   5.663   2.957 -0.1220 -0.5882  0.2214
   46DOPE   HN3 5809   6.571   5.652   2.868  1.3625 -2.6670  0.8772
   46DOPE   C12 5810   6.562   5.795   3.015 -0.2160 -0.2007  0.2582
   46DOPE  H12A 5811   6.558   5.865   2.928  1.0244 -0.9090 -0.3853
   46DOPE  H12B 5812   6.666   5.794   3.052  0.7244 -0.0538 -2.1757
   46DOPE   C11 5813   6.469   5.843   3.125 -0.5423  0.0234 -0.1736
   46DOPE  H11A 5814   6.503   5.947   3.148 -1.5496  0.2824  0.1876
   46DOPE  H11B 5815   6.510   5.789   3.213 -1.5209 -0.3986  0.0260
   46DOPE     P 5816   6.245   5.919   3.034 -0.2519 -0.0131  0.2919
   46DOPE   O13 5817   6.283   5.898   2.892  0.0948  0.2135  0.1073
   46DOPE   O14 5818   6.273   6.059   3.077  0.3126 -0.3448  0.1678
   46DOPE   O11 5819   6.095   5.884   3.062 -0.7354 -0.1863 -0.1492
   46DOPE   O12 5820   6.329   5.814   3.112  0.1305 -0.0538  0.3654
   46DOPE    C1 5821   6.062   5.802   3.175 -0.2757 -0.3820  0.3147
   46DOPE    HA 5822   6.131   5.825   3.258  1.7725 -0.9904 -1.1340
   46DOPE    HB 5823   6.066   5.696   3.143 -2.6420 -0.0531 -1.3388
   46DOPE    C2 5824   5.925   5.839   3.230  0.4963 -0.7183 -0.1542
   46DOPE    HS 5825   5.896   5.774   3.314 -2.3804 -1.2944 -1.4673
   46DOPE   O21 5826   5.822   5.845   3.126 -0.7703  0.6259 -0.0697
   46DOPE   C21 5827   5.746   5.742   3.114  0.1113  0.6485 -0.3270
   46DOPE   O22 5828   5.765   5.626   3.140  0.1839  0.3158 -0.1818
   46DOPE   C22 5829   5.612   5.793   3.062 -0.3571  0.6600  0.3729
   46DOPE   H2R 5830   5.634   5.814   2.955 -0.8324 -1.6799 -0.2390
   46DOPE   H2S 5831   5.595   5.893   3.109 -1.8373  0.3705  0.5113
   46DOPE    C3 5832   5.925   5.989   3.281  0.6675 -0.1069  0.5391
   46DOPE    HX 5833   5.827   6.030   3.312  0.3906  0.3734 -0.9143
   46DOPE    HY 5834   5.960   6.059   3.202  1.4299  0.8058  1.6564
   46DOPE   O31 5835   6.023   6.001   3.382 -0.1749  0.5076  0.8249
   46DOPE   C31 5836   6.067   6.128   3.418  0.1494  0.4189  0.1143
   46DOPE   O32 5837   6.015   6.229   3.369 -0.4579  0.0946  0.0688
   46DOPE   C32 5838   6.182   6.118   3.515  0.4383 -0.8159  0.1048
   46DOPE   H2X 5839   6.144   6.077   3.611  4.6029  1.2394  2.9380
   46DOPE   H2Y 5840   6.261   6.056   3.469 -0.1546 -1.2246 -0.3803
   46DOPE   C23 5841   5.493   5.691   3.079  0.2735 -0.0360  0.5138
   46DOPE   H3R 5842   5.466   5.688   3.187  3.3574 -0.2092  1.3632
   46DOPE   H3S 5843   5.532   5.590   3.057 -1.1050 -0.6351  0.7178
   46DOPE   C24 5844   5.364   5.730   2.999  0.1770  0.5196 -0.3017
   46DOPE   H4R 5845   5.279   5.659   3.010 -0.8387  1.7094 -0.2318
   46DOPE   H4S 5846   5.387   5.743   2.891 -0.2236  0.8788 -0.3466
   46DOPE   C25 5847   5.306   5.868   3.046 -0.7193  0.0592 -0.1133
   46DOPE   H5R 5848   5.394   5.936   3.033 -0.2353 -0.6494 -0.5837
   46DOPE   H5S 5849   5.281   5.860   3.154  0.5308 -2.7067  0.0580
   46DOPE   C26 5850   5.186   5.910   2.966  0.3072  0.0338 -0.6505
   46DOPE   H6R 5851   5.100   5.844   2.990 -2.5413  3.7752  0.3027
   46DOPE   H6S 5852   5.215   5.900   2.859 -1.7948  1.0783 -1.3644
   46DOPE   C27 5853   5.144   6.058   2.991 -0.2602 -0.1413 -0.1648
   46DOPE   H7R 5854   5.069   6.091   2.916  0.3734  1.4833 -0.1167
   46DOPE   H7S 5855   5.228   6.128   2.971 -0.1596 -0.4520 -0.8617
   46DOPE   C28 5856   5.081   6.085   3.130 -0.1724  0.4744  0.0583
   46DOPE   H8R 5857   5.143   6.055   3.217 -2.4972 -0.5353  1.4602
   46DOPE   H8S 5858   4.990   6.022   3.138 -0.0552  0.2259 -0.5289
   46DOPE   C29 5859   5.033   6.228   3.145 -0.2126  0.1224 -0.6585
   46DOPE   H9R 5860   4.975   6.255   3.055 -0.6022 -0.4044 -0.5669
   46DOPE  C210 5861   5.048   6.312   3.245  0.1091  0.3164  0.4209
   46DOPE  H10R 5862   4.997   6.408   3.230  0.0632  0.4761  1.5442
   46DOPE  C211 5863   5.121   6.296   3.374  0.5019  0.3076  0.5713
   46DOPE  H11R 5864   5.220   6.340   3.351 -0.3281  1.0006 -1.9641
   46DOPE  H11S 5865   5.123   6.190   3.410 -0.8968  1.0529  3.0817
   46DOPE  C212 5866   5.054   6.389   3.486 -0.1899  0.6014 -0.5389
   46DOPE  H12R 5867   4.950   6.352   3.498 -0.1603  1.3337  2.7120
   46DOPE  H12S 5868   5.053   6.494   3.449  2.2733  0.9219  0.1602
   46DOPE  C213 5869   5.138   6.379   3.620 -0.0922  0.7514  0.5577
   46DOPE  H13R 5870   5.246   6.399   3.606 -0.0253  0.0369 -0.0073
   46DOPE  H13S 5871   5.127   6.275   3.656  4.2493  0.0179  0.2252
   46DOPE  C214 5872   5.080   6.471   3.725  0.1607  0.6873  0.1228
   46DOPE  H14R 5873   4.970   6.464   3.735  0.1162  2.6120  1.5502
   46DOPE  H14S 5874   5.109   6.578   3.718  0.8650  0.6601  2.1235
   46DOPE  C215 5875   5.129   6.434   3.868 -0.4029 -0.1107 -0.1798
   46DOPE  H15R 5876   5.238   6.443   3.890 -0.7302  0.1428  1.4490
   46DOPE  H15S 5877   5.096   6.335   3.905  0.1932  0.2795  1.4850
   46DOPE  C216 5878   5.059   6.520   3.973 -0.6451 -0.0024 -0.2609
   46DOPE  H16R 5879   4.949   6.501   3.973 -0.5998 -0.4666  1.9980
   46DOPE  H16S 5880   5.085   6.626   3.953  1.6767 -0.2026  1.3623
   46DOPE  C217 5881   5.120   6.492   4.115  0.7418 -0.3460  0.3376
   46DOPE  H17R 5882   5.221   6.538   4.118  1.3984 -1.7415  3.3589
   46DOPE  H17S 5883   5.130   6.383   4.129 -0.6160 -0.8265 -1.8918
   46DOPE  C218 5884   5.053   6.560   4.232  0.6005 -0.2421 -0.1363
   46DOPE  H18R 5885   5.114   6.540   4.323 -1.0450 -0.2350  1.0027
   46DOPE  H18S 5886   4.948   6.524   4.240 -0.1667  1.8297 -0.3009
   46DOPE  H18T 5887   5.055   6.670   4.217  0.3284  0.0492  1.7789
   46DOPE   C33 5888   6.249   6.259   3.538  0.1370  0.4239  0.2541
   46DOPE   H3X 5889   6.313   6.286   3.451 -1.4296 -2.5303 -2.0326
   46DOPE   H3Y 5890   6.319   6.233   3.620 -0.1234 -0.4713  0.2070
   46DOPE   C34 5891   6.176   6.377   3.595 -0.7638  0.0732 -0.3306
   46DOPE   H4X 5892   6.088   6.396   3.529  0.4997  0.2409 -2.0555
   46DOPE   H4Y 5893   6.144   6.345   3.696 -0.2145 -1.3371 -0.5760
   46DOPE   C35 5894   6.264   6.505   3.620 -0.0979  0.3115 -0.4615
   46DOPE   H5X 5895   6.331   6.506   3.532  2.1485  0.8336  1.1458
   46DOPE   H5Y 5896   6.326   6.490   3.712  0.1167  2.2739 -0.2492
   46DOPE   C36 5897   6.177   6.628   3.644 -0.0709 -0.2768  0.6398
   46DOPE   H6X 5898   6.242   6.699   3.700 -0.3188  0.2752  0.2337
   46DOPE   H6Y 5899   6.083   6.595   3.692 -0.8496  2.2123  0.9613
   46DOPE   C37 5900   6.139   6.692   3.507 -0.1136  0.1688 -0.3744
   46DOPE   H7X 5901   6.238   6.712   3.461  0.6244 -0.8979  0.6854
   46DOPE   H7Y 5902   6.087   6.624   3.437  1.0408  1.0491 -2.1472
   46DOPE   C38 5903   6.049   6.811   3.508 -0.0461 -0.4244  0.5446
   46DOPE   H8X 5904   6.058   6.880   3.421  2.0979  2.7295  3.0261
   46DOPE   H8Y 5905   6.093   6.871   3.591  0.5273 -0.7732  0.4960
   46DOPE   C39 5906   5.917   6.787   3.557  1.1372  0.5412 -0.2496
   46DOPE   H9X 5907   5.909   6.765   3.665 -0.3935 -1.4721 -0.6997
   46DOPE  C310 5908   5.799   6.786   3.492 -0.2080  0.0511  0.3091
   46DOPE  H10X 5909   5.706   6.744   3.534  0.0631 -1.4928 -0.5492
   46DOPE  C311 5910   5.787   6.810   3.340 -0.5125  0.5006 -0.0732
   46DOPE  H11X 5911   5.880   6.841   3.290  0.0826  0.1516  0.7944
   46DOPE  H11Y 5912   5.746   6.719   3.292 -0.6074  0.7536 -0.4723
   46DOPE  C312 5913   5.685   6.921   3.320  0.4715 -0.1878 -0.7765
   46DOPE  H12X 5914   5.720   7.010   3.376 -0.8382 -1.1042  1.6318
   46DOPE  H12Y 5915   5.597   6.891   3.380  1.7354  2.2330  2.6045
   46DOPE  C313 5916   5.658   6.974   3.181 -0.7114  0.3720  0.1025
   46DOPE  H13X 5917   5.615   6.887   3.126  1.9784 -1.9975  1.4707
   46DOPE  H13Y 5918   5.576   7.047   3.189 -2.2138 -1.1076 -0.9984
   46DOPE  C314 5919   5.778   7.028   3.103  0.2480  0.0363 -0.0437
   46DOPE  H14X 5920   5.829   6.947   3.047 -0.2307 -0.5792  0.4036
   46DOPE  H14Y 5921   5.845   7.087   3.170  0.1772  0.6707 -0.5221
   46DOPE  C315 5922   5.722   7.129   3.004 -0.3413 -0.0434 -0.2257
   46DOPE  H15X 5923   5.661   7.204   3.058  0.4145  0.5202 -0.1518
   46DOPE  H15Y 5924   5.651   7.067   2.943  0.1780  0.5561 -1.4726
   46DOPE  C316 5925   5.830   7.177   2.905 -0.2249  0.0351  0.6955
   46DOPE  H16X 5926   5.840   7.107   2.820 -0.6832 -0.3667  0.9652
   46DOPE  H16Y 5927   5.922   7.164   2.966 -0.5962  0.6738  1.4205
   46DOPE  C317 5928   5.818   7.324   2.862  0.2461 -0.3261  0.5388
   46DOPE  H17X 5929   5.732   7.337   2.792  1.6320 -1.5657 -1.5164
   46DOPE  H17Y 5930   5.815   7.395   2.947  0.3046  1.9920 -1.2692
   46DOPE  C318 5931   5.936   7.375   2.783 -0.3523 -0.1896 -0.3185
   46DOPE  H18X 5932   6.033   7.350   2.829 -1.1875 -0.7526  1.2008
   46DOPE  H18Y 5933   5.934   7.324   2.684 -0.5321 -1.0666  0.1304
   46DOPE  H18Z 5934   5.927   7.483   2.761 -1.7139 -0.4554 -1.2309
   47DOPE     N 5935   2.592   5.790   3.269  0.0567 -0.7143  0.0536
   47DOPE   HN1 5936   2.505   5.842   3.293 -0.4819 -1.3576 -0.4869
   47DOPE   HN2 5937   2.603   5.719   3.343 -0.6366  1.3876  2.3302
   47DOPE   HN3 5938   2.663   5.864   3.287 -1.3347  0.2083  2.1681
   47DOPE   C12 5939   2.593   5.733   3.128  0.7406 -0.1097 -0.4498
   47DOPE  H12A 5940   2.575   5.824   3.066  3.1387  0.3780 -0.5057
   47DOPE  H12B 5941   2.523   5.647   3.118  1.1494 -0.5061  0.0286
   47DOPE   C11 5942   2.740   5.689   3.104  0.1751 -0.4351  0.2352
   47DOPE  H11A 5943   2.746   5.625   3.013  0.6128  0.4961 -0.4099
   47DOPE  H11B 5944   2.768   5.624   3.189  1.0821  0.5337  0.7029
   47DOPE     P 5945   2.987   5.774   3.099 -0.0290 -0.2554 -0.1956
   47DOPE   O13 5946   3.052   5.907   3.119 -0.0671 -0.1451 -0.3026
   47DOPE   O14 5947   3.015   5.697   2.977  0.5093 -0.0642  0.1113
   47DOPE   O11 5948   3.005   5.691   3.227 -0.1420  0.4307  0.1096
   47DOPE   O12 5949   2.832   5.796   3.097 -0.2670  0.0517  0.0014
   47DOPE    C1 5950   2.955   5.717   3.359 -0.2183 -0.0039  0.1382
   47DOPE    HA 5951   2.938   5.617   3.406 -0.4139  0.3190  0.7637
   47DOPE    HB 5952   2.854   5.762   3.353 -0.2691 -0.1974 -0.6640
   47DOPE    C2 5953   3.058   5.809   3.429 -0.1705  0.1787 -0.8644
   47DOPE    HS 5954   3.091   5.890   3.362  0.2613 -0.7525 -1.7979
   47DOPE   O21 5955   3.170   5.723   3.473 -0.1430  0.6898 -0.0186
   47DOPE   C21 5956   3.294   5.778   3.483 -0.4191  1.0759  0.6081
   47DOPE   O22 5957   3.325   5.891   3.443  0.1730  0.7015 -0.1256
   47DOPE   C22 5958   3.389   5.664   3.523 -0.0209 -0.2319  0.0346
   47DOPE   H2R 5959   3.471   5.662   3.448  0.8486  3.8468  0.6292
   47DOPE   H2S 5960   3.332   5.571   3.503 -0.8794 -0.0504  1.4607
   47DOPE    C3 5961   2.992   5.884   3.553  0.3400  0.2753 -0.0856
   47DOPE    HX 5962   2.939   5.807   3.613 -2.0156  0.1044 -2.2149
   47DOPE    HY 5963   2.904   5.946   3.526 -1.4677 -2.4557 -0.8160
   47DOPE   O31 5964   3.084   5.944   3.642  0.0800 -0.2699  0.1879
   47DOPE   C31 5965   3.138   6.060   3.599  0.6921 -0.2593 -0.3878
   47DOPE   O32 5966   3.104   6.113   3.496 -0.0239 -0.0462  0.3756
   47DOPE   C32 5967   3.230   6.115   3.708  0.7133 -0.2496  0.3211
   47DOPE   H2X 5968   3.181   6.202   3.757 -2.8648 -3.2618  2.6236
   47DOPE   H2Y 5969   3.241   6.032   3.781  1.7143 -1.3679 -1.0540
   47DOPE   C23 5970   3.449   5.683   3.662 -0.1891  0.2022 -0.5236
   47DOPE   H3R 5971   3.515   5.772   3.668 -0.9157  0.6892  0.7339
   47DOPE   H3S 5972   3.504   5.590   3.685 -1.8764 -0.4654  1.0272
   47DOPE   C24 5973   3.334   5.686   3.771 -0.3887  0.2346 -0.7059
   47DOPE   H4R 5974   3.283   5.588   3.768  1.1077 -0.5630 -1.0725
   47DOPE   H4S 5975   3.263   5.768   3.744 -1.9526 -1.6021 -2.4537
   47DOPE   C25 5976   3.387   5.712   3.912 -0.2017  0.5049 -0.1452
   47DOPE   H5R 5977   3.310   5.697   3.992  2.9464 -0.8613  2.8732
   47DOPE   H5S 5978   3.423   5.817   3.918  2.2151 -0.2994  0.5964
   47DOPE   C26 5979   3.504   5.632   3.978 -0.8462  0.0763  0.3140
   47DOPE   H6R 5980   3.595   5.651   3.916 -1.2585  0.3792 -0.2071
   47DOPE   H6S 5981   3.486   5.523   3.975 -0.9203  0.0975 -0.1052
   47DOPE   C27 5982   3.543   5.662   4.127 -0.7294 -0.7006  0.3671
   47DOPE   H7R 5983   3.575   5.768   4.136 -2.3052 -0.2702  1.2274
   47DOPE   H7S 5984   3.631   5.599   4.150 -0.6076 -0.5579  0.2992
   47DOPE   C28 5985   3.443   5.616   4.224  0.2838  0.3310 -0.1215
   47DOPE   H8R 5986   3.344   5.665   4.214  0.1439  0.5569  1.8999
   47DOPE   H8S 5987   3.482   5.646   4.324 -0.4409  1.4587 -0.1645
   47DOPE   C29 5988   3.402   5.470   4.231  0.1995 -0.2314  0.3128
   47DOPE   H9R 5989   3.294   5.455   4.221  0.4190 -1.7655 -0.0723
   47DOPE  C210 5990   3.476   5.357   4.243  0.0556 -0.6170  0.2712
   47DOPE  H10R 5991   3.419   5.264   4.253  0.3137 -0.8099 -0.0212
   47DOPE  C211 5992   3.624   5.355   4.250 -0.3160 -0.3792  0.3353
   47DOPE  H11R 5993   3.670   5.453   4.278 -0.8105  0.2066 -0.8467
   47DOPE  H11S 5994   3.661   5.316   4.153 -1.9072 -0.0967 -0.4140
   47DOPE  C212 5995   3.679   5.263   4.357  0.0299 -0.3462  0.5775
   47DOPE  H12R 5996   3.788   5.254   4.339 -0.0108  1.3430 -0.6773
   47DOPE  H12S 5997   3.641   5.160   4.341  0.7466 -0.4682 -0.4164
   47DOPE  C213 5998   3.667   5.323   4.493 -0.0489  0.3273  0.5003
   47DOPE  H13R 5999   3.559   5.329   4.517 -0.4106 -1.4860 -0.4561
   47DOPE  H13S 6000   3.717   5.420   4.512 -2.7377  1.9412 -0.1457
   47DOPE  C214 6001   3.729   5.225   4.595  0.6747 -0.5910  0.3293
   47DOPE  H14R 6002   3.832   5.190   4.571  0.9665  1.2720 -1.4025
   47DOPE  H14S 6003   3.669   5.131   4.596  2.0068 -1.4708  0.8593
   47DOPE  C215 6004   3.725   5.286   4.733  0.1267  0.4806 -0.0770
   47DOPE  H15R 6005   3.624   5.305   4.776  0.2265 -1.2989  1.0292
   47DOPE  H15S 6006   3.779   5.383   4.722  0.2979  0.2732 -1.2165
   47DOPE  C216 6007   3.790   5.192   4.838  0.1362 -0.1703 -0.1916
   47DOPE  H16R 6008   3.791   5.089   4.797 -0.1106 -0.1830 -0.1716
   47DOPE  H16S 6009   3.733   5.189   4.934 -2.7985 -0.2470 -1.8224
   47DOPE  C217 6010   3.933   5.221   4.883 -0.8944 -0.6492  0.8617
   47DOPE  H17R 6011   3.967   5.133   4.942  0.2922 -0.8451 -0.0839
   47DOPE  H17S 6012   3.924   5.305   4.956  1.0286  1.2665 -0.9727
   47DOPE  C218 6013   4.034   5.263   4.773  0.5974  0.2315 -0.9442
   47DOPE  H18R 6014   4.005   5.346   4.706 -2.0692 -0.2931 -0.5408
   47DOPE  H18S 6015   4.034   5.181   4.699  1.4628  0.8079 -1.5891
   47DOPE  H18T 6016   4.140   5.274   4.805  0.5787  1.7586 -1.3393
   47DOPE   C33 6017   3.365   6.173   3.653 -0.2796  0.5373 -0.1993
   47DOPE   H3X 6018   3.421   6.107   3.583  0.2523  1.2266 -0.4327
   47DOPE   H3Y 6019   3.431   6.181   3.742 -1.4959  0.3618  0.7317
   47DOPE   C34 6020   3.372   6.313   3.583  0.3625 -0.6884  0.3546
   47DOPE   H4X 6021   3.301   6.321   3.498  0.9481 -1.5355 -0.2355
   47DOPE   H4Y 6022   3.340   6.385   3.662 -1.2392 -0.1181 -0.7501
   47DOPE   C35 6023   3.515   6.345   3.519  0.2114  0.2786  0.5696
   47DOPE   H5X 6024   3.510   6.444   3.469 -2.3442 -0.5586 -1.1037
   47DOPE   H5Y 6025   3.534   6.263   3.445  0.9511  0.2355  0.8007
   47DOPE   C36 6026   3.628   6.349   3.625  0.6073 -0.7945  0.2487
   47DOPE   H6X 6027   3.638   6.251   3.678 -1.1009 -0.2069  1.7536
   47DOPE   H6Y 6028   3.585   6.422   3.697  0.8913 -1.2009  0.8370
   47DOPE   C37 6029   3.761   6.409   3.577  0.2199 -0.2276  0.3029
   47DOPE   H7X 6030   3.788   6.354   3.484  1.2525  1.1136 -0.2339
   47DOPE   H7Y 6031   3.742   6.515   3.548 -0.0134 -0.6054 -0.9758
   47DOPE   C38 6032   3.866   6.412   3.685  0.6521 -0.2855 -0.1761
   47DOPE   H8X 6033   3.823   6.464   3.774 -1.4047 -1.7457 -0.2504
   47DOPE   H8Y 6034   3.959   6.463   3.655  1.2079 -0.1536  1.6361
   47DOPE   C39 6035   3.915   6.278   3.724 -0.1325  0.5644 -0.6822
   47DOPE   H9X 6036   3.938   6.214   3.638  2.0012  0.8465 -0.3597
   47DOPE  C310 6037   3.919   6.221   3.850 -0.0514 -0.0921 -0.4563
   47DOPE  H10X 6038   3.961   6.121   3.866 -2.2230 -0.5932  3.4684
   47DOPE  C311 6039   3.874   6.288   3.976  0.2694 -0.4882 -0.2835
   47DOPE  H11X 6040   3.801   6.371   3.962  0.2315 -0.4475  0.1533
   47DOPE  H11Y 6041   3.801   6.214   4.015 -0.9032 -0.9355 -3.0661
   47DOPE  C312 6042   3.976   6.337   4.077  0.9794  0.6416  0.1191
   47DOPE  H12X 6043   3.923   6.397   4.154 -1.9344 -0.9312 -0.5107
   47DOPE  H12Y 6044   4.051   6.400   4.026 -0.0455  0.1875 -2.0898
   47DOPE  C313 6045   4.040   6.230   4.167 -0.9837 -0.2083  0.1648
   47DOPE  H13X 6046   3.964   6.166   4.216  0.7319 -1.9827  0.6429
   47DOPE  H13Y 6047   4.118   6.176   4.108 -1.1837 -1.9162  1.3785
   47DOPE  C314 6048   4.115   6.306   4.277  0.1243  0.0494 -0.2182
   47DOPE  H14X 6049   4.042   6.368   4.334  1.3313 -1.1606  2.8238
   47DOPE  H14Y 6050   4.177   6.391   4.240 -1.7885  1.7677  0.3342
   47DOPE  C315 6051   4.196   6.228   4.380 -0.1843  0.2959 -0.3975
   47DOPE  H15X 6052   4.289   6.191   4.331  0.6413  1.2765  0.3781
   47DOPE  H15Y 6053   4.152   6.129   4.404  1.0295  0.1513  1.4884
   47DOPE  C316 6054   4.229   6.284   4.514 -0.4404  0.5797 -0.2826
   47DOPE  H16X 6055   4.147   6.332   4.571 -0.8133  1.7957 -1.7887
   47DOPE  H16Y 6056   4.314   6.355   4.504  0.6999 -0.7086 -0.1165
   47DOPE  C317 6057   4.290   6.165   4.595 -0.5240 -0.4469  0.0912
   47DOPE  H17X 6058   4.222   6.081   4.619  1.5038 -1.7245  1.7855
   47DOPE  H17Y 6059   4.375   6.122   4.538  1.1573 -0.0535  2.1708
   47DOPE  C318 6060   4.350   6.213   4.731 -0.5815  0.1470 -0.3546
   47DOPE  H18X 6061   4.381   6.121   4.786 -0.8182  1.7507  2.6256
   47DOPE  H18Y 6062   4.430   6.288   4.715  0.1918 -0.9551 -2.0190
   47DOPE  H18Z 6063   4.275   6.258   4.799  1.0701 -0.1161  1.7447
   48DOPE     N 6064   7.093   3.494   2.899 -0.2905  0.1543 -0.0115
   48DOPE   HN1 6065   7.133   3.589   2.910 -0.9690  0.8353 -2.7423
   48DOPE   HN2 6066   7.059   3.489   2.801 -0.4443  0.8609  0.0022
   48DOPE   HN3 6067   7.008   3.476   2.957 -0.2938  3.0356  1.0174
   48DOPE   C12 6068   7.203   3.390   2.906  0.4973  0.1141 -0.2201
   48DOPE  H12A 6069   7.158   3.289   2.898  1.3233 -0.2523 -0.2963
   48DOPE  H12B 6070   7.247   3.394   3.008  0.6561  0.7080 -0.3059
   48DOPE   C11 6071   7.308   3.418   2.793 -0.2911  0.1220  0.0747
   48DOPE  H11A 6072   7.382   3.496   2.821 -0.2424 -0.1290  0.6609
   48DOPE  H11B 6073   7.256   3.457   2.703  0.5226 -1.4146 -1.1074
   48DOPE     P 6074   7.504   3.232   2.822 -0.2429 -0.2338  0.3321
   48DOPE   O13 6075   7.613   3.325   2.775  0.9074  0.6833 -0.0143
   48DOPE   O14 6076   7.520   3.087   2.792 -0.1416  0.1077 -0.3124
   48DOPE   O11 6077   7.497   3.259   2.982 -0.0031 -0.6582 -0.0840
   48DOPE   O12 6078   7.364   3.289   2.767 -0.2869 -0.6953  0.7650
   48DOPE    C1 6079   7.417   3.176   3.064  0.4093 -0.4350  0.0823
   48DOPE    HA 6080   7.340   3.122   3.005 -0.8109  2.1005 -0.7513
   48DOPE    HB 6081   7.360   3.234   3.139 -2.0505 -1.0713 -1.1864
   48DOPE    C2 6082   7.506   3.073   3.147  0.0742  0.1553  0.6981
   48DOPE    HS 6083   7.443   3.023   3.224  0.4506 -0.3241  0.6950
   48DOPE   O21 6084   7.613   3.142   3.219 -0.3190 -0.2538  0.3186
   48DOPE   C21 6085   7.564   3.207   3.321  0.5122  0.1549  0.5757
   48DOPE   O22 6086   7.446   3.205   3.361 -0.3695  0.6018  0.3836
   48DOPE   C22 6087   7.682   3.285   3.383  0.0838 -0.7137  0.3742
   48DOPE   H2R 6088   7.776   3.268   3.326  0.1439  0.4091  0.1109
   48DOPE   H2S 6089   7.694   3.233   3.480 -0.4897 -1.2681  0.1571
   48DOPE    C3 6090   7.574   2.964   3.056 -0.3340 -0.5497  0.1344
   48DOPE    HX 6091   7.661   3.003   2.999  0.3216 -1.8589  0.1880
   48DOPE    HY 6092   7.512   2.928   2.971  1.4027 -0.4998 -1.2119
   48DOPE   O31 6093   7.615   2.847   3.133 -0.0054 -0.8466  0.2741
   48DOPE   C31 6094   7.737   2.846   3.188  0.3624 -0.0347 -0.1559
   48DOPE   O32 6095   7.824   2.929   3.175 -0.3087  0.3525  0.4075
   48DOPE   C32 6096   7.750   2.725   3.279 -0.1656  0.0276  0.5571
   48DOPE   H2X 6097   7.648   2.690   3.305 -0.5383  0.8123  0.1998
   48DOPE   H2Y 6098   7.787   2.637   3.222  0.2665 -0.6813  1.8938
   48DOPE   C23 6099   7.663   3.436   3.403  0.0927 -0.5001  0.2736
   48DOPE   H3R 6100   7.597   3.472   3.321  0.8221  0.1055 -0.0527
   48DOPE   H3S 6101   7.758   3.492   3.399 -1.6804  2.7673 -0.1197
   48DOPE   C24 6102   7.591   3.464   3.536 -0.3029 -0.0072  0.8852
   48DOPE   H4R 6103   7.666   3.458   3.617 -0.0402 -0.2387  0.6248
   48DOPE   H4S 6104   7.508   3.392   3.555  0.4030 -0.9539  0.4737
   48DOPE   C25 6105   7.544   3.611   3.547 -0.9808  0.5625  0.5213
   48DOPE   H5R 6106   7.470   3.625   3.465  0.3281 -0.6908 -0.9325
   48DOPE   H5S 6107   7.627   3.682   3.526 -0.0245 -0.8363 -0.6083
   48DOPE   C26 6108   7.469   3.654   3.671 -0.0076  0.4054 -0.0857
   48DOPE   H6R 6109   7.510   3.601   3.760 -0.2580 -0.9046 -0.7226
   48DOPE   H6S 6110   7.360   3.636   3.655 -0.2235  1.5031  0.0720
   48DOPE   C27 6111   7.492   3.803   3.690  0.1355  0.7954 -0.2360
   48DOPE   H7R 6112   7.488   3.855   3.592 -0.4505  0.0264 -0.6315
   48DOPE   H7S 6113   7.592   3.815   3.737 -0.1624 -0.9793  0.9333
   48DOPE   C28 6114   7.393   3.859   3.796 -0.5642 -0.2323  0.1504
   48DOPE   H8R 6115   7.424   3.810   3.891  2.3430  0.4263 -0.3631
   48DOPE   H8S 6116   7.293   3.819   3.768 -0.8140  1.5232 -1.6272
   48DOPE   C29 6117   7.413   4.007   3.788  0.0829  0.0347  0.3381
   48DOPE   H9R 6118   7.403   4.052   3.688 -1.5123 -2.9270 -0.9732
   48DOPE  C210 6119   7.436   4.086   3.894 -0.0672  0.2774  0.4100
   48DOPE  H10R 6120   7.454   4.193   3.877 -0.3839  0.6905  2.4137
   48DOPE  C211 6121   7.442   4.046   4.038  0.3356 -0.5026 -0.1692
   48DOPE  H11R 6122   7.395   3.946   4.036 -3.2501  1.0083 -2.5002
   48DOPE  H11S 6123   7.361   4.115   4.073 -1.5459 -3.0058  0.7080
   48DOPE  C212 6124   7.562   4.074   4.115  0.0439 -0.0846 -0.0575
   48DOPE  H12R 6125   7.597   4.177   4.093  1.1596 -0.2765  0.7419
   48DOPE  H12S 6126   7.647   4.006   4.093  2.4173  2.2798  1.3490
   48DOPE  C213 6127   7.538   4.072   4.267  0.2467  0.3061 -0.3954
   48DOPE  H13R 6128   7.497   3.974   4.299  1.0907 -0.1034 -0.5496
   48DOPE  H13S 6129   7.448   4.136   4.281 -0.5804 -0.7491 -0.7079
   48DOPE  C214 6130   7.655   4.124   4.352  0.5838 -0.0099 -0.7238
   48DOPE  H14R 6131   7.681   4.225   4.313 -1.9648  0.4917 -1.3117
   48DOPE  H14S 6132   7.736   4.047   4.349 -0.5106 -1.2024 -0.6074
   48DOPE  C215 6133   7.621   4.136   4.502  0.3631  0.0608  0.0920
   48DOPE  H15R 6134   7.560   4.052   4.540 -1.9270  0.7082 -1.9016
   48DOPE  H15S 6135   7.552   4.224   4.501 -0.0611 -0.2612 -1.4167
   48DOPE  C216 6136   7.744   4.175   4.581 -0.3958  0.4374  0.0975
   48DOPE  H16R 6137   7.815   4.244   4.529 -0.7651 -0.5764 -1.8335
   48DOPE  H16S 6138   7.793   4.077   4.597 -2.3759 -0.7002 -0.4921
   48DOPE  C217 6139   7.716   4.233   4.717  0.5512  0.8289 -0.2323
   48DOPE  H17R 6140   7.647   4.178   4.785  0.3110  0.1291 -1.0282
   48DOPE  H17S 6141   7.666   4.329   4.693 -2.2438 -0.2474  0.7981
   48DOPE  C218 6142   7.839   4.281   4.798  1.0514  0.0118  0.9260
   48DOPE  H18R 6143   7.911   4.337   4.734  0.5434 -0.4403 -0.0720
   48DOPE  H18S 6144   7.894   4.195   4.842 -2.2632 -2.5131  0.5901
   48DOPE  H18T 6145   7.805   4.350   4.877 -1.0013  1.1995 -0.8970
   48DOPE   C33 6146   7.824   2.747   3.409 -0.0353  1.0265  0.2987
   48DOPE   H3X 6147   7.803   2.667   3.483 -1.1166  0.9593 -0.0624
   48DOPE   H3Y 6148   7.793   2.841   3.461 -0.3874  1.3820 -0.5361
   48DOPE   C34 6149   7.971   2.757   3.402 -0.5055  0.4937  0.3779
   48DOPE   H4X 6150   7.994   2.652   3.373 -0.4182  0.8461 -0.8666
   48DOPE   H4Y 6151   8.008   2.829   3.326 -2.5372  0.6855 -0.5112
   48DOPE   C35 6152   8.045   2.774   3.536 -0.7701 -0.4946  0.1710
   48DOPE   H5X 6153   7.990   2.854   3.591 -0.7425 -0.3006 -0.0809
   48DOPE   H5Y 6154   8.150   2.809   3.525 -1.6395  1.8562 -1.5985
   48DOPE   C36 6155   8.048   2.641   3.617 -0.2513 -0.7476 -0.1297
   48DOPE   H6X 6156   8.127   2.572   3.578 -1.9465 -1.8412 -1.8628
   48DOPE   H6Y 6157   7.950   2.590   3.606 -0.6911 -0.1107  0.7282
   48DOPE   C37 6158   8.060   2.670   3.772  0.0783  0.3121 -0.1617
   48DOPE   H7X 6159   8.146   2.740   3.781  0.0452  0.4918 -1.1276
   48DOPE   H7Y 6160   7.964   2.717   3.804 -0.5817 -1.5079  0.6591
   48DOPE   C38 6161   8.085   2.539   3.846 -0.0057 -0.4899  0.1832
   48DOPE   H8X 6162   8.110   2.568   3.951 -0.9576  1.1750 -0.0210
   48DOPE   H8Y 6163   8.175   2.484   3.812  1.3823 -1.2506  4.4452
   48DOPE   C39 6164   7.980   2.434   3.846  0.7310 -0.0835  0.0857
   48DOPE   H9X 6165   7.985   2.366   3.759  0.6535  1.8175 -1.4818
   48DOPE  C310 6166   7.881   2.418   3.939  0.1394  0.4456  0.1507
   48DOPE  H10X 6167   7.811   2.334   3.947  0.3241  0.3620  0.9462
   48DOPE  C311 6168   7.865   2.512   4.057  0.5772  0.5038 -0.4979
   48DOPE  H11X 6169   7.961   2.550   4.097  0.8560 -0.2271 -0.4719
   48DOPE  H11Y 6170   7.829   2.609   4.016  0.5801  0.5176 -0.4676
   48DOPE  C312 6171   7.770   2.470   4.164 -0.3956 -0.2727  0.1319
   48DOPE  H12X 6172   7.827   2.413   4.241  0.4627  0.3070 -0.0628
   48DOPE  H12Y 6173   7.694   2.395   4.132 -1.8002  1.7545 -1.5877
   48DOPE  C313 6174   7.704   2.588   4.224  0.1748  0.6564 -0.2539
   48DOPE  H13X 6175   7.780   2.663   4.255 -0.9922  1.7859 -0.0365
   48DOPE  H13Y 6176   7.639   2.636   4.148 -4.0548 -0.8868  2.0301
   48DOPE  C314 6177   7.609   2.544   4.343 -0.0734  0.9726 -0.0396
   48DOPE  H14X 6178   7.667   2.504   4.429 -0.0284  2.7524  0.8051
   48DOPE  H14Y 6179   7.556   2.459   4.295  0.3669  0.3343  0.5714
   48DOPE  C315 6180   7.529   2.658   4.402  0.3132 -0.3064 -0.0658
   48DOPE  H15X 6181   7.476   2.707   4.317  3.1832  1.1087 -1.1755
   48DOPE  H15Y 6182   7.599   2.733   4.443 -1.6649  1.1862  0.6950
   48DOPE  C316 6183   7.420   2.616   4.497  0.0315  0.0917  0.3046
   48DOPE  H16X 6184   7.374   2.530   4.445 -1.5096  1.7499 -1.2326
   48DOPE  H16Y 6185   7.343   2.697   4.500 -0.9839 -0.8614  2.0321
   48DOPE  C317 6186   7.461   2.575   4.643  0.3471  0.7600  0.1847
   48DOPE  H17X 6187   7.379   2.548   4.712  1.2510 -1.6951  0.4047
   48DOPE  H17Y 6188   7.527   2.486   4.639 -1.2015 -0.3841 -1.1144
   48DOPE  C318 6189   7.520   2.691   4.710 -0.4135 -0.4571 -0.0016
   48DOPE  H18X 6190   7.547   2.675   4.816 -1.7964 -1.1221  0.2670
   48DOPE  H18Y 6191   7.612   2.735   4.665  0.7363  0.5526  3.0715
   48DOPE  H18Z 6192   7.449   2.775   4.728  0.9018  0.6033  0.4348
   49DOPE     N 6193   2.700   6.675   3.649 -0.7378 -0.3794 -0.0993
   49DOPE   HN1 6194   2.609   6.725   3.650 -0.2395  0.5521  0.6838
   49DOPE   HN2 6195   2.737   6.672   3.553 -3.3188  3.3419 -1.4369
   49DOPE   HN3 6196   2.678   6.578   3.681  0.1202 -0.5984 -0.1493
   49DOPE   C12 6197   2.799   6.729   3.754  0.2886  0.1062 -0.5943
   49DOPE  H12A 6198   2.850   6.646   3.807  0.8094  1.7432  1.6239
   49DOPE  H12B 6199   2.738   6.788   3.825  2.1308  1.6306 -0.1845
   49DOPE   C11 6200   2.902   6.827   3.688  0.2506 -0.0880 -0.1010
   49DOPE  H11A 6201   2.965   6.772   3.615  3.2139  1.3113  1.2409
   49DOPE  H11B 6202   2.976   6.865   3.762  0.1547 -0.9957  0.4795
   49DOPE     P 6203   2.892   7.042   3.538 -0.3183 -0.3747 -0.3497
   49DOPE   O13 6204   2.802   7.161   3.526 -0.0965 -0.5198 -0.1374
   49DOPE   O14 6205   2.931   6.970   3.414  0.1580 -0.2621 -0.0665
   49DOPE   O11 6206   3.027   7.084   3.609 -0.4492 -0.0834 -0.2219
   49DOPE   O12 6207   2.829   6.941   3.638  0.3018  0.4672  0.3791
   49DOPE    C1 6208   3.024   7.160   3.736  0.9481 -0.3936 -0.1785
   49DOPE    HA 6209   2.946   7.122   3.806  2.0750 -1.7788  0.3724
   49DOPE    HB 6210   3.000   7.266   3.715  1.5379 -0.3365 -0.5775
   49DOPE    C2 6211   3.160   7.159   3.808  0.2197 -0.2329 -0.5072
   49DOPE    HS 6212   3.241   7.203   3.745 -0.4318 -0.9761 -1.9075
   49DOPE   O21 6213   3.190   7.023   3.854  0.4497 -0.0491  0.0584
   49DOPE   C21 6214   3.279   6.959   3.773  0.6657  0.1853  0.2973
   49DOPE   O22 6215   3.333   7.015   3.679 -0.3404  0.4096  0.0751
   49DOPE   C22 6216   3.280   6.813   3.815 -0.0390  0.1660 -0.1113
   49DOPE   H2R 6217   3.205   6.756   3.756 -0.4506 -0.9473  1.4265
   49DOPE   H2S 6218   3.237   6.817   3.917 -0.9220  0.2550 -0.4775
   49DOPE    C3 6219   3.154   7.241   3.941  0.0077 -0.3823  0.0671
   49DOPE    HX 6220   3.100   7.181   4.017  0.2529  0.0432  0.5834
   49DOPE    HY 6221   3.096   7.332   3.918 -0.3660 -0.5133  0.4919
   49DOPE   O31 6222   3.289   7.258   3.998 -0.3709 -0.6042 -0.4740
   49DOPE   C31 6223   3.331   7.378   4.016 -0.0894  0.5301 -1.0888
   49DOPE   O32 6224   3.261   7.480   4.011 -0.1785  0.0024 -0.5746
   49DOPE   C32 6225   3.476   7.378   4.052  0.1570 -0.3457  0.1091
   49DOPE   H2X 6226   3.516   7.278   4.081  0.1029 -0.0174  1.3718
   49DOPE   H2Y 6227   3.527   7.410   3.958  0.9390  0.0085  0.6371
   49DOPE   C23 6228   3.423   6.758   3.803  0.3194 -0.8312 -0.0300
   49DOPE   H3R 6229   3.488   6.830   3.856  0.0438 -0.3732 -0.2987
   49DOPE   H3S 6230   3.456   6.750   3.697 -0.1954 -0.8103 -0.1945
   49DOPE   C24 6231   3.440   6.621   3.869  0.0899  0.1760  0.1154
   49DOPE   H4R 6232   3.543   6.590   3.840  0.6939  4.0132 -2.6535
   49DOPE   H4S 6233   3.368   6.545   3.832  0.1987  1.5546 -3.3953
   49DOPE   C25 6234   3.435   6.619   4.027  0.4418 -0.6012 -0.1774
   49DOPE   H5R 6235   3.333   6.631   4.069  0.5731  0.9550 -0.2121
   49DOPE   H5S 6236   3.503   6.697   4.069  1.4182 -2.1070  1.1863
   49DOPE   C26 6237   3.484   6.479   4.074  0.0862 -0.1728  0.3258
   49DOPE   H6R 6238   3.592   6.474   4.046 -0.0216 -3.5528  0.0799
   49DOPE   H6S 6239   3.435   6.411   4.001  1.5960 -1.7658  0.7336
   49DOPE   C27 6240   3.463   6.432   4.220 -0.0553  0.0912  0.2221
   49DOPE   H7R 6241   3.354   6.433   4.241  0.0570 -1.9169  1.1035
   49DOPE   H7S 6242   3.504   6.505   4.293 -1.6123  0.3753  0.8428
   49DOPE   C28 6243   3.500   6.286   4.256  0.2427  0.2652  0.5103
   49DOPE   H8R 6244   3.475   6.272   4.364  0.6065  0.9025  0.6857
   49DOPE   H8S 6245   3.610   6.284   4.240  0.3216  1.9816  0.5899
   49DOPE   C29 6246   3.436   6.182   4.162 -0.1127  0.0947 -0.1672
   49DOPE   H9R 6247   3.418   6.210   4.057 -1.8021  0.7934  0.2804
   49DOPE  C210 6248   3.398   6.057   4.197  1.1973  0.7484 -0.4160
   49DOPE  H10R 6249   3.357   5.993   4.118  0.1902  2.1997 -1.1304
   49DOPE  C211 6250   3.405   5.984   4.330  0.2409  0.1487  0.6780
   49DOPE  H11R 6251   3.502   6.005   4.379  0.2662 -1.2247  1.2580
   49DOPE  H11S 6252   3.405   5.874   4.314 -0.0715  0.2338  0.0618
   49DOPE  C212 6253   3.297   6.029   4.425 -0.3860  0.4014  0.5358
   49DOPE  H12R 6254   3.207   6.061   4.369 -0.2935  1.2655  0.8535
   49DOPE  H12S 6255   3.337   6.117   4.481 -1.1438  1.1197 -0.0373
   49DOPE  C213 6256   3.270   5.931   4.542  0.1317 -0.4442  0.7340
   49DOPE  H13R 6257   3.252   5.832   4.494 -3.7004 -0.3569  1.6513
   49DOPE  H13S 6258   3.178   5.975   4.586  0.0610  0.1010  0.0582
   49DOPE  C214 6259   3.372   5.924   4.658  0.1880 -0.6270 -0.1946
   49DOPE  H14R 6260   3.473   5.907   4.615  0.2027  0.8638 -0.8190
   49DOPE  H14S 6261   3.346   5.842   4.728 -0.3912  0.2374  0.6289
   49DOPE  C215 6262   3.378   6.053   4.743  0.2389 -0.2767  0.3221
   49DOPE  H15R 6263   3.271   6.084   4.754 -0.0522 -0.3073 -1.9235
   49DOPE  H15S 6264   3.432   6.132   4.686  0.8152  0.4514  1.8124
   49DOPE  C216 6265   3.444   6.031   4.875  0.2827 -0.2492 -0.5514
   49DOPE  H16R 6266   3.526   5.960   4.852  0.2376 -1.0589  1.5352
   49DOPE  H16S 6267   3.369   5.978   4.939 -0.6149  0.7136 -0.7818
   49DOPE  C217 6268   3.485   6.166   4.931 -0.1535 -0.2913  0.3208
   49DOPE  H17R 6269   3.560   6.212   4.863 -1.6071 -0.1609 -1.2592
   49DOPE  H17S 6270   3.517   6.150   5.036 -0.8379  3.0216  1.1253
   49DOPE  C218 6271   3.367   6.266   4.949 -0.0290  0.6355 -0.5372
   49DOPE  H18R 6272   3.335   6.299   4.848  0.1714 -1.4028 -1.3154
   49DOPE  H18S 6273   3.400   6.350   5.013  0.2724  0.8892 -1.0193
   49DOPE  H18T 6274   3.282   6.211   4.996  2.2802 -0.4613  2.6880
   49DOPE   C33 6275   3.510   7.481   4.157  0.4897 -0.0626  0.0833
   49DOPE   H3X 6276   3.443   7.569   4.144  0.1870 -0.3520 -0.3682
   49DOPE   H3Y 6277   3.611   7.518   4.130 -0.4505  2.7142  0.1121
   49DOPE   C34 6278   3.505   7.436   4.308 -0.7255 -0.1718 -0.2140
   49DOPE   H4X 6279   3.399   7.404   4.324 -0.2614 -1.8347 -0.3340
   49DOPE   H4Y 6280   3.578   7.354   4.320  0.7308  0.9077 -1.3857
   49DOPE   C35 6281   3.561   7.542   4.405 -0.1770 -0.3315 -0.0958
   49DOPE   H5X 6282   3.502   7.634   4.387 -1.9720 -1.2278  0.9893
   49DOPE   H5Y 6283   3.666   7.567   4.377 -0.2755  1.7027  1.1082
   49DOPE   C36 6284   3.540   7.499   4.550  0.3249 -0.4717  0.1734
   49DOPE   H6X 6285   3.619   7.422   4.566  1.4245  0.9636  2.1710
   49DOPE   H6Y 6286   3.437   7.461   4.567 -0.9677  2.5279 -0.3231
   49DOPE   C37 6287   3.563   7.608   4.659  0.5028  0.0037  0.2326
   49DOPE   H7X 6288   3.672   7.632   4.658  1.1837 -2.7533 -0.6058
   49DOPE   H7Y 6289   3.512   7.702   4.629 -1.9880 -1.3788 -0.0737
   49DOPE   C38 6290   3.528   7.554   4.800  0.4404  0.7865 -0.3569
   49DOPE   H8X 6291   3.433   7.497   4.791  0.7121  0.4411 -1.0951
   49DOPE   H8Y 6292   3.512   7.636   4.873 -0.4225 -1.4383  2.1044
   49DOPE   C39 6293   3.638   7.464   4.860 -0.1743  0.6141 -0.3822
   49DOPE   H9X 6294   3.688   7.412   4.777  2.5175 -0.1643  1.5755
   49DOPE  C310 6295   3.663   7.444   4.990  0.0650  0.7865 -0.0998
   49DOPE  H10X 6296   3.737   7.367   5.015  0.9431  1.3124 -1.0122
   49DOPE  C311 6297   3.590   7.499   5.113 -0.7142  0.5451  0.1421
   49DOPE  H11X 6298   3.496   7.544   5.075 -0.9199  0.8250  0.9858
   49DOPE  H11Y 6299   3.560   7.416   5.180  0.4517 -0.3714 -0.4268
   49DOPE  C312 6300   3.661   7.607   5.200  0.2669 -0.3201 -0.0666
   49DOPE  H12X 6301   3.597   7.642   5.283 -0.6323 -1.7198 -0.1461
   49DOPE  H12Y 6302   3.665   7.689   5.125  0.3826  0.2711  0.5800
   49DOPE  C313 6303   3.803   7.585   5.248 -0.0271  0.4568  0.2513
   49DOPE  H13X 6304   3.872   7.586   5.161  1.0468  2.5853  1.0659
   49DOPE  H13Y 6305   3.836   7.670   5.311  2.8325 -0.1589 -0.3043
   49DOPE  C314 6306   3.810   7.463   5.335  0.4080  0.0338  0.3866
   49DOPE  H14X 6307   3.770   7.379   5.275 -2.1949  0.1148  1.8691
   49DOPE  H14Y 6308   3.755   7.478   5.430  1.8582 -0.3110  1.3040
   49DOPE  C315 6309   3.953   7.450   5.382 -0.2771  0.3231 -0.5967
   49DOPE  H15X 6310   3.980   7.534   5.449  1.1856 -0.5613 -0.0240
   49DOPE  H15Y 6311   4.028   7.462   5.301 -0.1994 -0.1518 -0.6013
   49DOPE  C316 6312   3.979   7.312   5.439 -0.9525  0.5456 -0.1480
   49DOPE  H16X 6313   3.954   7.236   5.362  1.5472 -0.9876  0.4460
   49DOPE  H16Y 6314   3.901   7.292   5.515 -0.5986 -0.9870 -0.1561
   49DOPE  C317 6315   4.123   7.279   5.487  0.0546 -0.1904  0.0528
   49DOPE  H17X 6316   4.129   7.168   5.487  0.5037 -0.1961 -1.8857
   49DOPE  H17Y 6317   4.193   7.321   5.412  1.5651 -2.1538  0.2889
   49DOPE  C318 6318   4.163   7.311   5.635 -0.1216 -0.5951  0.6617
   49DOPE  H18X 6319   4.144   7.419   5.653  1.5255 -0.1664 -0.0058
   49DOPE  H18Y 6320   4.103   7.249   5.705 -2.3263 -0.6233 -1.1522
   49DOPE  H18Z 6321   4.273   7.299   5.649 -0.2003 -1.6716  0.4698
   50DOPE     N 6322   2.395   4.920   2.968  0.1845 -0.0616 -0.1082
   50DOPE   HN1 6323   2.368   4.825   2.934 -1.1235 -0.2076  1.2611
   50DOPE   HN2 6324   2.319   4.976   3.010  1.5906  2.7249 -1.0090
   50DOPE   HN3 6325   2.423   4.968   2.880 -0.1786  3.0125  1.3600
   50DOPE   C12 6326   2.514   4.893   3.061 -0.2580 -0.5364  0.3223
   50DOPE  H12A 6327   2.512   4.990   3.115 -3.5732  0.2625 -0.9891
   50DOPE  H12B 6328   2.607   4.878   3.003 -0.3225  1.3401 -0.3266
   50DOPE   C11 6329   2.488   4.776   3.160  0.2104  0.5076 -0.1932
   50DOPE  H11A 6330   2.434   4.816   3.249  0.4934 -1.2004  0.7832
   50DOPE  H11B 6331   2.592   4.744   3.182  0.0525  0.4508  0.4991
   50DOPE     P 6332   2.420   4.533   3.123  0.4049 -0.2363  0.0788
   50DOPE   O13 6333   2.546   4.472   3.073  0.0871  0.7192 -0.1715
   50DOPE   O14 6334   2.304   4.463   3.071 -0.6696  0.0550 -0.4168
   50DOPE   O11 6335   2.417   4.531   3.284 -0.3644 -0.8905  0.1147
   50DOPE   O12 6336   2.410   4.685   3.083  0.3421 -0.3281 -0.0358
   50DOPE    C1 6337   2.292   4.545   3.349  0.6154  0.0401 -0.2319
   50DOPE    HA 6338   2.243   4.446   3.355  1.6440 -0.5186 -0.8099
   50DOPE    HB 6339   2.221   4.606   3.289 -0.0691 -1.0817 -0.5729
   50DOPE    C2 6340   2.311   4.627   3.482  0.5150 -0.4679  0.1430
   50DOPE    HS 6341   2.350   4.723   3.443  2.4847 -1.2845 -0.0277
   50DOPE   O21 6342   2.395   4.560   3.573 -0.0456 -0.6763 -0.0295
   50DOPE   C21 6343   2.488   4.635   3.640  0.6361 -0.6420 -0.0859
   50DOPE   O22 6344   2.501   4.754   3.624  0.1362 -0.3389  0.0384
   50DOPE   C22 6345   2.560   4.550   3.740  0.0179  0.3843 -0.1106
   50DOPE   H2R 6346   2.668   4.546   3.715  0.4852  1.4144  1.5200
   50DOPE   H2S 6347   2.506   4.454   3.742  3.4658 -1.7495  1.9611
   50DOPE    C3 6348   2.162   4.639   3.546 -0.2053 -0.3391 -0.0863
   50DOPE    HX 6349   2.132   4.539   3.584  1.6834 -0.8446  0.1957
   50DOPE    HY 6350   2.090   4.655   3.463 -0.2573 -0.7767 -0.1270
   50DOPE   O31 6351   2.164   4.737   3.652 -0.3337 -0.0195 -0.4916
   50DOPE   C31 6352   2.146   4.868   3.623  0.2055  0.3495 -0.0123
   50DOPE   O32 6353   2.122   4.912   3.512 -0.4068 -0.2398 -0.0190
   50DOPE   C32 6354   2.164   4.953   3.743 -0.6989  0.2261 -0.1908
   50DOPE   H2X 6355   2.159   4.886   3.832  0.3361 -0.1590 -0.4078
   50DOPE   H2Y 6356   2.272   4.977   3.741  0.0240 -2.5313  1.0087
   50DOPE   C23 6357   2.557   4.620   3.884 -0.9348  0.4356  0.1220
   50DOPE   H3R 6358   2.628   4.704   3.872 -0.1856 -0.1746  0.1868
   50DOPE   H3S 6359   2.606   4.554   3.959  1.3312 -1.4562 -2.7794
   50DOPE   C24 6360   2.423   4.669   3.941  0.1458  0.3523  0.0275
   50DOPE   H4R 6361   2.363   4.575   3.940  1.5899 -0.6065  0.2783
   50DOPE   H4S 6362   2.381   4.736   3.863  2.5124 -0.2497 -1.8719
   50DOPE   C25 6363   2.425   4.718   4.089  0.2047 -0.3096  0.6696
   50DOPE   H5R 6364   2.490   4.808   4.097  2.1755 -1.3746 -1.9724
   50DOPE   H5S 6365   2.466   4.635   4.151  1.2651  0.0129  0.4096
   50DOPE   C26 6366   2.280   4.750   4.128 -0.5339 -0.9938 -0.4883
   50DOPE   H6R 6367   2.220   4.657   4.118 -0.2551 -0.9679 -3.0434
   50DOPE   H6S 6368   2.243   4.832   4.062  0.1324  0.0960  0.4563
   50DOPE   C27 6369   2.267   4.808   4.279 -0.3027 -0.0630 -0.0731
   50DOPE   H7R 6370   2.334   4.897   4.288 -0.8676  0.3043  0.6239
   50DOPE   H7S 6371   2.318   4.741   4.351 -0.5510  0.9407  1.0841
   50DOPE   C28 6372   2.119   4.846   4.324  0.0664 -0.3856  0.0214
   50DOPE   H8R 6373   2.078   4.917   4.250  1.1315  0.2471  0.0195
   50DOPE   H8S 6374   2.123   4.907   4.417  1.2319 -0.7064  0.2098
   50DOPE   C29 6375   2.026   4.731   4.336  0.2691  0.4431 -0.0343
   50DOPE   H9R 6376   1.990   4.689   4.241 -0.1776  0.4639  0.1264
   50DOPE  C210 6377   1.988   4.668   4.448 -0.2019 -0.0187  0.2557
   50DOPE  H10R 6378   1.921   4.581   4.436 -1.2443  0.8933 -0.6944
   50DOPE  C211 6379   2.034   4.700   4.586 -0.3838  0.4257  0.4297
   50DOPE  H11R 6380   2.042   4.810   4.600 -0.7662  0.6862 -1.1740
   50DOPE  H11S 6381   2.135   4.661   4.610 -0.7142 -0.5452  0.2863
   50DOPE  C212 6382   1.930   4.638   4.680  0.3507  0.4791  0.3423
   50DOPE  H12R 6383   1.952   4.529   4.686  0.6888  0.3466 -2.0150
   50DOPE  H12S 6384   1.823   4.655   4.658 -0.0053  0.4046  1.9480
   50DOPE  C213 6385   1.943   4.688   4.827  0.3884 -0.9273  0.3983
   50DOPE  H13R 6386   1.881   4.778   4.843 -0.7448 -1.3808 -1.1901
   50DOPE  H13S 6387   2.051   4.703   4.850  0.2200  2.7011 -0.5512
   50DOPE  C214 6388   1.874   4.585   4.926 -0.0633 -0.9523  0.4897
   50DOPE  H14R 6389   1.895   4.478   4.906 -3.6771 -1.5319 -0.7879
   50DOPE  H14S 6390   1.764   4.593   4.916 -0.0049 -1.2142 -0.4583
   50DOPE  C215 6391   1.914   4.621   5.067 -0.5900  0.4456  0.1412
   50DOPE  H15R 6392   1.922   4.732   5.073 -0.7334  0.3773  1.7971
   50DOPE  H15S 6393   2.014   4.581   5.092 -0.2706  1.3469  0.3391
   50DOPE  C216 6394   1.803   4.580   5.160  0.1399 -0.2909 -0.5119
   50DOPE  H16R 6395   1.752   4.486   5.130 -0.4487  0.6021 -2.4824
   50DOPE  H16S 6396   1.719   4.650   5.141  0.4129  0.4524  0.8649
   50DOPE  C217 6397   1.832   4.583   5.310  0.3047 -0.0745  0.4357
   50DOPE  H17R 6398   1.908   4.661   5.332 -0.6046  0.6804  0.9959
   50DOPE  H17S 6399   1.870   4.481   5.333 -0.3217 -0.0894  1.4956
   50DOPE  C218 6400   1.705   4.621   5.389 -0.0326  0.5466 -0.4437
   50DOPE  H18R 6401   1.646   4.704   5.344  0.6405  1.2250 -0.0838
   50DOPE  H18S 6402   1.739   4.661   5.487 -2.7161  0.4979  0.6005
   50DOPE  H18T 6403   1.647   4.528   5.407  2.7319 -1.2542 -0.3299
   50DOPE   C33 6404   2.069   5.079   3.745 -0.8538  0.4326 -0.5798
   50DOPE   H3X 6405   1.969   5.044   3.713 -0.3928 -0.1089 -1.4601
   50DOPE   H3Y 6406   2.096   5.155   3.668 -1.3406 -0.3502 -1.5452
   50DOPE   C34 6407   2.063   5.131   3.891  0.1416  0.1909 -0.3614
   50DOPE   H4X 6408   1.978   5.200   3.905 -1.9445 -1.7495 -2.5007
   50DOPE   H4Y 6409   2.040   5.046   3.959 -0.7201  0.9567  0.3221
   50DOPE   C35 6410   2.196   5.194   3.946 -0.0516  0.2332 -0.8548
   50DOPE   H5X 6411   2.218   5.296   3.908  0.7391  1.2085  1.9899
   50DOPE   H5Y 6412   2.280   5.126   3.920  0.1026 -0.1539  0.6000
   50DOPE   C36 6413   2.224   5.216   4.099  0.1371  0.4257  0.2447
   50DOPE   H6X 6414   2.317   5.276   4.113 -1.1683  2.2317  1.6843
   50DOPE   H6Y 6415   2.236   5.111   4.134 -0.0864  0.3459  0.0771
   50DOPE   C37 6416   2.108   5.278   4.177 -0.4264  0.0465  0.4355
   50DOPE   H7X 6417   2.118   5.387   4.156  2.1310 -0.0677  0.8544
   50DOPE   H7Y 6418   2.011   5.246   4.133 -0.2414  0.5723 -0.3619
   50DOPE   C38 6419   2.112   5.261   4.329  0.3702 -0.4630 -0.0648
   50DOPE   H8X 6420   2.102   5.152   4.350  1.6523 -0.6082 -0.1590
   50DOPE   H8Y 6421   2.021   5.310   4.369  1.6762  2.3874 -0.3404
   50DOPE   C39 6422   2.240   5.312   4.392 -0.4542 -0.1500  0.8625
   50DOPE   H9X 6423   2.267   5.408   4.345 -0.8475  0.3862  1.7042
   50DOPE  C310 6424   2.312   5.252   4.493 -0.2843 -0.1911  0.3740
   50DOPE  H10X 6425   2.407   5.296   4.528 -0.6987 -0.3011  1.7145
   50DOPE  C311 6426   2.277   5.124   4.572 -0.3459 -0.0801 -0.2585
   50DOPE  H11X 6427   2.196   5.072   4.516 -1.1306  0.6919  0.1263
   50DOPE  H11Y 6428   2.364   5.060   4.547  1.2795  1.8878  0.1115
   50DOPE  C312 6429   2.237   5.139   4.724  0.0612  0.1454  0.1137
   50DOPE  H12X 6430   2.138   5.190   4.725  0.8887  1.8002  1.5271
   50DOPE  H12Y 6431   2.300   5.208   4.783  0.6905  0.9625 -1.4627
   50DOPE  C313 6432   2.233   5.003   4.794  0.1813  0.1299  0.3378
   50DOPE  H13X 6433   2.167   4.933   4.740  2.5809 -2.3126  0.3155
   50DOPE  H13Y 6434   2.339   4.967   4.788  0.2120  0.4700 -1.5458
   50DOPE  C314 6435   2.186   4.998   4.937  0.7848  0.1349 -0.4163
   50DOPE  H14X 6436   2.239   5.075   4.996 -1.2293  0.9217  0.4417
   50DOPE  H14Y 6437   2.200   4.894   4.976  1.1241 -0.0515 -1.0146
   50DOPE  C315 6438   2.039   5.039   4.947 -0.5749 -0.8138 -0.0042
   50DOPE  H15X 6439   1.974   4.965   4.896  0.4683 -0.9720 -1.1402
   50DOPE  H15Y 6440   2.006   5.133   4.897 -2.9104 -2.0496 -0.9197
   50DOPE  C316 6441   2.003   5.056   5.093 -0.5180 -0.3483 -0.5263
   50DOPE  H16X 6442   2.054   5.144   5.136 -2.9146  0.5244  0.7406
   50DOPE  H16Y 6443   2.035   4.969   5.155 -2.6986 -0.9272 -0.1292
   50DOPE  C317 6444   1.845   5.073   5.115 -0.5895 -0.4140  0.2080
   50DOPE  H17X 6445   1.807   5.148   5.042  0.2006  0.1078  0.3174
   50DOPE  H17Y 6446   1.795   4.978   5.086 -0.2044 -0.5893  0.1207
   50DOPE  C318 6447   1.808   5.116   5.260  0.1484 -0.4093 -0.3424
   50DOPE  H18X 6448   1.880   5.189   5.303 -1.7250  1.4530 -0.2309
   50DOPE  H18Y 6449   1.710   5.163   5.282  1.0786  0.9460  1.1534
   50DOPE  H18Z 6450   1.817   5.021   5.317  2.4530 -0.3117 -0.4489
   51DOPE     N 6451   3.477   0.558   3.039 -0.0152 -0.2939 -0.5819
   51DOPE   HN1 6452   3.554   0.492   3.062  0.5690  0.5083 -0.2058
   51DOPE   HN2 6453   3.403   0.512   2.980  0.8289 -0.5811 -1.4468
   51DOPE   HN3 6454   3.514   0.631   2.975  1.6221 -0.5633  0.0129
   51DOPE   C12 6455   3.406   0.605   3.164  0.5815  0.7013  0.3516
   51DOPE  H12A 6456   3.332   0.685   3.141 -0.5821 -0.6720 -0.9134
   51DOPE  H12B 6457   3.471   0.633   3.249 -0.5286 -0.3593  1.6066
   51DOPE   C11 6458   3.320   0.490   3.217  0.1394  0.9301 -0.0466
   51DOPE  H11A 6459   3.276   0.520   3.315  1.5708  0.5267  0.7637
   51DOPE  H11B 6460   3.396   0.411   3.236  0.5785  1.1582 -0.8107
   51DOPE     P 6461   3.136   0.319   3.165  0.1635  0.2949  0.5524
   51DOPE   O13 6462   3.220   0.196   3.140  0.0204 -0.0617  0.5681
   51DOPE   O14 6463   3.004   0.327   3.096  0.0990  0.0691  0.5452
   51DOPE   O11 6464   3.108   0.328   3.315  0.5259 -0.1948 -0.1800
   51DOPE   O12 6465   3.222   0.446   3.124  0.0821  0.6053 -0.4965
   51DOPE    C1 6466   2.986   0.332   3.383  0.0793 -0.5045  0.1941
   51DOPE    HA 6467   2.911   0.259   3.343 -2.2056  1.2989  0.9680
   51DOPE    HB 6468   2.940   0.431   3.366  1.1745  0.1198  0.7666
   51DOPE    C2 6469   3.012   0.315   3.539  0.6709 -0.0045  0.0834
   51DOPE    HS 6470   3.102   0.253   3.558  0.1986 -0.4808  0.8448
   51DOPE   O21 6471   2.892   0.262   3.597  0.8857  0.2430  0.7841
   51DOPE   C21 6472   2.900   0.186   3.694  0.5022 -0.8804 -0.4664
   51DOPE   O22 6473   3.002   0.162   3.756 -0.1318  0.3497 -0.0036
   51DOPE   C22 6474   2.765   0.142   3.750  0.0576 -0.0074 -0.0748
   51DOPE   H2R 6475   2.706   0.109   3.662  0.9479  1.1633 -1.1357
   51DOPE   H2S 6476   2.724   0.233   3.798  0.0184 -0.3216  0.5014
   51DOPE    C3 6477   3.062   0.443   3.608  0.0297  0.1412  0.5792
   51DOPE    HX 6478   2.995   0.532   3.600  0.7983  0.9318  2.4114
   51DOPE    HY 6479   3.144   0.465   3.537 -2.1761  0.7278 -1.9656
   51DOPE   O31 6480   3.093   0.422   3.747 -0.0108  0.3656 -0.0520
   51DOPE   C31 6481   3.209   0.465   3.787 -0.4607 -0.3794  0.2285
   51DOPE   O32 6482   3.295   0.515   3.719  0.1433  0.4079 -0.5047
   51DOPE   C32 6483   3.221   0.444   3.934  0.1694  0.0808  0.2837
   51DOPE   H2X 6484   3.116   0.446   3.972 -0.2497  1.5037 -0.8589
   51DOPE   H2Y 6485   3.267   0.346   3.961 -0.2206  0.3845  2.2369
   51DOPE   C23 6486   2.787   0.037   3.860  0.2491  0.1593  0.2203
   51DOPE   H3R 6487   2.859   0.077   3.934 -1.9932  0.2269  2.4883
   51DOPE   H3S 6488   2.822  -0.060   3.820  0.3758 -0.4174  1.6832
   51DOPE   C24 6489   2.655  -0.001   3.937 -0.0989 -0.0849  0.6892
   51DOPE   H4R 6490   2.575  -0.045   3.872  0.8086 -0.3522 -0.2749
   51DOPE   H4S 6491   2.612   0.087   3.989  0.9083  0.3907  0.7276
   51DOPE   C25 6492   2.680  -0.108   4.041 -0.2505 -1.0172  0.1732
   51DOPE   H5R 6493   2.742  -0.075   4.127 -1.3397  1.3281  0.1405
   51DOPE   H5S 6494   2.735  -0.193   3.993  1.0547 -0.0216 -0.1525
   51DOPE   C26 6495   2.551  -0.158   4.100  0.2676 -0.1389  0.3330
   51DOPE   H6R 6496   2.486  -0.173   4.012  0.7504  3.1185 -0.7002
   51DOPE   H6S 6497   2.508  -0.066   4.145  0.1006 -0.7058  1.3587
   51DOPE   C27 6498   2.553  -0.281   4.199  0.2822 -0.4813  0.7771
   51DOPE   H7R 6499   2.537  -0.367   4.130  1.9544 -0.4297  0.2691
   51DOPE   H7S 6500   2.467  -0.268   4.268  0.4201 -0.1949  0.8955
   51DOPE   C28 6501   2.684  -0.287   4.285  0.4515 -0.1824  0.3681
   51DOPE   H8R 6502   2.681  -0.190   4.339  0.1469 -0.2707  0.5142
   51DOPE   H8S 6503   2.765  -0.302   4.211 -1.4058 -0.9487 -1.6099
   51DOPE   C29 6504   2.690  -0.400   4.385 -0.7331  0.1616 -0.6898
   51DOPE   H9R 6505   2.661  -0.383   4.489 -0.2688 -1.5677 -0.2464
   51DOPE  C210 6506   2.719  -0.528   4.357 -0.4613  0.1813  0.4434
   51DOPE  H10R 6507   2.734  -0.591   4.446  0.4711 -0.2524 -0.0029
   51DOPE  C211 6508   2.746  -0.593   4.227  0.2617 -0.4238 -0.2557
   51DOPE  H11R 6509   2.761  -0.521   4.144  0.0404  2.2437  1.8771
   51DOPE  H11S 6510   2.685  -0.683   4.203 -0.0659 -0.3029  0.1085
   51DOPE  C212 6511   2.884  -0.636   4.247 -0.3531 -0.4489  0.3252
   51DOPE  H12R 6512   2.907  -0.706   4.164  0.4695 -0.2792  0.4027
   51DOPE  H12S 6513   2.898  -0.698   4.338  1.9370  0.7670  0.8638
   51DOPE  C213 6514   2.992  -0.529   4.241  0.4625 -1.1818  0.2036
   51DOPE  H13R 6515   2.991  -0.474   4.337 -1.1669 -1.5686  0.4425
   51DOPE  H13S 6516   2.978  -0.450   4.164 -0.4512 -0.7422  0.8098
   51DOPE  C214 6517   3.138  -0.584   4.218 -0.7762 -0.0424 -0.8478
   51DOPE  H14R 6518   3.142  -0.595   4.108  1.3723 -0.3221 -0.7663
   51DOPE  H14S 6519   3.141  -0.687   4.259  0.7038  0.2954 -0.0408
   51DOPE  C215 6520   3.244  -0.491   4.271 -0.3531  0.3169 -1.0689
   51DOPE  H15R 6521   3.222  -0.486   4.380  2.7906 -1.6077 -0.2251
   51DOPE  H15S 6522   3.234  -0.390   4.226  1.0467  1.5759  1.2278
   51DOPE  C216 6523   3.384  -0.540   4.239 -0.1766 -1.0133 -0.5709
   51DOPE  H16R 6524   3.394  -0.567   4.132 -0.3042  2.6910 -1.6477
   51DOPE  H16S 6525   3.391  -0.633   4.299 -0.9596 -0.4784  0.3866
   51DOPE  C217 6526   3.510  -0.448   4.288 -0.3206  0.0657  0.8030
   51DOPE  H17R 6527   3.505  -0.345   4.247  1.2270 -0.5157 -0.9928
   51DOPE  H17S 6528   3.604  -0.491   4.247 -0.9440 -0.0539 -0.5521
   51DOPE  C218 6529   3.531  -0.429   4.440  0.3569 -0.1662  0.6554
   51DOPE  H18R 6530   3.612  -0.355   4.459 -0.5365  0.0382  4.2684
   51DOPE  H18S 6531   3.556  -0.527   4.486  0.5061 -0.3635  0.1605
   51DOPE  H18T 6532   3.435  -0.392   4.480  0.0290 -1.7799  1.4356
   51DOPE   C33 6533   3.318   0.550   3.991 -0.3231  0.4430 -0.2494
   51DOPE   H3X 6534   3.275   0.650   3.972 -1.2278  0.3609  1.1619
   51DOPE   H3Y 6535   3.415   0.537   3.938 -0.4155  1.3779 -0.6622
   51DOPE   C34 6536   3.349   0.536   4.142  0.9593 -0.0396  1.0671
   51DOPE   H4X 6537   3.408   0.447   4.175  1.0858 -0.2481  0.2846
   51DOPE   H4Y 6538   3.411   0.624   4.169  1.3536  1.6692 -4.3398
   51DOPE   C35 6539   3.224   0.556   4.236 -0.3536 -0.6404 -0.2353
   51DOPE   H5X 6540   3.166   0.463   4.216 -2.0130  0.3892 -0.4438
   51DOPE   H5Y 6541   3.158   0.643   4.214  0.5176  0.2024  0.4015
   51DOPE   C36 6542   3.257   0.568   4.381  0.2455  0.8891 -0.1136
   51DOPE   H6X 6543   3.174   0.606   4.443  0.2430  0.2299  0.3046
   51DOPE   H6Y 6544   3.342   0.638   4.395  1.7300 -0.4594 -1.8647
   51DOPE   C37 6545   3.286   0.432   4.450  0.1971  0.6072  0.3037
   51DOPE   H7X 6546   3.193   0.373   4.464 -0.0377  1.4607  2.8128
   51DOPE   H7Y 6547   3.354   0.370   4.387 -1.2569 -0.8346  0.0855
   51DOPE   C38 6548   3.344   0.433   4.598  0.4156  0.0330 -0.4836
   51DOPE   H8X 6549   3.355   0.325   4.622  0.8266 -0.1731 -1.5252
   51DOPE   H8Y 6550   3.262   0.467   4.665  0.3912 -0.4727 -0.2504
   51DOPE   C39 6551   3.476   0.503   4.622  0.0728 -0.4448  0.5643
   51DOPE   H9X 6552   3.560   0.441   4.587  0.6502  1.1319 -1.0167
   51DOPE  C310 6553   3.497   0.623   4.681  0.4267 -0.4099  0.4373
   51DOPE  H10X 6554   3.602   0.653   4.691  0.7569 -1.5338  0.5271
   51DOPE  C311 6555   3.403   0.729   4.737  0.2257 -0.5786  0.0248
   51DOPE  H11X 6556   3.309   0.722   4.678  0.1494  0.9746 -0.0751
   51DOPE  H11Y 6557   3.368   0.700   4.839 -0.3994 -0.9797 -0.2930
   51DOPE  C312 6558   3.452   0.873   4.724 -0.1777 -0.7849 -0.2140
   51DOPE  H12X 6559   3.483   0.897   4.620 -0.4024  2.4026  0.3556
   51DOPE  H12Y 6560   3.548   0.878   4.779  0.5493 -2.4630 -1.2520
   51DOPE  C313 6561   3.362   0.978   4.786  0.1994  0.0417 -0.7827
   51DOPE  H13X 6562   3.267   0.982   4.727 -0.1958 -2.2964 -0.3940
   51DOPE  H13Y 6563   3.340   0.931   4.884 -0.5295  2.2326  0.1604
   51DOPE  C314 6564   3.414   1.121   4.815  0.2422  0.8606 -0.0916
   51DOPE  H14X 6565   3.471   1.109   4.910 -1.5367 -0.0494  0.9100
   51DOPE  H14Y 6566   3.319   1.177   4.828 -0.8169 -0.7739 -0.5211
   51DOPE  C315 6567   3.499   1.185   4.702 -0.0783  1.3652  0.1450
   51DOPE  H15X 6568   3.436   1.178   4.611 -0.6479 -0.1702  0.6254
   51DOPE  H15Y 6569   3.591   1.127   4.679  0.1403  2.1011 -0.8914
   51DOPE  C316 6570   3.537   1.331   4.731  0.2851 -0.4814 -0.5995
   51DOPE  H16X 6571   3.595   1.332   4.826 -0.0422 -0.4269 -0.3994
   51DOPE  H16Y 6572   3.445   1.390   4.749  0.9154  0.3387 -0.0316
   51DOPE  C317 6573   3.626   1.390   4.616 -0.1576 -0.6107 -0.0924
   51DOPE  H17X 6574   3.702   1.463   4.652  0.3253 -0.9674 -0.3680
   51DOPE  H17Y 6575   3.687   1.307   4.575  0.7182 -1.1589  2.1808
   51DOPE  C318 6576   3.544   1.448   4.500  0.2929 -0.1798  0.5798
   51DOPE  H18X 6577   3.497   1.366   4.442  0.8870 -0.0375 -0.1194
   51DOPE  H18Y 6578   3.469   1.520   4.540  1.5333  0.8038  1.1857
   51DOPE  H18Z 6579   3.610   1.496   4.425 -0.1424 -1.7324 -0.8555
   52DOPE     N 6580   1.448   6.126   3.118  0.0977 -0.1261  0.3884
   52DOPE   HN1 6581   1.489   6.102   3.026 -0.9596 -0.0761 -0.1120
   52DOPE   HN2 6582   1.359   6.174   3.092 -0.4762 -1.2526  0.2086
   52DOPE   HN3 6583   1.504   6.203   3.161 -1.0080  1.1997 -0.4401
   52DOPE   C12 6584   1.420   6.012   3.210 -0.3964 -0.2431  0.1574
   52DOPE  H12A 6585   1.355   5.941   3.154 -0.7821 -0.4546  0.8690
   52DOPE  H12B 6586   1.364   6.050   3.298  1.2358 -0.0029  1.1309
   52DOPE   C11 6587   1.550   5.942   3.257  1.2407 -0.0364  0.6610
   52DOPE  H11A 6588   1.522   5.877   3.343 -1.5589  0.1700  0.0119
   52DOPE  H11B 6589   1.625   6.011   3.302  0.5148  2.2678 -1.4430
   52DOPE     P 6590   1.573   5.730   3.105 -0.4409  0.1022 -0.2907
   52DOPE   O13 6591   1.704   5.664   3.075  0.5882  1.0447  0.2135
   52DOPE   O14 6592   1.478   5.732   2.995  0.2506  0.4892 -0.4335
   52DOPE   O11 6593   1.489   5.670   3.232 -0.3139 -1.2428  0.2374
   52DOPE   O12 6594   1.608   5.874   3.146 -0.2639  0.1742 -0.2697
   52DOPE    C1 6595   1.570   5.602   3.329 -0.9949 -0.4194  0.0619
   52DOPE    HA 6596   1.515   5.601   3.426 -2.8401  1.6493 -0.8841
   52DOPE    HB 6597   1.672   5.647   3.335 -1.4675  0.5728  0.9983
   52DOPE    C2 6598   1.586   5.456   3.287 -0.4316  0.5396 -0.9622
   52DOPE    HS 6599   1.644   5.462   3.192 -1.1811  1.5394 -1.3610
   52DOPE   O21 6600   1.452   5.411   3.258 -0.2123  0.0316 -0.3387
   52DOPE   C21 6601   1.449   5.315   3.171  0.0825 -0.8065 -0.0730
   52DOPE   O22 6602   1.546   5.278   3.103  0.7077 -0.7042  0.3405
   52DOPE   C22 6603   1.298   5.275   3.169  0.2336 -0.6772 -0.3142
   52DOPE   H2R 6604   1.264   5.336   3.083  0.9253  1.4874  0.8526
   52DOPE   H2S 6605   1.237   5.314   3.254 -0.4584 -1.5593 -0.3913
   52DOPE    C3 6606   1.660   5.362   3.391 -0.5636  0.4616  0.0981
   52DOPE    HX 6607   1.767   5.382   3.372 -0.2007 -0.6645  0.8332
   52DOPE    HY 6608   1.647   5.262   3.343  1.3089 -0.4678  1.4089
   52DOPE   O31 6609   1.614   5.366   3.535  0.6645 -0.3399  0.3204
   52DOPE   C31 6610   1.666   5.262   3.597  0.2658 -0.8775  0.8290
   52DOPE   O32 6611   1.756   5.195   3.553 -0.2479  0.1372  0.2185
   52DOPE   C32 6612   1.583   5.248   3.725  0.3755  0.6719  0.6431
   52DOPE   H2X 6613   1.561   5.353   3.756 -0.1708  0.8500 -0.3031
   52DOPE   H2Y 6614   1.494   5.190   3.693  2.5786 -2.5615 -0.0490
   52DOPE   C23 6615   1.272   5.126   3.136  0.6122 -0.0222 -0.1042
   52DOPE   H3R 6616   1.351   5.083   3.070  0.3340  1.3912 -1.4110
   52DOPE   H3S 6617   1.171   5.122   3.090  0.5264  0.1881  0.0599
   52DOPE   C24 6618   1.270   5.046   3.268  0.0423  0.6364 -0.2730
   52DOPE   H4R 6619   1.215   4.951   3.254 -2.1282  0.9266  4.4411
   52DOPE   H4S 6620   1.217   5.106   3.346  0.0059 -0.9049  0.9227
   52DOPE   C25 6621   1.413   5.017   3.322  0.2554 -0.2223 -0.0975
   52DOPE   H5R 6622   1.468   5.112   3.337  0.2193 -0.2632  0.2843
   52DOPE   H5S 6623   1.452   4.956   3.238  0.2773  1.2133 -1.1671
   52DOPE   C26 6624   1.409   4.930   3.451  0.9552  0.0406 -0.2458
   52DOPE   H6R 6625   1.513   4.918   3.487 -0.6322 -1.9011  4.5000
   52DOPE   H6S 6626   1.356   4.832   3.443  1.4109 -0.4326  2.0271
   52DOPE   C27 6627   1.335   4.998   3.571  0.3567 -0.3387 -0.4048
   52DOPE   H7R 6628   1.230   4.993   3.537 -0.3176 -0.2284  1.5674
   52DOPE   H7S 6629   1.353   5.108   3.578 -1.2630 -0.1206  0.8365
   52DOPE   C28 6630   1.349   4.936   3.714 -0.3114 -0.1373  0.4367
   52DOPE   H8R 6631   1.280   4.994   3.779  1.5779 -0.4359  2.8222
   52DOPE   H8S 6632   1.444   4.960   3.765 -1.5757  1.5867  2.1572
   52DOPE   C29 6633   1.329   4.788   3.717  0.1504 -0.6687 -0.2751
   52DOPE   H9R 6634   1.383   4.727   3.644  0.1604 -1.2667  0.2199
   52DOPE  C210 6635   1.234   4.720   3.789  0.1147 -0.1257  0.1981
   52DOPE  H10R 6636   1.215   4.613   3.772  1.0891 -0.3625  0.5322
   52DOPE  C211 6637   1.138   4.792   3.875 -0.7063 -0.2848  0.5767
   52DOPE  H11R 6638   1.043   4.735   3.883  0.0086 -1.6931 -0.6262
   52DOPE  H11S 6639   1.107   4.887   3.828  0.9013  0.2211  0.4861
   52DOPE  C212 6640   1.204   4.820   4.014 -0.0570 -0.3474 -0.6364
   52DOPE  H12R 6641   1.293   4.886   4.005 -0.5333  0.4923  0.6467
   52DOPE  H12S 6642   1.244   4.721   4.044  0.8148 -0.4800 -2.0869
   52DOPE  C213 6643   1.110   4.862   4.124 -0.6005 -0.3416 -0.2056
   52DOPE  H13R 6644   1.022   4.795   4.137 -0.7294 -0.0878  0.2642
   52DOPE  H13S 6645   1.080   4.963   4.089 -2.0043 -0.5979  0.1645
   52DOPE  C214 6646   1.181   4.869   4.256 -0.4497 -0.1380 -0.2806
   52DOPE  H14R 6647   1.242   4.960   4.236 -2.3117  0.8282 -1.8143
   52DOPE  H14S 6648   1.244   4.779   4.273  1.5600  1.5092  1.5574
   52DOPE  C215 6649   1.090   4.896   4.377  0.0605 -0.1823  0.4049
   52DOPE  H15R 6650   1.046   4.796   4.398  0.2046 -0.1182  1.0078
   52DOPE  H15S 6651   1.009   4.971   4.361 -0.2275 -0.5626  0.0502
   52DOPE  C216 6652   1.181   4.938   4.488 -0.1526  0.0962  0.1436
   52DOPE  H16R 6653   1.219   5.041   4.471  0.2759  0.7364  4.0147
   52DOPE  H16S 6654   1.277   4.881   4.489 -1.1011 -1.6305 -1.4985
   52DOPE  C217 6655   1.115   4.941   4.633  0.3042 -0.3986  0.8126
   52DOPE  H17R 6656   1.040   5.022   4.640  0.8190  0.3117 -1.1610
   52DOPE  H17S 6657   1.186   4.986   4.706 -0.1588  0.3061  0.8345
   52DOPE  C218 6658   1.056   4.807   4.670 -0.5774  0.0650 -0.3653
   52DOPE  H18R 6659   0.980   4.777   4.595  0.7527 -1.5450 -1.1405
   52DOPE  H18S 6660   1.133   4.728   4.688 -0.9688 -0.6686 -1.7163
   52DOPE  H18T 6661   1.007   4.830   4.767 -1.3680 -1.7171 -0.2992
   52DOPE   C33 6662   1.658   5.166   3.836 -0.4334 -0.6242  0.1766
   52DOPE   H3X 6663   1.758   5.207   3.864 -0.5269 -0.3447  0.1059
   52DOPE   H3Y 6664   1.667   5.062   3.799  1.2511 -0.5430  0.2655
   52DOPE   C34 6665   1.587   5.155   3.974  0.0095 -0.2557  0.0846
   52DOPE   H4X 6666   1.561   5.256   4.012 -0.4661  0.3777 -1.8208
   52DOPE   H4Y 6667   1.484   5.117   3.952 -0.0001  0.0083 -0.3441
   52DOPE   C35 6668   1.669   5.057   4.064 -0.2395  0.0931 -0.4168
   52DOPE   H5X 6669   1.775   5.088   4.066 -0.3972  0.6638  1.0644
   52DOPE   H5Y 6670   1.677   4.959   4.012  0.4451 -0.1175  0.0718
   52DOPE   C36 6671   1.608   5.042   4.205  0.5664  0.1676  0.1880
   52DOPE   H6X 6672   1.637   4.947   4.254 -1.8836 -1.1590 -0.7563
   52DOPE   H6Y 6673   1.500   5.019   4.190  1.0343 -2.6529  0.5539
   52DOPE   C37 6674   1.651   5.151   4.304 -0.3819  1.2476  0.5014
   52DOPE   H7X 6675   1.683   5.241   4.246  1.7529  0.0035 -0.3608
   52DOPE   H7Y 6676   1.561   5.166   4.368 -1.4215 -3.0019  0.2980
   52DOPE   C38 6677   1.776   5.123   4.389  0.4682  0.1667  0.4115
   52DOPE   H8X 6678   1.820   5.217   4.429 -0.2569 -0.2652  2.3671
   52DOPE   H8Y 6679   1.845   5.095   4.307  0.5890  0.0457  0.5531
   52DOPE   C39 6680   1.765   5.021   4.500  0.5194  0.1228 -0.3740
   52DOPE   H9X 6681   1.772   4.917   4.464  1.2958  0.8618 -2.5132
   52DOPE  C310 6682   1.751   5.043   4.633 -1.0224 -0.5240 -0.0681
   52DOPE  H10X 6683   1.772   4.957   4.699 -0.9820 -0.7095 -0.3200
   52DOPE  C311 6684   1.742   5.175   4.702 -0.0899 -0.8781 -0.6911
   52DOPE  H11X 6685   1.831   5.190   4.768 -0.2021 -1.3396 -0.4349
   52DOPE  H11Y 6686   1.740   5.259   4.629 -0.1447  1.1666  1.5583
   52DOPE  C312 6687   1.609   5.187   4.779 -0.9478 -0.0774 -0.7235
   52DOPE  H12X 6688   1.593   5.111   4.859  0.4044  1.1660  0.8213
   52DOPE  H12Y 6689   1.524   5.150   4.718  0.9307 -1.6023 -2.6048
   52DOPE  C313 6690   1.582   5.330   4.828 -0.5734  0.0245 -0.0439
   52DOPE  H13X 6691   1.596   5.397   4.741  0.3532 -0.7409 -0.4957
   52DOPE  H13Y 6692   1.472   5.338   4.844 -0.4958  0.9457  0.1025
   52DOPE  C314 6693   1.663   5.395   4.940 -0.0102  0.1935  0.8804
   52DOPE  H14X 6694   1.763   5.409   4.895 -1.0970  1.3950 -1.2828
   52DOPE  H14Y 6695   1.671   5.331   5.031  1.3982  0.5994  1.0550
   52DOPE  C315 6696   1.608   5.532   4.992 -0.2831  0.0344  0.1515
   52DOPE  H15X 6697   1.504   5.541   5.031 -0.2475  2.0168 -0.1314
   52DOPE  H15Y 6698   1.610   5.596   4.901  1.1521 -0.0107  0.1308
   52DOPE  C316 6699   1.693   5.592   5.100 -0.5958  0.5055  0.2494
   52DOPE  H16X 6700   1.699   5.702   5.093 -2.1104  0.5386 -1.3041
   52DOPE  H16Y 6701   1.796   5.555   5.080 -1.0276 -0.9033  0.4714
   52DOPE  C317 6702   1.640   5.553   5.237  0.2481  0.6884  0.1077
   52DOPE  H17X 6703   1.534   5.587   5.247  0.0440  0.2225 -0.4009
   52DOPE  H17Y 6704   1.654   5.443   5.248 -2.4816  0.3680  1.2438
   52DOPE  C318 6705   1.725   5.619   5.350 -0.0660  0.1529 -0.0098
   52DOPE  H18X 6706   1.826   5.574   5.337 -0.1920 -0.1027 -0.1217
   52DOPE  H18Y 6707   1.735   5.728   5.332  0.5975  0.1133  0.0627
   52DOPE  H18Z 6708   1.699   5.603   5.457  2.8292 -2.3083  0.4843
   53DOPE     N 6709   6.763   7.387   2.398 -0.6305  0.1622 -0.6643
   53DOPE   HN1 6710   6.668   7.382   2.442 -0.2126  2.4290  0.6460
   53DOPE   HN2 6711   6.804   7.473   2.440  1.2441 -1.6606  1.4824
   53DOPE   HN3 6712   6.742   7.393   2.297 -0.4538  0.3276 -0.6909
   53DOPE   C12 6713   6.844   7.260   2.442  0.7526  0.0103  0.5324
   53DOPE  H12A 6714   6.949   7.290   2.462  0.5419  2.0804 -1.1372
   53DOPE  H12B 6715   6.842   7.196   2.351 -0.5026 -1.5379  1.5981
   53DOPE   C11 6716   6.789   7.178   2.559 -0.0482 -0.0230  0.2687
   53DOPE  H11A 6717   6.787   7.245   2.648  0.6326  1.5241 -0.8375
   53DOPE  H11B 6718   6.867   7.100   2.574  0.8239  0.8003  0.1514
   53DOPE     P 6719   6.538   7.186   2.598  0.4947 -0.1482 -0.1051
   53DOPE   O13 6720   6.411   7.112   2.557  0.9668 -0.8302 -0.2420
   53DOPE   O14 6721   6.553   7.332   2.568  0.5145 -0.0137 -0.3788
   53DOPE   O11 6722   6.555   7.162   2.748  0.1153 -0.0568 -0.8824
   53DOPE   O12 6723   6.660   7.121   2.526 -0.2234  0.2052  0.0310
   53DOPE    C1 6724   6.563   7.041   2.818 -0.9591  0.2736  0.0224
   53DOPE    HA 6725   6.631   6.968   2.768 -0.4425 -1.5673  3.1433
   53DOPE    HB 6726   6.463   6.992   2.824  0.0150 -2.0345 -1.0972
   53DOPE    C2 6727   6.620   7.061   2.958 -0.1379  0.5440  0.0585
   53DOPE    HS 6728   6.620   6.961   3.006 -2.2488  1.7216  2.7870
   53DOPE   O21 6729   6.548   7.152   3.038  0.0387 -0.1516 -0.3949
   53DOPE   C21 6730   6.419   7.121   3.066  0.2300  0.0354 -0.1121
   53DOPE   O22 6731   6.369   7.012   3.057 -0.3901  0.0709 -0.4392
   53DOPE   C22 6732   6.345   7.240   3.121  0.2868  0.2720  0.1847
   53DOPE   H2R 6733   6.312   7.301   3.033 -1.2471 -0.7979 -0.0211
   53DOPE   H2S 6734   6.396   7.311   3.189  0.5669 -0.1555  0.4241
   53DOPE    C3 6735   6.763   7.115   2.942  0.2078  0.2147  0.0835
   53DOPE    HX 6736   6.747   7.210   2.888  0.4680 -1.1511 -2.5757
   53DOPE    HY 6737   6.830   7.047   2.885  0.4076 -1.4098  2.1023
   53DOPE   O31 6738   6.824   7.144   3.072 -0.1562  0.0894  0.5216
   53DOPE   C31 6739   6.861   7.042   3.149  0.8938  0.2345 -0.6043
   53DOPE   O32 6740   6.869   6.923   3.122 -0.2148  0.0149  0.5920
   53DOPE   C32 6741   6.905   7.097   3.278 -0.5260  0.5578 -0.4035
   53DOPE   H2X 6742   6.924   7.207   3.273 -1.3346  0.8432  1.6894
   53DOPE   H2Y 6743   6.830   7.095   3.361 -0.9496  2.3864 -0.6892
   53DOPE   C23 6744   6.208   7.205   3.184 -0.4281 -0.2217  0.7602
   53DOPE   H3R 6745   6.174   7.102   3.158 -1.3735 -0.4772  2.8189
   53DOPE   H3S 6746   6.131   7.276   3.149  0.5917  0.2028 -0.7283
   53DOPE   C24 6747   6.206   7.199   3.335  0.5138  0.6221 -0.5235
   53DOPE   H4R 6748   6.247   7.297   3.367  1.7678 -0.6286  1.9590
   53DOPE   H4S 6749   6.272   7.116   3.366  0.4060  0.4635 -0.7191
   53DOPE   C25 6750   6.063   7.193   3.392 -0.2447  0.1824  0.6133
   53DOPE   H5R 6751   6.022   7.094   3.362  0.6354 -0.6510  2.0432
   53DOPE   H5S 6752   6.002   7.257   3.325  2.2600  1.5347 -0.4841
   53DOPE   C26 6753   6.039   7.211   3.543 -0.3121 -0.7055  0.0468
   53DOPE   H6R 6754   6.060   7.318   3.568  0.3645 -1.3481  2.5808
   53DOPE   H6S 6755   6.122   7.154   3.589  0.8668  0.6008 -0.3902
   53DOPE   C27 6756   5.901   7.177   3.581 -1.0265  0.2964  0.3172
   53DOPE   H7R 6757   5.877   7.069   3.568 -2.5663  0.7697 -0.9951
   53DOPE   H7S 6758   5.839   7.236   3.511 -0.1569  0.6852 -0.1347
   53DOPE   C28 6759   5.853   7.224   3.719  0.0887 -0.2974  0.1732
   53DOPE   H8R 6760   5.751   7.183   3.733 -1.4624  2.6730 -1.4084
   53DOPE   H8S 6761   5.851   7.335   3.720 -0.2145 -0.2316  3.9525
   53DOPE   C29 6762   5.935   7.192   3.833  0.5909  0.1501 -0.3248
   53DOPE   H9R 6763   6.035   7.235   3.820  0.5571 -0.3075 -2.5078
   53DOPE  C210 6764   5.906   7.129   3.954  0.2228 -0.5732  0.0860
   53DOPE  H10R 6765   5.988   7.102   4.022  1.2296 -0.2705 -0.9737
   53DOPE  C211 6766   5.771   7.075   3.996 -0.4026 -0.1987  1.0160
   53DOPE  H11R 6767   5.692   7.124   3.935  2.1033  0.5046 -1.9438
   53DOPE  H11S 6768   5.767   7.108   4.102  3.5235  0.2402  1.1446
   53DOPE  C212 6769   5.755   6.924   4.004 -0.2059  0.1837  0.0305
   53DOPE  H12R 6770   5.756   6.869   3.907 -1.1924 -3.2638  1.8024
   53DOPE  H12S 6771   5.660   6.897   4.054 -0.7159  0.2694 -0.8769
   53DOPE  C213 6772   5.856   6.863   4.103  0.0385 -0.6989 -0.1560
   53DOPE  H13R 6773   5.852   6.920   4.199  0.4711  0.7339 -0.9670
   53DOPE  H13S 6774   5.955   6.862   4.053 -0.9650 -1.3342 -2.2208
   53DOPE  C214 6775   5.835   6.715   4.144  0.1257 -0.1688 -0.2572
   53DOPE  H14R 6776   5.853   6.650   4.055  0.8959  1.1328 -1.0850
   53DOPE  H14S 6777   5.732   6.698   4.183  1.1769  0.7995  3.2797
   53DOPE  C215 6778   5.939   6.671   4.252 -0.8222 -1.0518  0.3931
   53DOPE  H15R 6779   5.967   6.757   4.316 -1.0542 -0.5380 -0.1826
   53DOPE  H15S 6780   6.027   6.648   4.187 -0.3794  0.1962  0.5108
   53DOPE  C216 6781   5.914   6.552   4.336  0.2243 -0.0005 -0.5967
   53DOPE  H16R 6782   5.913   6.456   4.280 -0.0565  1.2649 -2.9175
   53DOPE  H16S 6783   5.811   6.562   4.375  0.0139 -0.1600 -1.1019
   53DOPE  C217 6784   6.024   6.551   4.445 -0.1120  0.5254 -0.0958
   53DOPE  H17R 6785   6.010   6.641   4.510 -0.1902  1.4997 -1.4275
   53DOPE  H17S 6786   6.123   6.561   4.396  0.3171  1.0986  0.8447
   53DOPE  C218 6787   6.027   6.425   4.526 -0.6975 -0.0509  0.0781
   53DOPE  H18R 6788   5.927   6.415   4.575 -0.8303  0.4111 -0.0965
   53DOPE  H18S 6789   6.112   6.422   4.598 -0.4655 -1.3788 -0.2192
   53DOPE  H18T 6790   6.043   6.334   4.465  0.6880 -0.6095  1.2169
   53DOPE   C33 6791   7.040   7.044   3.340  1.1703  0.5601  0.7853
   53DOPE   H3X 6792   7.120   7.088   3.276  0.0330  3.0698  1.0051
   53DOPE   H3Y 6793   7.040   6.933   3.328  1.1504  0.2495  3.2671
   53DOPE   C34 6794   7.072   7.082   3.480 -0.1427 -0.4019  0.2558
   53DOPE   H4X 6795   6.991   7.032   3.538  0.3385 -3.2006 -1.3205
   53DOPE   H4Y 6796   7.177   7.056   3.505 -0.0778 -2.1717 -1.5767
   53DOPE   C35 6797   7.057   7.237   3.494 -0.3474 -0.1946 -0.0459
   53DOPE   H5X 6798   6.951   7.266   3.476 -0.1330  0.5826 -0.0877
   53DOPE   H5Y 6799   7.119   7.284   3.415  0.2481  0.3303  0.7259
   53DOPE   C36 6800   7.087   7.291   3.630 -0.5558 -0.6114  0.4434
   53DOPE   H6X 6801   7.041   7.393   3.633  0.8065  0.0238  0.2925
   53DOPE   H6Y 6802   7.196   7.307   3.637 -0.7939  0.6790  1.8496
   53DOPE   C37 6803   7.020   7.213   3.744 -0.4555  0.0923  0.5421
   53DOPE   H7X 6804   6.910   7.203   3.728 -0.3883 -1.9378  1.0626
   53DOPE   H7Y 6805   7.065   7.113   3.758 -2.8838 -1.1581 -0.0095
   53DOPE   C38 6806   7.017   7.272   3.886 -0.2222 -0.2681 -0.3583
   53DOPE   H8X 6807   7.123   7.296   3.905  0.0670 -1.3086 -0.6182
   53DOPE   H8Y 6808   6.982   7.201   3.964 -0.2270  0.4401  0.3064
   53DOPE   C39 6809   6.934   7.398   3.897 -0.0616 -0.0604  0.2805
   53DOPE   H9X 6810   6.917   7.458   3.806  1.8892  0.8889  0.4969
   53DOPE  C310 6811   6.875   7.445   4.014 -0.1214  0.6151 -0.5306
   53DOPE  H10X 6812   6.839   7.548   4.028  0.0690  0.7336 -0.8716
   53DOPE  C311 6813   6.893   7.375   4.142  0.7932 -0.4545  0.1348
   53DOPE  H11X 6814   6.810   7.303   4.151 -1.1159  1.7537  1.4141
   53DOPE  H11Y 6815   6.999   7.346   4.162  0.5100 -1.2436  0.5188
   53DOPE  C312 6816   6.866   7.479   4.254 -0.1922  0.5322  0.5215
   53DOPE  H12X 6817   6.757   7.500   4.261 -0.6047 -0.3792 -2.0878
   53DOPE  H12Y 6818   6.918   7.572   4.221  1.1106 -0.5613 -0.6127
   53DOPE  C313 6819   6.918   7.435   4.390 -0.7653  0.1865 -0.2027
   53DOPE  H13X 6820   6.893   7.333   4.425 -0.6207  1.4637  4.3184
   53DOPE  H13Y 6821   7.029   7.433   4.395 -0.7627 -2.0817 -0.2835
   53DOPE  C314 6822   6.883   7.538   4.500 -0.0267  0.1066  0.6769
   53DOPE  H14X 6823   6.779   7.568   4.474  0.3331 -0.2341 -1.2366
   53DOPE  H14Y 6824   6.946   7.628   4.482 -1.0644  0.6252 -0.4760
   53DOPE  C315 6825   6.902   7.498   4.645  0.1138  0.5359 -0.9184
   53DOPE  H15X 6826   7.007   7.516   4.675 -0.4697 -0.1270  1.8883
   53DOPE  H15Y 6827   6.885   7.388   4.648  0.9721  0.2699 -3.6265
   53DOPE  C316 6828   6.825   7.572   4.757 -0.2759 -0.1739  0.5118
   53DOPE  H16X 6829   6.716   7.564   4.737 -0.2094  0.8862 -0.3589
   53DOPE  H16Y 6830   6.844   7.680   4.743  0.1317 -0.1527  1.2228
   53DOPE  C317 6831   6.860   7.519   4.897 -0.3706  0.0684  0.2617
   53DOPE  H17X 6832   6.844   7.594   4.977  3.7845  1.4411 -0.0008
   53DOPE  H17Y 6833   6.806   7.422   4.906 -1.6664  0.7941  0.6879
   53DOPE  C318 6834   7.001   7.478   4.933  0.5045  0.5960 -0.1821
   53DOPE  H18X 6835   7.024   7.374   4.901 -3.3675 -0.2268 -0.7682
   53DOPE  H18Y 6836   7.069   7.563   4.909  0.0110  1.5096  1.5045
   53DOPE  H18Z 6837   7.006   7.466   5.044 -0.4576 -0.3104 -0.2277
   54DOPE     N 6838   2.067   4.485   2.951 -0.1181  0.0877 -0.2898
   54DOPE   HN1 6839   2.041   4.423   2.871 -1.6131 -0.4096  0.5423
   54DOPE   HN2 6840   2.075   4.585   2.921 -0.6396 -0.4392 -2.3670
   54DOPE   HN3 6841   2.159   4.454   2.988 -0.8727 -1.0191  0.7124
   54DOPE   C12 6842   1.957   4.475   3.054 -0.4422 -0.1571  0.4867
   54DOPE  H12A 6843   1.860   4.471   3.001 -0.4630  0.2196  0.4929
   54DOPE  H12B 6844   1.962   4.569   3.114  0.2321  1.3938 -1.8291
   54DOPE   C11 6845   1.980   4.356   3.152  0.3709  0.2536  0.3141
   54DOPE  H11A 6846   1.908   4.352   3.236  1.9606  0.1412  1.7292
   54DOPE  H11B 6847   2.076   4.373   3.206 -0.0452 -0.6345  1.3815
   54DOPE     P 6848   1.862   4.156   3.041  0.0040 -0.1862 -0.0505
   54DOPE   O13 6849   1.897   4.052   2.940 -0.1126 -0.0393 -1.0347
   54DOPE   O14 6850   1.749   4.243   3.007  0.5321 -0.7735  0.8352
   54DOPE   O11 6851   1.825   4.075   3.172 -0.1438 -0.2327  0.0697
   54DOPE   O12 6852   1.993   4.237   3.075 -1.0410 -0.1087 -0.6713
   54DOPE    C1 6853   1.890   3.964   3.215  0.4355  0.0414  0.2031
   54DOPE    HA 6854   1.951   3.918   3.134  0.8381  2.8707 -1.2224
   54DOPE    HB 6855   1.814   3.886   3.238  0.4454 -0.2617 -0.7456
   54DOPE    C2 6856   1.971   3.994   3.342  0.1510  0.2028  0.2413
   54DOPE    HS 6857   2.050   4.068   3.318 -0.0995  0.2164 -0.5992
   54DOPE   O21 6858   2.016   3.873   3.404 -0.3045  0.1635  0.1434
   54DOPE   C21 6859   2.137   3.865   3.459  0.4913 -0.6761 -0.2574
   54DOPE   O22 6860   2.216   3.958   3.471  0.1813  0.0243  0.3704
   54DOPE   C22 6861   2.168   3.727   3.512  0.0696 -0.9437 -0.5322
   54DOPE   H2R 6862   2.203   3.659   3.432  3.5114  1.9819 -1.7363
   54DOPE   H2S 6863   2.079   3.678   3.557  2.7458 -3.6256  2.3800
   54DOPE    C3 6864   1.880   4.071   3.444  0.7992  0.8041  0.4170
   54DOPE    HX 6865   1.805   3.995   3.474  0.6677  0.5646 -0.4939
   54DOPE    HY 6866   1.829   4.158   3.397 -0.3024  0.7091  1.3991
   54DOPE   O31 6867   1.955   4.109   3.554 -0.0357 -0.2197 -0.4307
   54DOPE   C31 6868   2.008   4.232   3.561  0.2959 -0.2519 -0.0063
   54DOPE   O32 6869   1.988   4.324   3.486 -0.1633  0.3255 -0.1911
   54DOPE   C32 6870   2.097   4.234   3.680  0.6035  0.4193 -0.3338
   54DOPE   H2X 6871   2.148   4.136   3.691  0.9523  0.7423  1.1851
   54DOPE   H2Y 6872   2.176   4.312   3.670  1.9120 -0.8154 -0.0090
   54DOPE   C23 6873   2.280   3.734   3.621  0.4543  0.7622 -0.1730
   54DOPE   H3R 6874   2.260   3.806   3.703 -1.0219 -0.0127  0.1797
   54DOPE   H3S 6875   2.376   3.764   3.573  0.9844 -1.0396 -0.3428
   54DOPE   C24 6876   2.303   3.593   3.693 -0.9423 -0.7846 -0.5520
   54DOPE   H4R 6877   2.370   3.540   3.623 -1.0881 -1.1359 -0.4275
   54DOPE   H4S 6878   2.203   3.547   3.707 -0.1561 -1.8382  2.6038
   54DOPE   C25 6879   2.379   3.604   3.822 -0.1415 -0.1517  0.0956
   54DOPE   H5R 6880   2.303   3.621   3.901 -2.6587  1.3125 -2.4238
   54DOPE   H5S 6881   2.448   3.689   3.806 -0.6571  0.0079 -1.5680
   54DOPE   C26 6882   2.446   3.485   3.888  0.0173  0.7176 -0.3809
   54DOPE   H6R 6883   2.526   3.441   3.825  2.1347  1.4057  1.6842
   54DOPE   H6S 6884   2.368   3.411   3.917  2.4813 -1.0021  2.5865
   54DOPE   C27 6885   2.506   3.519   4.027 -0.0180  0.6498  0.2965
   54DOPE   H7R 6886   2.427   3.567   4.088 -0.0823 -1.8730  2.3952
   54DOPE   H7S 6887   2.592   3.588   4.020 -0.1998  0.9673  1.1511
   54DOPE   C28 6888   2.558   3.393   4.101 -0.1869  0.0491  0.0206
   54DOPE   H8R 6889   2.620   3.443   4.179  0.2787 -2.3882  1.2984
   54DOPE   H8S 6890   2.642   3.353   4.039  1.0779  1.1847  0.9360
   54DOPE   C29 6891   2.460   3.292   4.150  0.1122  0.6389 -0.2045
   54DOPE   H9R 6892   2.413   3.238   4.067  2.2294 -0.3062 -0.8470
   54DOPE  C210 6893   2.414   3.271   4.276  0.6805  0.3579  0.3128
   54DOPE  H10R 6894   2.338   3.193   4.292 -0.3030  1.6339  2.1662
   54DOPE  C211 6895   2.451   3.345   4.403 -0.2160 -0.0810 -0.3322
   54DOPE  H11R 6896   2.442   3.456   4.393 -0.3588 -0.0757 -0.1599
   54DOPE  H11S 6897   2.551   3.316   4.440 -0.3675  0.9629  0.9970
   54DOPE  C212 6898   2.360   3.306   4.514  0.5055  0.0802 -0.0742
   54DOPE  H12R 6899   2.332   3.200   4.526 -1.6000  0.8314  2.4113
   54DOPE  H12S 6900   2.260   3.353   4.504  0.8250  0.5590 -1.1823
   54DOPE  C213 6901   2.405   3.354   4.657  0.4271  0.1751  0.4544
   54DOPE  H13R 6902   2.426   3.463   4.665 -1.2858  0.4510  1.6423
   54DOPE  H13S 6903   2.508   3.315   4.671 -0.5057 -1.6388  2.9294
   54DOPE  C214 6904   2.306   3.325   4.769 -0.1723 -0.4320  0.2457
   54DOPE  H14R 6905   2.266   3.222   4.769 -3.2752  0.6297  2.3726
   54DOPE  H14S 6906   2.215   3.388   4.758  1.4684  2.2358  0.9069
   54DOPE  C215 6907   2.369   3.336   4.906  0.1414 -0.0590  0.6555
   54DOPE  H15R 6908   2.431   3.428   4.897  0.9881 -0.7932 -2.2304
   54DOPE  H15S 6909   2.429   3.244   4.920 -1.8008 -1.9542 -2.3851
   54DOPE  C216 6910   2.271   3.358   5.020  0.4654 -0.5272  0.1065
   54DOPE  H16R 6911   2.185   3.287   5.018 -3.7752  4.0067 -2.1774
   54DOPE  H16S 6912   2.214   3.454   5.019  1.0259 -0.0990  2.5761
   54DOPE  C217 6913   2.334   3.360   5.161  0.1625 -0.1802  0.1886
   54DOPE  H17R 6914   2.417   3.287   5.165  0.5650  0.1425 -1.4438
   54DOPE  H17S 6915   2.256   3.332   5.235  1.1230 -1.0874  0.8684
   54DOPE  C218 6916   2.391   3.496   5.205  0.7545  0.2823  0.1440
   54DOPE  H18R 6917   2.310   3.570   5.186  0.0271 -0.9879 -2.0355
   54DOPE  H18S 6918   2.480   3.517   5.142  0.3014 -1.0218 -0.9819
   54DOPE  H18T 6919   2.418   3.495   5.312  1.8157 -0.8995 -0.1208
   54DOPE   C33 6920   2.018   4.251   3.816  0.4443 -0.5929  0.0099
   54DOPE   H3X 6921   1.927   4.188   3.818 -0.6576  0.9555  0.1050
   54DOPE   H3Y 6922   1.990   4.358   3.814 -1.1886 -0.9706  0.9284
   54DOPE   C34 6923   2.097   4.213   3.943 -0.1181  0.2722 -0.6023
   54DOPE   H4X 6924   2.041   4.222   4.038  1.5431 -2.8220  0.8173
   54DOPE   H4Y 6925   2.128   4.107   3.933 -0.8805 -0.1360  1.0067
   54DOPE   C35 6926   2.221   4.300   3.959  0.1229 -0.0388  0.4027
   54DOPE   H5X 6927   2.201   4.406   3.933  1.9157 -0.7564 -5.1926
   54DOPE   H5Y 6928   2.295   4.269   3.882 -0.0535  0.0980  0.1785
   54DOPE   C36 6929   2.295   4.289   4.093  1.0114  1.2577  0.0020
   54DOPE   H6X 6930   2.404   4.302   4.075  1.4123 -0.2490  1.1845
   54DOPE   H6Y 6931   2.297   4.184   4.127  0.1607  1.3031  0.2273
   54DOPE   C37 6932   2.250   4.376   4.213  0.4037  0.5792 -0.0137
   54DOPE   H7X 6933   2.286   4.481   4.207  0.1006  0.6365 -1.2557
   54DOPE   H7Y 6934   2.139   4.382   4.205  0.3837  1.2684  0.7129
   54DOPE   C38 6935   2.273   4.310   4.351  0.5935  0.1519  0.2399
   54DOPE   H8X 6936   2.238   4.204   4.352  0.2967  0.2510  0.1463
   54DOPE   H8Y 6937   2.202   4.362   4.419 -0.3634  1.0131 -1.3744
   54DOPE   C39 6938   2.415   4.325   4.384  0.3436  0.6736 -0.0227
   54DOPE   H9X 6939   2.477   4.252   4.329 -1.6855  0.1598 -1.7616
   54DOPE  C310 6940   2.476   4.396   4.478  0.9996  0.4265  0.6054
   54DOPE  H10X 6941   2.584   4.379   4.493  1.1975  1.6203  0.6284
   54DOPE  C311 6942   2.400   4.485   4.580 -0.4540 -0.5166 -0.7112
   54DOPE  H11X 6943   2.341   4.563   4.529  0.9736  1.4875  0.5580
   54DOPE  H11Y 6944   2.334   4.426   4.648 -0.1793  0.1848  0.1909
   54DOPE  C312 6945   2.505   4.545   4.681 -0.4571 -0.1927 -0.1817
   54DOPE  H12X 6946   2.568   4.622   4.631 -0.7505  0.0723 -0.1473
   54DOPE  H12Y 6947   2.564   4.458   4.719  0.7595  0.0015 -1.5426
   54DOPE  C313 6948   2.432   4.603   4.805 -0.2017 -0.0373 -0.2356
   54DOPE  H13X 6949   2.336   4.653   4.783  1.0273  1.4671 -2.6682
   54DOPE  H13Y 6950   2.408   4.515   4.868  0.9321 -0.2714 -0.0924
   54DOPE  C314 6951   2.523   4.691   4.894  0.1353  0.3198 -0.0611
   54DOPE  H14X 6952   2.506   4.799   4.872  4.2124  0.6937 -2.2404
   54DOPE  H14Y 6953   2.629   4.663   4.880  1.2448  3.1510  1.7873
   54DOPE  C315 6954   2.484   4.663   5.035  0.1936  0.0921  0.2691
   54DOPE  H15X 6955   2.520   4.560   5.058 -0.9815 -0.0138  1.8125
   54DOPE  H15Y 6956   2.373   4.661   5.040  0.1942  1.2013  1.0023
   54DOPE  C316 6957   2.541   4.762   5.136  0.4310 -0.3005 -0.0069
   54DOPE  H16X 6958   2.496   4.863   5.124 -0.2821 -0.2800  2.2439
   54DOPE  H16Y 6959   2.650   4.766   5.117  0.3400 -1.0336 -0.7183
   54DOPE  C317 6960   2.515   4.732   5.289 -0.0187  0.0873  0.5423
   54DOPE  H17X 6961   2.407   4.716   5.306 -0.0315 -0.0558  0.3354
   54DOPE  H17Y 6962   2.559   4.632   5.313  2.6998  0.9427 -0.5322
   54DOPE  C318 6963   2.565   4.831   5.389 -0.4189 -0.4427  0.1367
   54DOPE  H18X 6964   2.590   4.778   5.484 -0.5162 -2.8355 -1.0945
   54DOPE  H18Y 6965   2.663   4.875   5.360  0.6962 -2.2068  1.0135
   54DOPE  H18Z 6966   2.490   4.911   5.405 -0.9348 -0.6179 -1.2807
   55DOPE     N 6967   2.061   6.623   3.310  0.2947 -0.1351  0.0232
   55DOPE   HN1 6968   2.130   6.656   3.380  0.3334 -1.6021  0.7107
   55DOPE   HN2 6969   2.064   6.520   3.296 -2.9037 -0.5380  1.4999
   55DOPE   HN3 6970   2.069   6.660   3.213 -0.6080  0.2095  0.0692
   55DOPE   C12 6971   1.924   6.633   3.375  0.1276 -0.0889  0.0109
   55DOPE  H12A 6972   1.909   6.738   3.408 -1.5508  0.1595 -1.3710
   55DOPE  H12B 6973   1.930   6.561   3.459  1.5560 -0.1849 -0.1449
   55DOPE   C11 6974   1.803   6.596   3.289 -0.1304  0.7453 -0.4898
   55DOPE  H11A 6975   1.775   6.661   3.204 -3.0544 -1.4557 -1.3717
   55DOPE  H11B 6976   1.710   6.598   3.349  0.3233 -0.5787  0.2942
   55DOPE     P 6977   1.738   6.345   3.294 -0.1293 -0.4058  0.2821
   55DOPE   O13 6978   1.811   6.222   3.260 -0.3136  0.0057  0.1930
   55DOPE   O14 6979   1.599   6.334   3.257  0.3206  0.0759  0.5770
   55DOPE   O11 6980   1.751   6.382   3.446 -0.0744  0.2193 -0.0850
   55DOPE   O12 6981   1.812   6.472   3.226  0.3427 -0.3784  0.2075
   55DOPE    C1 6982   1.837   6.289   3.516  0.1482  0.0549  0.4218
   55DOPE    HA 6983   1.872   6.341   3.608  0.5471 -1.2706  1.0526
   55DOPE    HB 6984   1.935   6.265   3.471 -0.2909  1.4901 -1.4038
   55DOPE    C2 6985   1.760   6.157   3.557  0.9877 -0.1142  0.3559
   55DOPE    HS 6986   1.722   6.108   3.465 -0.1608 -0.0130  0.7571
   55DOPE   O21 6987   1.646   6.198   3.639 -0.9884  0.2122  0.3406
   55DOPE   C21 6988   1.546   6.108   3.643  0.2200 -0.8563 -0.5455
   55DOPE   O22 6989   1.541   6.009   3.574 -0.0304  0.1633  0.3227
   55DOPE   C22 6990   1.450   6.131   3.763  0.4849  0.4180  0.5652
   55DOPE   H2R 6991   1.408   6.233   3.749  0.6058  0.1861 -2.0533
   55DOPE   H2S 6992   1.509   6.135   3.857 -0.8008  2.3978  1.3408
   55DOPE    C3 6993   1.846   6.063   3.638  0.1288 -0.5485  0.9980
   55DOPE    HX 6994   1.929   6.027   3.573 -1.0354 -1.6180  0.0588
   55DOPE    HY 6995   1.791   5.968   3.651 -0.2896 -0.4169  0.2667
   55DOPE   O31 6996   1.895   6.124   3.757  0.2704 -0.7305 -0.0966
   55DOPE   C31 6997   1.836   6.107   3.871  0.3415 -0.3823 -0.0613
   55DOPE   O32 6998   1.731   6.054   3.891  0.3401  0.2861  0.4644
   55DOPE   C32 6999   1.914   6.197   3.971  0.5010  0.7242  0.4934
   55DOPE   H2X 7000   2.009   6.220   3.919 -0.4055 -3.0769 -3.4195
   55DOPE   H2Y 7001   1.860   6.294   3.969  0.3587  0.6366 -1.2483
   55DOPE   C23 7002   1.337   6.023   3.770 -0.0917  0.3399  0.7964
   55DOPE   H3R 7003   1.380   5.921   3.780  0.6511  0.6395  0.7503
   55DOPE   H3S 7004   1.286   6.035   3.672 -0.5250 -2.4944  0.5762
   55DOPE   C24 7005   1.255   6.046   3.899  0.2707 -0.2192 -0.3385
   55DOPE   H4R 7006   1.221   6.152   3.902  1.3305  0.1198  0.0428
   55DOPE   H4S 7007   1.318   6.052   3.990  0.6394  0.9994 -0.6491
   55DOPE   C25 7008   1.130   5.959   3.915  0.5644  0.2088 -0.3482
   55DOPE   H5R 7009   1.164   5.858   3.946  1.0049  1.0209  1.9537
   55DOPE   H5S 7010   1.084   5.946   3.815 -1.3129  0.5054  0.4506
   55DOPE   C26 7011   1.026   6.010   4.011 -0.3780  0.6348 -0.0503
   55DOPE   H6R 7012   0.938   5.944   3.994  0.1171  0.1903 -0.9797
   55DOPE   H6S 7013   0.998   6.113   3.982  0.5236  0.7296 -0.6134
   55DOPE   C27 7014   1.077   5.998   4.153  0.3310  1.0578  0.2245
   55DOPE   H7R 7015   1.127   6.096   4.171  2.4374 -0.3471  2.7297
   55DOPE   H7S 7016   1.135   5.908   4.183 -0.8458 -0.6904 -2.4351
   55DOPE   C28 7017   0.952   5.984   4.242 -0.0738 -0.1844 -0.0104
   55DOPE   H8R 7018   0.901   5.889   4.216 -0.4104  0.1104 -0.4423
   55DOPE   H8S 7019   0.882   6.067   4.219 -1.0897 -0.7397  1.0056
   55DOPE   C29 7020   0.987   5.976   4.385  0.4529 -0.5233 -0.2098
   55DOPE   H9R 7021   0.993   6.078   4.426 -2.9350 -0.0043 -0.7662
   55DOPE  C210 7022   1.002   5.867   4.468  0.3163  0.1774  1.3371
   55DOPE  H10R 7023   1.044   5.879   4.569 -0.5550 -1.8552  2.0017
   55DOPE  C211 7024   0.996   5.722   4.423  0.1914 -0.9999  0.5312
   55DOPE  H11R 7025   1.090   5.671   4.451  0.8244 -0.6397 -0.8801
   55DOPE  H11S 7026   0.994   5.707   4.313 -0.9705  0.5163  0.3165
   55DOPE  C212 7027   0.872   5.637   4.477  0.3998 -0.1098 -0.0999
   55DOPE  H12R 7028   0.895   5.532   4.450  0.1036  0.3490 -2.3587
   55DOPE  H12S 7029   0.787   5.662   4.410  0.5012 -0.9916 -0.5689
   55DOPE  C213 7030   0.846   5.646   4.628  0.7099 -0.1080  0.7699
   55DOPE  H13R 7031   0.751   5.591   4.641  1.4866 -1.9961 -0.9650
   55DOPE  H13S 7032   0.828   5.753   4.652 -2.4213 -0.5153  0.6468
   55DOPE  C214 7033   0.948   5.578   4.721 -0.6704  0.0099 -0.0866
   55DOPE  H14R 7034   1.048   5.611   4.684 -0.1425 -2.2903 -0.9096
   55DOPE  H14S 7035   0.941   5.467   4.715 -4.0883  0.1600 -0.3030
   55DOPE  C215 7036   0.938   5.624   4.869 -0.8227 -0.1906 -0.3367
   55DOPE  H15R 7037   0.839   5.601   4.915 -1.8645  0.3540 -2.1990
   55DOPE  H15S 7038   0.946   5.734   4.869 -1.4577 -0.1070  1.5126
   55DOPE  C216 7039   1.044   5.566   4.963 -0.0361 -0.0935  0.3432
   55DOPE  H16R 7040   1.143   5.610   4.941 -0.7172  1.3796  0.0680
   55DOPE  H16S 7041   1.037   5.456   4.949  0.2644 -0.2734  1.5247
   55DOPE  C217 7042   1.002   5.599   5.108  0.0012  0.7560  0.4572
   55DOPE  H17R 7043   0.911   5.539   5.128  0.3247  0.0081 -0.2491
   55DOPE  H17S 7044   0.971   5.705   5.119  0.9346  0.8559  2.5460
   55DOPE  C218 7045   1.113   5.566   5.204  0.7381  0.2189  0.1033
   55DOPE  H18R 7046   1.182   5.652   5.211  1.4782 -0.4748  2.1235
   55DOPE  H18S 7047   1.164   5.472   5.173  0.2341 -0.2033  0.5372
   55DOPE  H18T 7048   1.069   5.549   5.305  3.3919  1.3090  1.5428
   55DOPE   C33 7049   1.921   6.128   4.110 -0.5722  0.9036 -0.1701
   55DOPE   H3X 7050   2.000   6.050   4.100 -0.1078  1.5916 -2.7643
   55DOPE   H3Y 7051   1.827   6.078   4.140  1.4154 -2.0724  1.6757
   55DOPE   C34 7052   1.970   6.221   4.219  0.1707  0.0178  0.1234
   55DOPE   H4X 7053   1.884   6.292   4.225  1.5225  1.5803  2.7629
   55DOPE   H4Y 7054   1.964   6.165   4.314 -0.6625 -2.2910 -1.2088
   55DOPE   C35 7055   2.111   6.284   4.203 -0.1458 -0.2812  0.3298
   55DOPE   H5X 7056   2.134   6.326   4.103  0.2212  2.6713  1.5518
   55DOPE   H5Y 7057   2.188   6.212   4.239 -0.4341  0.4580  2.5809
   55DOPE   C36 7058   2.126   6.396   4.312 -0.5848  0.4468 -0.1286
   55DOPE   H6X 7059   2.171   6.345   4.400  0.1135 -0.0922 -0.7847
   55DOPE   H6Y 7060   2.022   6.425   4.337 -0.9049 -0.6983 -0.0496
   55DOPE   C37 7061   2.199   6.516   4.256  0.6698  0.9580  0.7535
   55DOPE   H7X 7062   2.285   6.478   4.197  0.4837 -2.3941  2.4236
   55DOPE   H7Y 7063   2.142   6.568   4.175  0.7507  0.6481  0.4975
   55DOPE   C38 7064   2.254   6.608   4.357  0.1727 -0.6081 -0.0819
   55DOPE   H8X 7065   2.321   6.678   4.303  0.8635 -0.6503  0.7018
   55DOPE   H8Y 7066   2.321   6.555   4.428  0.0454  0.8119  1.1435
   55DOPE   C39 7067   2.160   6.685   4.444 -0.1114  1.2117  0.1326
   55DOPE   H9X 7068   2.118   6.636   4.533 -1.1121 -0.4315 -1.1805
   55DOPE  C310 7069   2.136   6.816   4.421 -0.3054  0.6782  0.0399
   55DOPE  H10X 7070   2.073   6.873   4.491 -1.1228 -1.0408  0.7579
   55DOPE  C311 7071   2.199   6.895   4.310 -0.4272 -1.0306  0.1379
   55DOPE  H11X 7072   2.210   6.836   4.217  1.5514  0.9056 -0.9438
   55DOPE  H11Y 7073   2.128   6.973   4.275  0.5741 -0.2860 -0.2762
   55DOPE  C312 7074   2.338   6.970   4.349  0.9508  0.3469  0.2880
   55DOPE  H12X 7075   2.375   7.033   4.266 -1.2788  1.5086  0.0926
   55DOPE  H12Y 7076   2.415   6.893   4.369  1.0948  0.1865 -0.8311
   55DOPE  C313 7077   2.317   7.058   4.479 -0.0925 -0.0996  0.1671
   55DOPE  H13X 7078   2.291   7.003   4.572 -0.4413 -0.5689 -0.2033
   55DOPE  H13Y 7079   2.417   7.102   4.501  1.2175 -2.9579  0.3703
   55DOPE  C314 7080   2.224   7.177   4.467  0.7485  0.1181  0.0594
   55DOPE  H14X 7081   2.118   7.157   4.438  1.0103  0.4007 -1.1031
   55DOPE  H14Y 7082   2.254   7.247   4.387  1.1441 -1.0542 -0.8347
   55DOPE  C315 7083   2.236   7.276   4.591 -0.2078 -0.2660  1.2246
   55DOPE  H15X 7084   2.179   7.367   4.564  0.2150  0.0758  1.4707
   55DOPE  H15Y 7085   2.342   7.305   4.606  0.1732 -0.4523 -0.8149
   55DOPE  C316 7086   2.166   7.231   4.721  0.4297  0.2485  1.2359
   55DOPE  H16X 7087   2.207   7.130   4.743 -2.0509 -0.9940  0.4609
   55DOPE  H16Y 7088   2.056   7.224   4.710  0.3397  2.6460 -0.0917
   55DOPE  C317 7089   2.192   7.325   4.841 -0.1850  0.6237 -0.5745
   55DOPE  H17X 7090   2.301   7.322   4.867 -0.6367  0.6766  1.5640
   55DOPE  H17Y 7091   2.157   7.429   4.824 -1.6801  0.7960  2.7353
   55DOPE  C318 7092   2.125   7.284   4.972 -0.0436 -0.7205 -0.1318
   55DOPE  H18X 7093   2.015   7.275   4.957  0.0734 -0.7288 -1.0326
   55DOPE  H18Y 7094   2.166   7.184   4.999 -2.7098 -2.3666 -1.7267
   55DOPE  H18Z 7095   2.148   7.368   5.042  1.0919 -0.6909 -0.5203
   56DOPE     N 7096   3.108   6.142   3.232  0.3378  0.1426 -0.1990
   56DOPE   HN1 7097   3.081   6.058   3.176  0.8693  0.8436 -1.5593
   56DOPE   HN2 7098   3.210   6.150   3.212  0.1002 -1.7053 -2.7016
   56DOPE   HN3 7099   3.090   6.144   3.334 -0.6565  1.1811 -0.3697
   56DOPE   C12 7100   3.016   6.254   3.185  0.3639 -0.1639  0.1015
   56DOPE  H12A 7101   3.028   6.278   3.077  1.4388 -0.6615  0.0931
   56DOPE  H12B 7102   3.057   6.340   3.242  0.9510 -0.0029 -0.5378
   56DOPE   C11 7103   2.868   6.224   3.216 -0.1151  1.4354 -0.2327
   56DOPE  H11A 7104   2.839   6.129   3.167  2.0151  0.0677  0.9736
   56DOPE  H11B 7105   2.808   6.308   3.174 -0.9465  0.7945 -0.3533
   56DOPE     P 7106   2.714   6.157   3.414 -0.2600 -0.0082 -0.3710
   56DOPE   O13 7107   2.680   6.021   3.366  0.0278  0.3203  0.1314
   56DOPE   O14 7108   2.610   6.260   3.386  0.3778  0.3040 -0.2007
   56DOPE   O11 7109   2.734   6.147   3.570  0.4993  0.3973  0.0369
   56DOPE   O12 7110   2.849   6.212   3.360  0.0009 -0.2773 -0.2930
   56DOPE    C1 7111   2.661   6.055   3.650  0.1419  0.4112 -0.5497
   56DOPE    HA 7112   2.703   6.072   3.751  0.8505  0.9866 -0.9293
   56DOPE    HB 7113   2.684   5.951   3.619  0.1533  0.1462  0.3167
   56DOPE    C2 7114   2.506   6.067   3.651  0.0247 -0.9703 -0.2864
   56DOPE    HS 7115   2.472   6.032   3.550 -1.9769 -0.7710  0.2687
   56DOPE   O21 7116   2.465   6.200   3.675  0.1710 -1.0133 -0.8257
   56DOPE   C21 7117   2.339   6.229   3.646  0.1698 -0.2250  0.3341
   56DOPE   O22 7118   2.258   6.147   3.600  0.1759 -0.6177 -0.0687
   56DOPE   C22 7119   2.315   6.375   3.674 -0.8736  0.8981  0.2663
   56DOPE   H2R 7120   2.363   6.430   3.590 -0.8795  0.8786  0.2498
   56DOPE   H2S 7121   2.348   6.403   3.777  0.4148  2.4352 -0.5200
   56DOPE    C3 7122   2.452   5.966   3.758  0.4128 -0.1733  0.5586
   56DOPE    HX 7123   2.489   5.865   3.730  2.2129 -0.4492  3.5973
   56DOPE    HY 7124   2.342   5.982   3.752  0.6681  1.4184 -0.5275
   56DOPE   O31 7125   2.513   5.993   3.884  0.4982 -0.5260 -0.1041
   56DOPE   C31 7126   2.446   6.070   3.969 -0.0203 -0.3973  0.5690
   56DOPE   O32 7127   2.340   6.127   3.951  0.5982 -0.2441 -0.2883
   56DOPE   C32 7128   2.522   6.060   4.098 -0.2701 -0.2323 -0.5603
   56DOPE   H2X 7129   2.549   5.953   4.114  0.2397 -0.4984 -2.8621
   56DOPE   H2Y 7130   2.615   6.120   4.096  0.1544 -0.8362  0.3368
   56DOPE   C23 7131   2.166   6.419   3.670  0.5580  0.0084  0.3500
   56DOPE   H3R 7132   2.096   6.339   3.700  1.6070 -1.5063 -1.0136
   56DOPE   H3S 7133   2.138   6.436   3.564 -3.2051  0.4358  1.2997
   56DOPE   C24 7134   2.148   6.551   3.751 -0.4474  0.2709  1.1870
   56DOPE   H4R 7135   2.185   6.641   3.699 -2.6480 -0.2295 -1.4843
   56DOPE   H4S 7136   2.207   6.537   3.844  2.4909 -2.5316 -0.9060
   56DOPE   C25 7137   2.004   6.569   3.807 -0.8038  0.1611 -0.1705
   56DOPE   H5R 7138   1.951   6.480   3.847  1.0687  0.0089  2.1945
   56DOPE   H5S 7139   1.930   6.604   3.732 -0.7564  2.0066  0.5798
   56DOPE   C26 7140   2.010   6.676   3.916  0.1174  0.3477 -0.5343
   56DOPE   H6R 7141   2.015   6.778   3.872 -1.1294 -0.2910 -2.2840
   56DOPE   H6S 7142   2.100   6.668   3.980  0.5730  2.1555 -0.8799
   56DOPE   C27 7143   1.892   6.668   4.024  0.0074  0.9271  0.0411
   56DOPE   H7R 7144   1.889   6.576   4.086 -1.1149  0.8152 -0.1574
   56DOPE   H7S 7145   1.789   6.675   3.981  0.9006  1.2528 -2.1801
   56DOPE   C28 7146   1.898   6.783   4.131 -0.3614 -0.3420 -0.0786
   56DOPE   H8R 7147   1.995   6.773   4.184 -0.4528 -3.7957 -0.2927
   56DOPE   H8S 7148   1.817   6.772   4.206  0.1413  0.9892  0.6832
   56DOPE   C29 7149   1.895   6.922   4.075  0.3128  0.0071 -0.6274
   56DOPE   H9R 7150   1.972   6.998   4.096 -1.3818  1.6971 -0.2657
   56DOPE  C210 7151   1.807   6.976   3.988  0.3566 -0.3581  0.5961
   56DOPE  H10R 7152   1.849   7.061   3.932  0.6066 -0.9070 -0.0561
   56DOPE  C211 7153   1.683   6.920   3.923  0.2290 -0.4167  0.3482
   56DOPE  H11R 7154   1.706   6.848   3.842  0.1119  2.2632 -2.2272
   56DOPE  H11S 7155   1.627   6.999   3.869  1.2964 -0.1058 -0.3364
   56DOPE  C212 7156   1.585   6.855   4.022  0.7266 -0.1846  0.1977
   56DOPE  H12R 7157   1.557   6.930   4.099 -0.5124  0.5049 -0.8546
   56DOPE  H12S 7158   1.625   6.760   4.061 -3.0112 -3.1141 -2.3221
   56DOPE  C213 7159   1.465   6.814   3.942  0.0363  0.2998  0.5001
   56DOPE  H13R 7160   1.392   6.760   4.006 -0.4663  0.5134  0.1149
   56DOPE  H13S 7161   1.491   6.738   3.866 -1.6345  0.9413 -0.7671
   56DOPE  C214 7162   1.380   6.928   3.880 -0.4471 -0.1979  1.0085
   56DOPE  H14R 7163   1.307   6.867   3.822 -0.4483 -0.6586  1.4872
   56DOPE  H14S 7164   1.439   6.993   3.812 -0.9087  0.6914  1.4459
   56DOPE  C215 7165   1.312   7.012   3.983  0.5637 -0.4460 -0.3324
   56DOPE  H15R 7166   1.274   7.090   3.914  3.2777  1.3238  0.0201
   56DOPE  H15S 7167   1.382   7.057   4.056  1.2257 -0.0243 -1.2120
   56DOPE  C216 7168   1.209   6.924   4.060 -0.4662 -0.2633  0.2900
   56DOPE  H16R 7169   1.272   6.851   4.115  1.4172  0.7627 -0.3958
   56DOPE  H16S 7170   1.151   6.863   3.988 -0.5017  1.8101 -1.5420
   56DOPE  C217 7171   1.127   7.000   4.171  0.2169  0.3753 -0.0345
   56DOPE  H17R 7172   1.057   7.060   4.109  0.5176  0.7379 -0.0318
   56DOPE  H17S 7173   1.204   7.058   4.227 -0.5611  1.6616 -0.2509
   56DOPE  C218 7174   1.058   6.905   4.265 -0.3182 -1.0292  0.1037
   56DOPE  H18R 7175   1.010   6.963   4.347  1.6277  1.3547 -0.3309
   56DOPE  H18S 7176   1.116   6.825   4.317  1.5577 -0.9027 -1.7104
   56DOPE  H18T 7177   0.975   6.851   4.216 -0.5937  0.3909 -1.0462
   56DOPE   C33 7178   2.442   6.107   4.219 -0.2492  0.0200 -0.1717
   56DOPE   H3X 7179   2.372   6.024   4.247 -1.1572  0.2185 -1.7481
   56DOPE   H3Y 7180   2.398   6.207   4.197  1.3108  0.5954 -0.7944
   56DOPE   C34 7181   2.527   6.146   4.343 -0.6944  0.3370  0.0170
   56DOPE   H4X 7182   2.580   6.058   4.387 -0.6971 -0.1928 -1.0061
   56DOPE   H4Y 7183   2.613   6.196   4.293  1.5103 -2.1102  1.0835
   56DOPE   C35 7184   2.447   6.204   4.458 -0.8328  0.5168  0.0735
   56DOPE   H5X 7185   2.385   6.293   4.432  0.2738  1.4886  0.6358
   56DOPE   H5Y 7186   2.526   6.226   4.533  0.1561  0.6982 -0.9995
   56DOPE   C36 7187   2.336   6.109   4.513 -0.8633  0.7000 -0.2707
   56DOPE   H6X 7188   2.384   6.018   4.553 -0.7438  0.3280 -1.2469
   56DOPE   H6Y 7189   2.276   6.083   4.423  0.5473 -0.2535 -0.9629
   56DOPE   C37 7190   2.249   6.179   4.617  0.5602  0.0029 -0.3950
   56DOPE   H7X 7191   2.200   6.273   4.586 -0.8720 -0.2846  0.8964
   56DOPE   H7Y 7192   2.179   6.096   4.643  1.6759 -1.8920 -2.9853
   56DOPE   C38 7193   2.334   6.218   4.740  0.0332 -0.1516 -0.2804
   56DOPE   H8X 7194   2.381   6.316   4.719  0.2835  0.2213  1.7779
   56DOPE   H8Y 7195   2.415   6.144   4.750 -0.2313 -0.2406  1.8170
   56DOPE   C39 7196   2.257   6.232   4.869 -0.3320  0.7506 -0.5918
   56DOPE   H9X 7197   2.225   6.134   4.909 -0.3651  1.4534  1.1919
   56DOPE  C310 7198   2.201   6.345   4.919  0.7942  0.1722 -0.1513
   56DOPE  H10X 7199   2.141   6.338   5.011 -0.1923  2.8298 -0.5159
   56DOPE  C311 7200   2.210   6.481   4.856 -0.0914  0.4949  0.5339
   56DOPE  H11X 7201   2.253   6.476   4.754 -1.5351 -0.0473 -0.0738
   56DOPE  H11Y 7202   2.110   6.528   4.847 -0.8567 -1.0287  0.8088
   56DOPE  C312 7203   2.304   6.574   4.922  0.8193 -0.9408  0.2797
   56DOPE  H12X 7204   2.401   6.529   4.953  1.1021  0.0046  0.8238
   56DOPE  H12Y 7205   2.270   6.611   5.022  3.4131 -0.9196  1.2301
   56DOPE  C313 7206   2.328   6.703   4.845 -0.1831 -0.8258 -0.2928
   56DOPE  H13X 7207   2.356   6.675   4.741  0.5825 -0.1667 -0.2752
   56DOPE  H13Y 7208   2.239   6.769   4.845 -0.3591 -1.0638  0.0493
   56DOPE  C314 7209   2.446   6.778   4.900  0.2865  0.0096 -0.3898
   56DOPE  H14X 7210   2.537   6.725   4.865 -0.1353  0.5226 -2.4014
   56DOPE  H14Y 7211   2.442   6.777   5.011  1.6906  2.3082 -0.2332
   56DOPE  C315 7212   2.444   6.920   4.842 -0.0710  0.5655 -0.4057
   56DOPE  H15X 7213   2.348   6.960   4.880  0.4693  2.4472 -0.8917
   56DOPE  H15Y 7214   2.441   6.915   4.731  0.1810 -0.1912 -0.3828
   56DOPE  C316 7215   2.566   7.006   4.881 -0.0981 -0.7732 -0.3071
   56DOPE  H16X 7216   2.666   6.971   4.849  0.9541 -0.6071  2.5819
   56DOPE  H16Y 7217   2.570   7.011   4.992  3.1051  1.9696 -0.3903
   56DOPE  C317 7218   2.555   7.156   4.837  0.3262  0.3223  0.7094
   56DOPE  H17X 7219   2.563   7.160   4.726  0.3861 -1.7774  0.6110
   56DOPE  H17Y 7220   2.459   7.198   4.871  0.6639  0.4942  1.4784
   56DOPE  C318 7221   2.668   7.248   4.897  0.7755 -0.6750  0.2613
   56DOPE  H18X 7222   2.767   7.217   4.856  0.0187 -0.7386 -1.6074
   56DOPE  H18Y 7223   2.654   7.352   4.862  0.3954 -1.3027 -1.5334
   56DOPE  H18Z 7224   2.669   7.238   5.008 -0.0720 -0.4669  0.2908
   57DOPE     N 7225   1.669   2.509   3.202 -0.1090 -0.3457 -0.1019
   57DOPE   HN1 7226   1.771   2.489   3.196  0.0279 -0.7673  2.3831
   57DOPE   HN2 7227   1.644   2.604   3.166  0.3188  0.1695  0.9159
   57DOPE   HN3 7228   1.634   2.509   3.300  0.9421  3.5195  0.4394
   57DOPE   C12 7229   1.593   2.405   3.127  0.3259  0.4438 -0.1698
   57DOPE  H12A 7230   1.616   2.315   3.187  0.5329  0.7143  0.1552
   57DOPE  H12B 7231   1.640   2.390   3.027  2.6697  1.1300  0.7679
   57DOPE   C11 7232   1.448   2.448   3.130  0.1388 -0.0010 -0.1299
   57DOPE  H11A 7233   1.388   2.369   3.078 -0.2218  1.3170 -1.8055
   57DOPE  H11B 7234   1.437   2.541   3.070 -0.4773 -0.1488 -0.2603
   57DOPE     P 7235   1.257   2.475   3.300 -0.1147 -0.0764  0.1413
   57DOPE   O13 7236   1.187   2.428   3.182 -0.4426  0.0867 -0.1818
   57DOPE   O14 7237   1.219   2.605   3.342 -0.1960 -0.7428 -0.0386
   57DOPE   O11 7238   1.231   2.366   3.419  0.6149 -0.4774 -0.3207
   57DOPE   O12 7239   1.412   2.460   3.268  0.4323 -0.2259  0.0157
   57DOPE    C1 7240   1.336   2.316   3.504  0.7750 -0.5806  0.2395
   57DOPE    HA 7241   1.439   2.334   3.464  1.8360 -0.7423  2.7378
   57DOPE    HB 7242   1.314   2.210   3.525 -0.8837 -0.8942 -2.5167
   57DOPE    C2 7243   1.329   2.390   3.642 -0.3300  0.2893  0.1241
   57DOPE    HS 7244   1.412   2.338   3.696  0.8396  0.6434 -1.2636
   57DOPE   O21 7245   1.197   2.368   3.695  0.1502  0.4280 -0.2976
   57DOPE   C21 7246   1.198   2.356   3.825  0.1356 -0.0532 -0.0735
   57DOPE   O22 7247   1.296   2.369   3.899 -0.1982  1.2950 -0.7178
   57DOPE   C22 7248   1.064   2.302   3.880 -0.8062  0.1881 -0.9269
   57DOPE   H2R 7249   1.081   2.218   3.951 -0.2689 -0.2523 -1.5705
   57DOPE   H2S 7250   1.008   2.240   3.806  0.7195 -0.0268 -1.9404
   57DOPE    C3 7251   1.350   2.542   3.645  0.7254  0.9487  0.4538
   57DOPE    HX 7252   1.253   2.592   3.626 -0.3543 -0.5936  1.7073
   57DOPE    HY 7253   1.426   2.578   3.572  1.6988  0.9752  1.4461
   57DOPE   O31 7254   1.387   2.589   3.775 -0.6976  0.2554 -0.7987
   57DOPE   C31 7255   1.518   2.594   3.802 -0.6371 -0.0940 -0.2385
   57DOPE   O32 7256   1.603   2.554   3.730  0.2335  0.1812 -0.1835
   57DOPE   C32 7257   1.542   2.658   3.936  0.4751  0.1119 -0.1688
   57DOPE   H2X 7258   1.645   2.633   3.967 -0.3522 -2.2852  0.9368
   57DOPE   H2Y 7259   1.530   2.768   3.930  1.4845  0.3889  2.0454
   57DOPE   C23 7260   0.981   2.414   3.941  0.0211 -0.3263  1.0226
   57DOPE   H3R 7261   0.891   2.364   3.984 -2.3159  1.5817 -1.2587
   57DOPE   H3S 7262   0.934   2.480   3.864 -1.6137 -0.4674  1.8483
   57DOPE   C24 7263   1.049   2.500   4.047 -0.4740 -0.5325 -0.0391
   57DOPE   H4R 7264   1.134   2.552   3.999 -1.6410  1.9494  0.4352
   57DOPE   H4S 7265   1.095   2.439   4.128  2.1174  2.4864  0.9503
   57DOPE   C25 7266   0.956   2.605   4.098  0.2801  0.3050  0.3931
   57DOPE   H5R 7267   0.854   2.560   4.090  0.9722 -0.9398 -2.6568
   57DOPE   H5S 7268   0.956   2.695   4.033  1.3278  1.2485  1.6303
   57DOPE   C26 7269   0.982   2.647   4.247 -0.2264  0.0131  0.7592
   57DOPE   H6R 7270   1.066   2.720   4.248 -0.0259 -0.2147  0.8174
   57DOPE   H6S 7271   1.016   2.561   4.308  3.5268 -0.2219 -1.3111
   57DOPE   C27 7272   0.864   2.713   4.319 -0.2063 -0.0613  0.1834
   57DOPE   H7R 7273   0.896   2.751   4.419  2.3760 -0.2098 -0.4965
   57DOPE   H7S 7274   0.785   2.637   4.333 -0.6037  0.4372  0.6736
   57DOPE   C28 7275   0.795   2.830   4.252  0.3688  0.0782 -0.3873
   57DOPE   H8R 7276   0.873   2.893   4.203  0.1386 -0.5497 -1.6115
   57DOPE   H8S 7277   0.760   2.892   4.337  0.7086 -2.1422  1.4492
   57DOPE   C29 7278   0.696   2.798   4.139 -0.4384 -0.2086 -0.0154
   57DOPE   H9R 7279   0.727   2.746   4.047 -1.1551 -1.4402  0.4126
   57DOPE  C210 7280   0.561   2.816   4.149 -0.4412  0.3246  0.5139
   57DOPE  H10R 7281   0.499   2.800   4.059  0.4599  2.5255 -0.5877
   57DOPE  C211 7282   0.481   2.867   4.260  0.0063 -0.1424  0.0588
   57DOPE  H11R 7283   0.529   2.936   4.331 -0.1659  1.4147 -1.2785
   57DOPE  H11S 7284   0.438   2.786   4.324 -0.3883  1.2070  1.5695
   57DOPE  C212 7285   0.354   2.943   4.216 -0.9301 -0.4979 -0.1375
   57DOPE  H12R 7286   0.302   2.889   4.134 -0.4592  0.9452 -1.4302
   57DOPE  H12S 7287   0.389   3.044   4.184 -1.5916 -0.0279  0.5813
   57DOPE  C213 7288   0.250   2.962   4.327 -0.2575 -0.5973  0.1986
   57DOPE  H13R 7289   0.292   2.993   4.425 -1.8313 -0.3647  0.8415
   57DOPE  H13S 7290   0.219   2.856   4.340  2.8638 -1.7297 -0.8558
   57DOPE  C214 7291   0.133   3.053   4.297  0.0583 -0.3514 -0.1526
   57DOPE  H14R 7292   0.116   3.031   4.190  2.1797 -1.0435 -0.3966
   57DOPE  H14S 7293   0.171   3.158   4.299  0.6008 -0.5337 -0.5147
   57DOPE  C215 7294   0.008   3.031   4.383  0.3767 -0.7388 -0.3399
   57DOPE  H15R 7295  -0.013   2.924   4.403 -1.2736 -0.5404 -0.8244
   57DOPE  H15S 7296  -0.084   3.076   4.340 -0.3198  0.1652  1.9189
   57DOPE  C216 7297   0.016   3.103   4.523  0.7029 -0.4654 -0.0623
   57DOPE  H16R 7298   0.044   3.208   4.498  0.9119 -0.2671  0.9345
   57DOPE  H16S 7299   0.099   3.064   4.587 -1.1625 -0.8029  2.3022
   57DOPE  C217 7300  -0.112   3.085   4.602 -0.1799 -0.5766  0.6442
   57DOPE  H17R 7301  -0.132   2.976   4.609 -0.2863 -0.8744 -2.6127
   57DOPE  H17S 7302  -0.196   3.126   4.541  0.7515 -0.3708 -0.5507
   57DOPE  C218 7303  -0.106   3.152   4.736  0.3058  0.0519  0.2992
   57DOPE  H18R 7304  -0.199   3.135   4.794 -0.5606  0.8393 -0.8223
   57DOPE  H18S 7305  -0.098   3.261   4.715 -1.3033  0.0487 -0.4281
   57DOPE  H18T 7306  -0.025   3.113   4.802 -1.6883 -1.4015  2.0326
   57DOPE   C33 7307   1.433   2.626   4.045 -0.1399 -0.1690  0.2827
   57DOPE   H3X 7308   1.411   2.517   4.045 -3.1390  0.3281 -1.3803
   57DOPE   H3Y 7309   1.338   2.681   4.029 -0.7319 -1.4090 -0.6555
   57DOPE   C34 7310   1.489   2.652   4.185  0.0973 -0.9294  0.6665
   57DOPE   H4X 7311   1.578   2.589   4.204 -0.0852 -1.0692  1.0684
   57DOPE   H4Y 7312   1.525   2.757   4.197  2.2783 -1.6453  0.8299
   57DOPE   C35 7313   1.386   2.623   4.298 -0.5000  0.0059  0.3430
   57DOPE   H5X 7314   1.369   2.514   4.290 -0.0316 -0.0980  0.7398
   57DOPE   H5Y 7315   1.293   2.680   4.272 -1.2159 -1.3777 -0.2163
   57DOPE   C36 7316   1.427   2.682   4.434 -0.1455  0.4662 -0.4298
   57DOPE   H6X 7317   1.444   2.789   4.410  1.1818  0.3283 -0.1807
   57DOPE   H6Y 7318   1.521   2.643   4.477 -0.5498 -0.9457 -0.7689
   57DOPE   C37 7319   1.310   2.686   4.530 -0.7361 -0.1158  0.6345
   57DOPE   H7X 7320   1.224   2.737   4.483  0.5010  1.7405  0.3040
   57DOPE   H7Y 7321   1.294   2.577   4.546 -0.0278 -0.1283  1.3608
   57DOPE   C38 7322   1.331   2.757   4.664 -0.3764 -0.2406 -0.6859
   57DOPE   H8X 7323   1.402   2.701   4.728 -0.0892 -1.7830 -2.2943
   57DOPE   H8Y 7324   1.234   2.732   4.712  0.4696 -1.1709  0.6065
   57DOPE   C39 7325   1.355   2.907   4.653  0.5824  0.5293 -0.0429
   57DOPE   H9X 7326   1.305   2.962   4.572  1.7705  1.0286 -0.4690
   57DOPE  C310 7327   1.439   2.983   4.725 -0.0531 -0.9500 -0.4740
   57DOPE  H10X 7328   1.447   3.085   4.686  0.8052 -0.7477  0.2023
   57DOPE  C311 7329   1.539   2.951   4.839  0.0540 -0.1357  0.4891
   57DOPE  H11X 7330   1.562   2.842   4.834  1.0874  0.0462  0.8940
   57DOPE  H11Y 7331   1.629   3.016   4.835  0.1687 -0.3264 -0.0581
   57DOPE  C312 7332   1.482   2.970   4.977  0.8930  0.1598 -0.4106
   57DOPE  H12X 7333   1.438   3.069   5.002  1.2760  0.3357 -0.4160
   57DOPE  H12Y 7334   1.558   2.939   5.052  2.8256 -0.2970 -2.4245
   57DOPE  C313 7335   1.375   2.868   5.003  0.3275  0.2392 -0.5410
   57DOPE  H13X 7336   1.284   2.889   4.944 -0.4123  0.1460  0.5374
   57DOPE  H13Y 7337   1.393   2.762   4.978  0.2810  0.2447 -0.5960
   57DOPE  C314 7338   1.338   2.859   5.157 -0.4683  0.3799 -0.8114
   57DOPE  H14X 7339   1.285   2.951   5.188 -0.2988  0.7576 -1.6134
   57DOPE  H14Y 7340   1.429   2.851   5.221 -0.6428  1.1474 -0.4602
   57DOPE  C315 7341   1.249   2.736   5.188 -0.4187  0.3834  0.5901
   57DOPE  H15X 7342   1.306   2.643   5.208  1.3000  1.3648  0.4407
   57DOPE  H15Y 7343   1.183   2.714   5.102 -2.1462  2.5280  1.2850
   57DOPE  C316 7344   1.161   2.770   5.306 -0.6363  0.2630  0.1274
   57DOPE  H16X 7345   1.092   2.683   5.315 -0.7359 -0.0343 -2.5958
   57DOPE  H16Y 7346   1.102   2.863   5.291 -1.1539 -0.1386 -0.3694
   57DOPE  C317 7347   1.242   2.781   5.439  0.0801  0.1767  0.1304
   57DOPE  H17X 7348   1.307   2.695   5.464 -0.0372  1.0898  4.2022
   57DOPE  H17Y 7349   1.312   2.867   5.440  1.2961 -0.7567  2.3584
   57DOPE  C318 7350   1.157   2.804   5.564  0.5808 -0.2298  0.1715
   57DOPE  H18X 7351   1.113   2.905   5.547 -0.2074 -0.7133 -0.6894
   57DOPE  H18Y 7352   1.068   2.737   5.566  1.5253 -1.5071  0.4661
   57DOPE  H18Z 7353   1.217   2.802   5.657  0.3171 -0.9406  0.3341
   58DOPE     N 7354   0.835   6.300   3.077  0.5443 -0.0216  0.0008
   58DOPE   HN1 7355   0.883   6.208   3.090 -1.5714 -0.9018  2.4750
   58DOPE   HN2 7356   0.866   6.352   3.161 -1.5164  0.9402  0.2233
   58DOPE   HN3 7357   0.733   6.286   3.093  0.5199  0.4133  0.2245
   58DOPE   C12 7358   0.870   6.358   2.946 -0.1927  0.2793 -0.2282
   58DOPE  H12A 7359   0.834   6.293   2.864 -1.4818  0.7177 -0.0364
   58DOPE  H12B 7360   0.979   6.371   2.937 -0.4942  2.0285 -2.2031
   58DOPE   C11 7361   0.796   6.501   2.927 -0.4709 -0.1775  0.3609
   58DOPE  H11A 7362   0.810   6.512   2.817  0.1561  0.4445  0.4906
   58DOPE  H11B 7363   0.850   6.580   2.983 -0.6565  0.1604  0.0670
   58DOPE     P 7364   0.550   6.470   2.874  0.4307  0.5281  0.1869
   58DOPE   O13 7365   0.588   6.361   2.777 -0.0568 -0.8676 -0.5571
   58DOPE   O14 7366   0.505   6.601   2.818 -0.0772 -0.3677  0.0879
   58DOPE   O11 7367   0.435   6.411   2.972 -0.2129  0.5172  0.4024
   58DOPE   O12 7368   0.663   6.498   2.976 -0.1236 -0.1248 -0.7576
   58DOPE    C1 7369   0.411   6.472   3.103 -0.3189 -0.6282 -0.0591
   58DOPE    HA 7370   0.303   6.488   3.122 -0.2399 -0.5078  0.2832
   58DOPE    HB 7371   0.457   6.572   3.113  0.9254 -1.0377 -1.3585
   58DOPE    C2 7372   0.465   6.385   3.224 -0.2239  0.2137  0.5230
   58DOPE    HS 7373   0.573   6.374   3.202 -0.0022 -1.4946  2.2429
   58DOPE   O21 7374   0.397   6.256   3.236  0.3593 -0.5164 -0.2001
   58DOPE   C21 7375   0.454   6.157   3.165 -0.6040 -0.7021 -0.3372
   58DOPE   O22 7376   0.563   6.170   3.105  0.0799  0.0998  0.1381
   58DOPE   C22 7377   0.371   6.035   3.167  0.1354 -0.0930 -0.1728
   58DOPE   H2R 7378   0.334   6.021   3.063 -1.0325 -1.7081  0.4091
   58DOPE   H2S 7379   0.281   6.043   3.232  1.1826 -1.2877  1.5057
   58DOPE    C3 7380   0.444   6.466   3.354  0.0447 -0.7688  0.3828
   58DOPE    HX 7381   0.469   6.570   3.323  0.3913 -1.0248 -0.2317
   58DOPE    HY 7382   0.517   6.435   3.432  0.2436  1.5214  1.2029
   58DOPE   O31 7383   0.303   6.466   3.391 -0.2861 -0.1342  0.1095
   58DOPE   C31 7384   0.280   6.499   3.524 -0.3536  0.5474 -0.3580
   58DOPE   O32 7385   0.366   6.544   3.598 -0.5556  0.6584  0.2649
   58DOPE   C32 7386   0.133   6.478   3.564 -0.9214  0.1124  0.2779
   58DOPE   H2X 7387   0.069   6.568   3.549 -2.4998 -0.8392  1.0767
   58DOPE   H2Y 7388   0.095   6.404   3.491  0.1770 -0.3954  0.2022
   58DOPE   C23 7389   0.447   5.907   3.215  0.1630  0.0310  0.4358
   58DOPE   H3R 7390   0.542   5.888   3.160 -1.0140 -1.2066 -1.2728
   58DOPE   H3S 7391   0.391   5.815   3.187  1.1979  0.0629 -1.9825
   58DOPE   C24 7392   0.469   5.906   3.367 -0.3276 -0.2970 -0.2236
   58DOPE   H4R 7393   0.370   5.913   3.417 -1.1677 -2.8479 -1.3463
   58DOPE   H4S 7394   0.537   5.993   3.385  0.7064 -1.1755  0.2841
   58DOPE   C25 7395   0.541   5.784   3.419 -0.4980  0.4695  0.4639
   58DOPE   H5R 7396   0.623   5.743   3.357 -1.7406 -1.9184  0.2722
   58DOPE   H5S 7397   0.468   5.700   3.412  0.1413 -0.2710  2.1969
   58DOPE   C26 7398   0.592   5.798   3.565 -0.3611  0.4706  0.3161
   58DOPE   H6R 7399   0.608   5.694   3.600  1.6102  0.9908  1.1275
   58DOPE   H6S 7400   0.511   5.839   3.629  0.2214  0.2122  1.2376
   58DOPE   C27 7401   0.720   5.875   3.578 -0.5901 -0.0227 -0.4288
   58DOPE   H7R 7402   0.691   5.977   3.545 -2.6550 -0.4550 -0.0435
   58DOPE   H7S 7403   0.793   5.832   3.506 -0.2730 -0.3336  0.0756
   58DOPE   C28 7404   0.781   5.859   3.718 -0.4542 -0.4120 -0.8776
   58DOPE   H8R 7405   0.691   5.891   3.775  1.4204  3.1175  0.4031
   58DOPE   H8S 7406   0.864   5.933   3.721  3.0818 -4.0479 -1.2407
   58DOPE   C29 7407   0.834   5.720   3.755  0.7901 -0.2608  0.0499
   58DOPE   H9R 7408   0.913   5.688   3.685  2.3559 -1.5236  2.2689
   58DOPE  C210 7409   0.782   5.634   3.846 -0.5777 -0.8242  0.8616
   58DOPE  H10R 7410   0.830   5.540   3.875 -0.6160 -0.6170  1.6264
   58DOPE  C211 7411   0.661   5.672   3.933  0.8381  0.0675  0.0957
   58DOPE  H11R 7412   0.612   5.578   3.965  3.2168 -1.7433 -1.2977
   58DOPE  H11S 7413   0.589   5.724   3.865 -0.6394 -2.6553 -0.5722
   58DOPE  C212 7414   0.699   5.759   4.057  0.0559 -0.2228  0.3489
   58DOPE  H12R 7415   0.749   5.851   4.021 -0.6079  0.3291  0.8098
   58DOPE  H12S 7416   0.777   5.709   4.119 -0.4642  0.9197  1.9933
   58DOPE  C213 7417   0.588   5.794   4.152  0.4095 -0.2948  0.0414
   58DOPE  H13R 7418   0.628   5.835   4.247 -2.1717  0.8759  0.7132
   58DOPE  H13S 7419   0.526   5.705   4.173 -0.0983 -0.7471 -2.9198
   58DOPE  C214 7420   0.495   5.897   4.076  0.0220  0.1539 -0.1501
   58DOPE  H14R 7421   0.467   5.870   3.972 -1.0838  1.2348 -0.1527
   58DOPE  H14S 7422   0.559   5.987   4.064  0.1907 -0.2407 -2.8596
   58DOPE  C215 7423   0.362   5.933   4.144 -0.1146  0.3963  0.3889
   58DOPE  H15R 7424   0.386   5.964   4.248  1.2587  0.5477  0.0392
   58DOPE  H15S 7425   0.309   5.836   4.139  0.8129 -0.0672 -0.7755
   58DOPE  C216 7426   0.284   6.034   4.072  0.2841  0.4384  0.0297
   58DOPE  H16R 7427   0.282   6.003   3.966  0.1301 -0.9454  0.4220
   58DOPE  H16S 7428   0.340   6.129   4.085  1.6406 -0.5339  1.7164
   58DOPE  C217 7429   0.144   6.045   4.116  0.2279  0.3758 -0.2896
   58DOPE  H17R 7430   0.087   5.950   4.105  0.3982  0.2494 -0.0868
   58DOPE  H17S 7431   0.087   6.116   4.053 -1.0220 -0.5481 -0.2444
   58DOPE  C218 7432   0.128   6.095   4.258  0.9256 -0.2990  0.2682
   58DOPE  H18R 7433   0.207   6.171   4.273  2.9097 -1.4897 -3.0494
   58DOPE  H18S 7434   0.150   6.014   4.331  1.8458  0.2670  0.6447
   58DOPE  H18T 7435   0.030   6.139   4.285  1.4166  2.7105 -2.2872
   58DOPE   C33 7436   0.104   6.413   3.703 -0.6064 -0.7306 -0.4315
   58DOPE   H3X 7437   0.137   6.307   3.707  0.7438 -0.4078 -2.1165
   58DOPE   H3Y 7438  -0.006   6.404   3.712 -0.7464  0.8024 -0.3243
   58DOPE   C34 7439   0.163   6.498   3.812 -0.2637 -0.5724 -0.0962
   58DOPE   H4X 7440   0.273   6.504   3.804 -0.3012  2.5365  0.7838
   58DOPE   H4Y 7441   0.120   6.600   3.809 -2.8528 -1.5990 -1.7289
   58DOPE   C35 7442   0.145   6.440   3.952  0.1349  0.2703 -0.1634
   58DOPE   H5X 7443   0.212   6.352   3.954 -0.9341 -0.5569  0.1438
   58DOPE   H5Y 7444   0.044   6.397   3.964  0.4716 -0.8594 -1.2222
   58DOPE   C36 7445   0.156   6.536   4.066 -0.1096  0.0583 -0.0253
   58DOPE   H6X 7446   0.066   6.599   4.053  0.1974  0.3259 -1.0012
   58DOPE   H6Y 7447   0.242   6.606   4.080 -0.0009 -0.3847  1.6369
   58DOPE   C37 7448   0.145   6.466   4.202  0.1331 -0.4124 -0.3978
   58DOPE   H7X 7449   0.082   6.378   4.180  0.9527 -0.6848 -1.7497
   58DOPE   H7Y 7450   0.245   6.429   4.233  0.0875  1.1496  1.8869
   58DOPE   C38 7451   0.096   6.554   4.316  0.6569  0.8636 -0.3544
   58DOPE   H8X 7452  -0.003   6.600   4.297 -0.6923 -1.1767  1.3162
   58DOPE   H8Y 7453   0.162   6.643   4.319  0.5108  0.9565  0.0336
   58DOPE   C39 7454   0.096   6.481   4.446  0.4117 -0.4763  0.9576
   58DOPE   H9X 7455   0.011   6.412   4.451 -1.9396  2.1231 -0.3456
   58DOPE  C310 7456   0.184   6.486   4.540  0.3273 -0.1874 -0.8434
   58DOPE  H10X 7457   0.173   6.419   4.626  1.1344  0.2380 -0.3939
   58DOPE  C311 7458   0.309   6.563   4.561 -0.5157  0.2396  0.3809
   58DOPE  H11X 7459   0.398   6.499   4.579  1.5565  2.3116 -1.8167
   58DOPE  H11Y 7460   0.332   6.618   4.468  1.2111 -0.1770  0.5305
   58DOPE  C312 7461   0.299   6.658   4.679 -0.1239  1.2549 -0.8783
   58DOPE  H12X 7462   0.397   6.711   4.686  0.7709 -0.5180  1.1523
   58DOPE  H12Y 7463   0.281   6.617   4.780  1.2552  1.2817 -0.5965
   58DOPE  C313 7464   0.189   6.768   4.664 -0.6299 -0.2415  0.0307
   58DOPE  H13X 7465   0.219   6.835   4.580  0.6736  1.0023  1.4439
   58DOPE  H13Y 7466   0.086   6.734   4.640  0.1307 -2.0005 -0.9326
   58DOPE  C314 7467   0.173   6.865   4.787 -0.1783 -0.5636  0.2915
   58DOPE  H14X 7468   0.267   6.924   4.792 -0.8811  0.4662  2.9115
   58DOPE  H14Y 7469   0.158   6.814   4.884  0.3878 -2.3645 -0.5317
   58DOPE  C315 7470   0.063   6.967   4.765 -0.0114 -0.1824  0.3030
   58DOPE  H15X 7471  -0.038   6.922   4.758  1.1578 -2.6979 -1.9446
   58DOPE  H15Y 7472   0.076   7.021   4.669 -0.6145  1.3000  1.0228
   58DOPE  C316 7473   0.061   7.080   4.868  0.7157 -0.0610  0.1875
   58DOPE  H16X 7474  -0.019   7.155   4.853  0.7242 -0.3115 -1.2545
   58DOPE  H16Y 7475   0.155   7.137   4.850  0.3253  0.4802 -0.1528
   58DOPE  C317 7476   0.035   7.025   5.013 -0.0703 -0.2575  0.2397
   58DOPE  H17X 7477  -0.042   6.946   5.001  1.0904 -1.5802  1.0364
   58DOPE  H17Y 7478   0.124   6.966   5.046  0.6189  1.8302  2.3694
   58DOPE  C318 7479  -0.001   7.115   5.124 -0.0129 -0.1097  1.0034
   58DOPE  H18X 7480  -0.100   7.162   5.106  0.6791  1.4799  1.1773
   58DOPE  H18Y 7481  -0.020   7.056   5.216  1.8397 -2.6409 -0.1306
   58DOPE  H18Z 7482   0.062   7.202   5.151 -0.2232  0.2571  0.3462
   59DOPE     N 7483   0.870   1.300   3.285 -0.3968 -0.6069  0.2765
   59DOPE   HN1 7484   0.949   1.326   3.347 -0.9224  0.8958  0.3504
   59DOPE   HN2 7485   0.786   1.324   3.340 -0.6287 -1.9857  0.5674
   59DOPE   HN3 7486   0.876   1.198   3.263  2.4032 -0.5044  0.2123
   59DOPE   C12 7487   0.881   1.395   3.167 -0.5560 -0.1830 -0.1414
   59DOPE  H12A 7488   0.791   1.384   3.103 -0.0861  2.3697 -1.3529
   59DOPE  H12B 7489   0.972   1.372   3.108 -1.0483 -0.7263 -0.6956
   59DOPE   C11 7490   0.888   1.535   3.217  0.1351  0.2203  1.0474
   59DOPE  H11A 7491   0.901   1.601   3.128  0.5086  2.3575  2.6072
   59DOPE  H11B 7492   0.968   1.570   3.287  0.1059  0.2639  1.0592
   59DOPE     P 7493   0.691   1.704   3.268  0.0196  0.4784 -0.1669
   59DOPE   O13 7494   0.547   1.686   3.287 -1.1430  0.2516  0.2803
   59DOPE   O14 7495   0.732   1.773   3.143 -0.3771  0.2273 -0.0775
   59DOPE   O11 7496   0.735   1.780   3.397 -0.4275 -0.1339 -0.0596
   59DOPE   O12 7497   0.757   1.561   3.271  0.0954  0.4476 -0.1975
   59DOPE    C1 7498   0.769   1.736   3.528  0.5410 -0.8656 -0.3943
   59DOPE    HA 7499   0.869   1.764   3.568 -0.1875  0.9864  0.2716
   59DOPE    HB 7500   0.777   1.626   3.518 -0.7244 -0.9259 -1.0188
   59DOPE    C2 7501   0.650   1.770   3.625  0.4770 -0.2678  0.1686
   59DOPE    HS 7502   0.672   1.731   3.727  0.8189  2.6743  1.3253
   59DOPE   O21 7503   0.527   1.712   3.571 -0.4695 -0.0180 -0.3728
   59DOPE   C21 7504   0.525   1.586   3.591  0.6200 -0.1918  0.2923
   59DOPE   O22 7505   0.611   1.519   3.644 -0.1506  0.7155  0.0225
   59DOPE   C22 7506   0.396   1.530   3.520  0.1953 -0.2577 -0.1331
   59DOPE   H2R 7507   0.423   1.461   3.437  1.7138  0.6892 -0.4701
   59DOPE   H2S 7508   0.343   1.607   3.460 -0.9740 -1.2722 -0.4375
   59DOPE    C3 7509   0.629   1.923   3.638 -0.1379 -0.5646  0.5797
   59DOPE    HX 7510   0.605   1.961   3.536 -1.0180  2.0840  1.6766
   59DOPE    HY 7511   0.727   1.956   3.681 -0.2393 -1.5021  1.5573
   59DOPE   O31 7512   0.531   1.960   3.737  0.3166 -0.4969  0.1674
   59DOPE   C31 7513   0.404   1.967   3.690 -0.2752 -0.1142  0.0329
   59DOPE   O32 7514   0.371   1.937   3.577  0.5836  0.2545  0.1584
   59DOPE   C32 7515   0.303   2.014   3.795  0.3052  0.2363 -0.0709
   59DOPE   H2X 7516   0.295   2.125   3.800  0.8500  0.2342  3.9059
   59DOPE   H2Y 7517   0.205   1.967   3.772  0.1938 -0.3575  1.5117
   59DOPE   C23 7518   0.297   1.461   3.620 -0.0631 -0.7650  0.1637
   59DOPE   H3R 7519   0.357   1.389   3.680  0.9121  0.2116  0.3937
   59DOPE   H3S 7520   0.213   1.416   3.563 -0.1893 -0.8408  0.4047
   59DOPE   C24 7521   0.241   1.565   3.726 -0.8177 -0.4611  0.2823
   59DOPE   H4R 7522   0.184   1.635   3.663 -0.5028 -0.8637 -0.4564
   59DOPE   H4S 7523   0.326   1.617   3.776 -1.0360 -1.3181  1.5962
   59DOPE   C25 7524   0.162   1.494   3.833  0.4677  0.4344  0.2101
   59DOPE   H5R 7525   0.230   1.413   3.866 -0.9607  0.2704  3.0813
   59DOPE   H5S 7526   0.067   1.448   3.797  1.7058 -0.0469 -2.7221
   59DOPE   C26 7527   0.139   1.580   3.960  0.0093  0.1713  0.4024
   59DOPE   H6R 7528   0.089   1.675   3.929  0.3174  0.3113  0.3303
   59DOPE   H6S 7529   0.237   1.611   4.003 -0.3153 -0.6149  1.7931
   59DOPE   C27 7530   0.050   1.507   4.070  0.0574  0.8285 -0.2986
   59DOPE   H7R 7531   0.088   1.529   4.172 -3.2606 -0.0827  1.2720
   59DOPE   H7S 7532   0.063   1.397   4.065  0.0382  0.7657  0.8967
   59DOPE   C28 7533  -0.100   1.538   4.069 -0.1016  0.1742  0.4534
   59DOPE   H8R 7534  -0.129   1.466   4.149  2.1653  0.7310  1.8776
   59DOPE   H8S 7535  -0.153   1.509   3.976 -0.7775  1.2193  0.4980
   59DOPE   C29 7536  -0.139   1.677   4.096  0.1469  0.1832 -0.2920
   59DOPE   H9R 7537  -0.086   1.756   4.041  0.6894  0.4777  0.6256
   59DOPE  C210 7538  -0.228   1.714   4.190  0.2979  0.4097  0.6685
   59DOPE  H10R 7539  -0.237   1.812   4.238 -0.7430  0.7620 -0.2127
   59DOPE  C211 7540  -0.302   1.613   4.276  0.0848  0.2951 -0.5822
   59DOPE  H11R 7541  -0.339   1.533   4.208  1.0025 -0.8001  0.1813
   59DOPE  H11S 7542  -0.392   1.661   4.321  2.1777  0.4461  3.9091
   59DOPE  C212 7543  -0.213   1.548   4.388  0.3792 -0.7470 -0.0041
   59DOPE  H12R 7544  -0.120   1.508   4.341  0.9535 -0.5763  0.9496
   59DOPE  H12S 7545  -0.258   1.454   4.427  0.2738  0.0372  1.8732
   59DOPE  C213 7546  -0.181   1.652   4.501 -0.4726  0.5447 -0.6738
   59DOPE  H13R 7547  -0.266   1.654   4.573 -2.0000  3.9810 -2.3197
   59DOPE  H13S 7548  -0.157   1.742   4.441 -1.9557  1.1825 -0.3639
   59DOPE  C214 7549  -0.051   1.621   4.583 -0.2885  0.7532 -0.6642
   59DOPE  H14R 7550   0.022   1.582   4.510 -1.1910 -0.6975 -0.8320
   59DOPE  H14S 7551  -0.077   1.536   4.650  2.1656 -0.7241 -1.4550
   59DOPE  C215 7552  -0.016   1.737   4.668 -0.0747 -0.3041 -0.3859
   59DOPE  H15R 7553  -0.098   1.771   4.735  1.6382  2.5071  0.4463
   59DOPE  H15S 7554  -0.006   1.826   4.603 -2.0198 -0.4337 -0.9304
   59DOPE  C216 7555   0.105   1.726   4.764  0.1008  0.0767  0.4881
   59DOPE  H16R 7556   0.194   1.690   4.707  1.0030 -3.7348  3.8001
   59DOPE  H16S 7557   0.085   1.666   4.855  3.2015 -0.2368  1.0803
   59DOPE  C217 7558   0.129   1.864   4.830  0.4517  0.0169  0.1938
   59DOPE  H17R 7559   0.112   1.950   4.762 -2.0487  0.8460  1.7629
   59DOPE  H17S 7560   0.233   1.862   4.869 -0.1215 -0.4868  1.7751
   59DOPE  C218 7561   0.038   1.895   4.948  0.5947 -0.0244 -0.8881
   59DOPE  H18R 7562   0.026   1.814   5.023 -1.4980  1.4698  0.5016
   59DOPE  H18S 7563  -0.061   1.931   4.911  1.0848 -1.3382 -3.7571
   59DOPE  H18T 7564   0.082   1.978   5.007  1.2555 -0.7749 -0.3017
   59DOPE   C33 7565   0.339   1.970   3.940 -0.0360 -0.2623 -0.8352
   59DOPE   H3X 7566   0.432   2.021   3.972  0.7049 -1.5978 -0.7816
   59DOPE   H3Y 7567   0.363   1.861   3.934  1.9327  0.0427  0.7643
   59DOPE   C34 7568   0.227   2.002   4.045 -0.2365  0.0621  0.0920
   59DOPE   H4X 7569   0.193   2.106   4.026 -2.0918 -0.7141 -1.1020
   59DOPE   H4Y 7570   0.142   1.937   4.013  0.2399  0.5449 -2.3639
   59DOPE   C35 7571   0.268   1.962   4.185 -0.6698 -0.2242 -0.2119
   59DOPE   H5X 7572   0.311   1.860   4.191 -0.8522 -0.2940 -0.0859
   59DOPE   H5Y 7573   0.179   1.961   4.252 -0.3213 -0.6041  0.2528
   59DOPE   C36 7574   0.352   2.063   4.258 -0.3631 -0.3644 -0.5374
   59DOPE   H6X 7575   0.299   2.158   4.234 -2.0178 -1.1836 -0.2483
   59DOPE   H6Y 7576   0.459   2.056   4.230 -1.0409 -0.2898 -3.3779
   59DOPE   C37 7577   0.342   2.049   4.413 -0.0250  0.4875 -1.1616
   59DOPE   H7X 7578   0.237   2.033   4.446  0.0922  0.8436 -0.6071
   59DOPE   H7Y 7579   0.414   1.970   4.443  1.7444  2.5543  0.3521
   59DOPE   C38 7580   0.387   2.177   4.486  0.4563  0.0153  0.6020
   59DOPE   H8X 7581   0.353   2.269   4.436  2.3935  1.1068  1.1793
   59DOPE   H8Y 7582   0.498   2.171   4.474  0.4048  3.2696 -3.4997
   59DOPE   C39 7583   0.337   2.157   4.630 -0.3038 -0.7152  0.0322
   59DOPE   H9X 7584   0.231   2.138   4.650 -0.4943 -0.0705 -0.3286
   59DOPE  C310 7585   0.413   2.149   4.743  0.2595  0.6332 -0.4301
   59DOPE  H10X 7586   0.361   2.159   4.840 -0.1986  0.8860 -0.6962
   59DOPE  C311 7587   0.562   2.157   4.758 -0.3970 -0.5965  0.0905
   59DOPE  H11X 7588   0.620   2.159   4.663  0.5930 -0.6808  0.6765
   59DOPE  H11Y 7589   0.591   2.247   4.817 -2.2013 -0.6600  1.1406
   59DOPE  C312 7590   0.619   2.047   4.851  0.1916 -0.4233  0.2317
   59DOPE  H12X 7591   0.564   2.062   4.947 -0.8169  0.6710 -0.4842
   59DOPE  H12Y 7592   0.729   2.045   4.856  0.3878 -4.7148 -1.5626
   59DOPE  C313 7593   0.590   1.907   4.791  0.2474 -0.0506  0.5510
   59DOPE  H13X 7594   0.580   1.833   4.873 -3.0749 -0.6186 -0.2268
   59DOPE  H13Y 7595   0.492   1.908   4.738  0.3665  0.0310  0.3298
   59DOPE  C314 7596   0.699   1.846   4.701  0.0835 -0.0866 -0.0153
   59DOPE  H14X 7597   0.789   1.831   4.764 -0.7183 -2.9098  0.5646
   59DOPE  H14Y 7598   0.706   1.918   4.616 -1.2898 -0.6195 -0.6133
   59DOPE  C315 7599   0.670   1.713   4.635  0.4548  0.3513 -0.1068
   59DOPE  H15X 7600   0.692   1.631   4.707  0.9760  0.4996 -0.0925
   59DOPE  H15Y 7601   0.743   1.697   4.554  2.1364 -1.2742  1.6107
   59DOPE  C316 7602   0.523   1.705   4.581 -0.7417  0.1677 -0.8593
   59DOPE  H16X 7603   0.485   1.800   4.539 -2.5010 -0.2437 -0.2669
   59DOPE  H16Y 7604   0.453   1.677   4.663  1.2791 -0.0843  0.8680
   59DOPE  C317 7605   0.505   1.602   4.476 -0.0647 -0.6898  0.0752
   59DOPE  H17X 7606   0.580   1.623   4.396 -2.8148  2.5685 -1.9026
   59DOPE  H17Y 7607   0.532   1.505   4.522  0.8246 -0.7408 -0.5281
   59DOPE  C318 7608   0.363   1.605   4.426  1.0465  0.5538  0.4221
   59DOPE  H18X 7609   0.324   1.507   4.390  0.2369  1.0749 -0.1706
   59DOPE  H18Y 7610   0.286   1.633   4.502  1.3384  1.5236  0.3727
   59DOPE  H18Z 7611   0.352   1.676   4.342  0.7022  0.5090  0.4277
   60DOPE     N 7612   0.556   6.992   3.268 -0.2681 -0.1050 -0.9924
   60DOPE   HN1 7613   0.456   6.977   3.242 -0.1076 -1.9869 -0.7054
   60DOPE   HN2 7614   0.619   7.042   3.202  2.9133 -0.5385  1.4825
   60DOPE   HN3 7615   0.604   6.901   3.284 -1.8428 -0.6158  1.3323
   60DOPE   C12 7616   0.571   7.055   3.403 -0.1608 -0.5429 -0.2668
   60DOPE  H12A 7617   0.573   6.976   3.482 -1.8712 -0.2694  0.0690
   60DOPE  H12B 7618   0.490   7.128   3.423 -1.8441 -2.1292 -0.9607
   60DOPE   C11 7619   0.705   7.131   3.403 -0.0751 -0.2975  0.5106
   60DOPE  H11A 7620   0.716   7.190   3.497 -1.1946 -1.4684  1.4137
   60DOPE  H11B 7621   0.712   7.198   3.315  0.2893 -1.7681 -0.6176
   60DOPE     P 7622   0.922   6.996   3.482 -0.1314 -0.0844 -0.2128
   60DOPE   O13 7623   1.063   7.032   3.452  0.2528 -0.4607  0.4809
   60DOPE   O14 7624   0.901   6.851   3.492  0.2420 -0.2323  0.0222
   60DOPE   O11 7625   0.879   7.060   3.622  0.1726 -0.1126 -0.2845
   60DOPE   O12 7626   0.822   7.051   3.373  0.1834 -0.0131 -0.2390
   60DOPE    C1 7627   0.959   7.166   3.674 -0.3048 -0.1810 -0.0338
   60DOPE    HA 7628   0.963   7.254   3.606 -2.1835 -0.2495 -0.2811
   60DOPE    HB 7629   1.063   7.129   3.686 -0.6376 -0.8317  0.9485
   60DOPE    C2 7630   0.913   7.196   3.817 -0.1094 -0.0790 -0.3731
   60DOPE    HS 7631   0.909   7.103   3.878  0.5470 -0.3624 -0.7517
   60DOPE   O21 7632   0.786   7.258   3.815 -0.6328 -0.3141  0.1630
   60DOPE   C21 7633   0.684   7.167   3.836  0.1438 -0.3685 -0.0541
   60DOPE   O22 7634   0.697   7.048   3.858 -0.1416 -0.1687  0.6677
   60DOPE   C22 7635   0.544   7.252   3.821 -0.4483  0.3682 -0.6598
   60DOPE   H2R 7636   0.513   7.258   3.714 -1.4378 -0.6126 -0.4497
   60DOPE   H2S 7637   0.571   7.354   3.855  0.2095  0.6198 -1.8927
   60DOPE    C3 7638   1.012   7.295   3.890 -0.1044 -0.9028  0.5630
   60DOPE    HX 7639   1.009   7.392   3.837  0.3519 -1.1522  0.0745
   60DOPE    HY 7640   1.115   7.263   3.863 -0.3074  0.4015 -2.0428
   60DOPE   O31 7641   0.984   7.304   4.031 -0.3832 -0.0140  0.1493
   60DOPE   C31 7642   1.091   7.348   4.097 -0.3559  0.3068 -0.2023
   60DOPE   O32 7643   1.191   7.394   4.046 -0.6009 -1.0355 -0.0790
   60DOPE   C32 7644   1.072   7.349   4.248  0.2312  0.1247 -0.2937
   60DOPE   H2X 7645   0.967   7.382   4.263 -0.4452 -0.1735 -3.5665
   60DOPE   H2Y 7646   1.082   7.246   4.288 -1.8158  0.1757  0.4656
   60DOPE   C23 7647   0.442   7.180   3.903 -0.0562 -0.4571 -0.3112
   60DOPE   H3R 7648   0.480   7.147   4.003  0.1984 -1.4598 -0.7253
   60DOPE   H3S 7649   0.416   7.078   3.869 -0.7126  0.5970 -3.2155
   60DOPE   C24 7650   0.320   7.270   3.941 -1.0175  0.0828  0.2837
   60DOPE   H4R 7651   0.350   7.359   4.000  1.2698 -0.0201 -0.5870
   60DOPE   H4S 7652   0.251   7.212   4.005 -2.4487  1.6468  0.2346
   60DOPE   C25 7653   0.236   7.317   3.820 -0.5464  0.7727  0.1232
   60DOPE   H5R 7654   0.188   7.233   3.765  0.4099 -0.9004  1.6856
   60DOPE   H5S 7655   0.293   7.382   3.750 -2.3217  3.0931  0.7125
   60DOPE   C26 7656   0.122   7.404   3.863 -0.3847  0.3470  0.0369
   60DOPE   H6R 7657   0.157   7.504   3.896 -1.4646  1.5602 -2.2146
   60DOPE   H6S 7658   0.067   7.357   3.947  1.8827  0.8060  1.8856
   60DOPE   C27 7659   0.030   7.432   3.749 -0.3704  0.0158  0.1943
   60DOPE   H7R 7660   0.023   7.340   3.688 -0.0258 -0.6263  1.0904
   60DOPE   H7S 7661   0.077   7.510   3.685 -0.9621  1.0411  0.9733
   60DOPE   C28 7662  -0.121   7.464   3.778  0.3018  0.1429 -0.1680
   60DOPE   H8R 7663  -0.174   7.389   3.840 -0.4601  2.2803  1.9238
   60DOPE   H8S 7664  -0.167   7.474   3.677  0.1501 -0.1506 -0.1284
   60DOPE   C29 7665  -0.140   7.601   3.850  0.5168 -0.1364  0.8720
   60DOPE   H9R 7666  -0.119   7.689   3.787  0.9651 -0.0257  1.1656
   60DOPE  C210 7667  -0.175   7.621   3.981  0.3068 -0.7478 -0.0246
   60DOPE  H10R 7668  -0.196   7.723   4.017  1.2309 -0.3812 -0.4702
   60DOPE  C211 7669  -0.202   7.512   4.079  0.1758  0.1824 -0.3026
   60DOPE  H11R 7670  -0.216   7.416   4.025 -2.8619  0.4547 -0.1767
   60DOPE  H11S 7671  -0.302   7.530   4.125  0.3041  1.1249 -0.3752
   60DOPE  C212 7672  -0.086   7.485   4.180 -0.5633  0.0888 -0.3875
   60DOPE  H12R 7673   0.011   7.471   4.128 -0.1141  0.9878  0.1824
   60DOPE  H12S 7674  -0.113   7.393   4.237 -2.0492  0.6319 -0.1762
   60DOPE  C213 7675  -0.074   7.591   4.287  0.1024  0.2050 -0.4268
   60DOPE  H13R 7676  -0.095   7.695   4.253 -2.4861 -0.3550 -0.7841
   60DOPE  H13S 7677   0.025   7.606   4.335  0.0448 -0.3497 -0.1352
   60DOPE  C214 7678  -0.174   7.573   4.404  0.0217  0.0273 -0.3048
   60DOPE  H14R 7679  -0.181   7.471   4.446 -3.6238 -0.4865 -1.8317
   60DOPE  H14S 7680  -0.271   7.579   4.350 -0.0979 -1.5329 -0.2812
   60DOPE  C215 7681  -0.157   7.688   4.511 -0.9367 -0.2116 -0.6963
   60DOPE  H15R 7682  -0.179   7.776   4.447 -0.2637 -0.8302 -1.8244
   60DOPE  H15S 7683  -0.055   7.691   4.556 -1.8788  2.1354  1.5144
   60DOPE  C216 7684  -0.262   7.685   4.620  0.1650  0.4242  0.2168
   60DOPE  H16R 7685  -0.251   7.589   4.675 -0.6241 -1.3271 -2.4584
   60DOPE  H16S 7686  -0.361   7.678   4.569  1.1992  0.0486 -1.8724
   60DOPE  C217 7687  -0.258   7.807   4.712 -0.1878  0.0726  0.0555
   60DOPE  H17R 7688  -0.221   7.886   4.642  1.8644 -2.3162 -1.7278
   60DOPE  H17S 7689  -0.172   7.801   4.782  1.6780  0.9902 -2.0266
   60DOPE  C218 7690  -0.378   7.840   4.795 -0.0994 -0.5930  0.8965
   60DOPE  H18R 7691  -0.473   7.834   4.739 -2.5033  1.7061  4.3221
   60DOPE  H18S 7692  -0.378   7.942   4.840 -1.7179 -0.0171 -0.2963
   60DOPE  H18T 7693  -0.385   7.766   4.878  1.7412 -1.0314  0.7080
   60DOPE   C33 7694   1.160   7.451   4.329 -0.5593 -0.0889 -0.1766
   60DOPE   H3X 7695   1.109   7.484   4.422  1.4624  0.7938  0.6890
   60DOPE   H3Y 7696   1.181   7.546   4.276 -1.9284  0.5234  0.3426
   60DOPE   C34 7697   1.290   7.387   4.385 -0.4452 -0.4292  0.2929
   60DOPE   H4X 7698   1.265   7.287   4.426  0.0001 -1.6029 -2.0982
   60DOPE   H4Y 7699   1.349   7.353   4.296 -1.6437  0.0682 -0.7272
   60DOPE   C35 7700   1.378   7.469   4.480 -0.0002  0.1228 -0.1671
   60DOPE   H5X 7701   1.331   7.473   4.581  1.9644  0.4059  0.7702
   60DOPE   H5Y 7702   1.394   7.574   4.445  0.0954  0.7231  1.5798
   60DOPE   C36 7703   1.516   7.413   4.495 -0.3897  0.2364  0.4244
   60DOPE   H6X 7704   1.577   7.500   4.526 -1.7215  1.9161 -1.3596
   60DOPE   H6Y 7705   1.559   7.379   4.398  1.9704  2.2995  0.6621
   60DOPE   C37 7706   1.517   7.300   4.595  0.5008  0.2319 -0.1370
   60DOPE   H7X 7707   1.476   7.345   4.688  0.9690 -0.0334  0.2009
   60DOPE   H7Y 7708   1.449   7.222   4.554 -0.2758  0.2227  1.1426
   60DOPE   C38 7709   1.659   7.257   4.638  0.7174 -0.1981  0.1057
   60DOPE   H8X 7710   1.652   7.204   4.735 -0.4826  0.5578  0.4441
   60DOPE   H8Y 7711   1.713   7.350   4.666  0.4451  0.1034 -0.3531
   60DOPE   C39 7712   1.724   7.181   4.524  0.3684 -0.0313  0.7894
   60DOPE   H9X 7713   1.762   7.253   4.451 -1.1077  0.3790  0.4039
   60DOPE  C310 7714   1.753   7.053   4.519 -0.4022 -0.0313 -0.5783
   60DOPE  H10X 7715   1.806   7.025   4.427  1.0231  1.6433 -0.3309
   60DOPE  C311 7716   1.741   6.951   4.631 -0.1140 -0.4693 -0.1001
   60DOPE  H11X 7717   1.813   6.975   4.712  1.2207  1.2863 -1.7198
   60DOPE  H11Y 7718   1.643   6.951   4.683 -0.3295 -0.9260 -0.4905
   60DOPE  C312 7719   1.780   6.817   4.564 -0.2559 -0.8807 -0.3896
   60DOPE  H12X 7720   1.764   6.745   4.647 -0.3058  0.3004  0.6691
   60DOPE  H12Y 7721   1.883   6.814   4.523 -0.6197 -0.2287 -1.3802
   60DOPE  C313 7722   1.691   6.768   4.453  0.4224  0.4843  0.6066
   60DOPE  H13X 7723   1.673   6.840   4.371  2.5918  1.2105  0.7054
   60DOPE  H13Y 7724   1.741   6.687   4.397 -1.9526  1.2166 -2.9482
   60DOPE  C314 7725   1.562   6.704   4.501  0.0761 -0.4571 -0.6298
   60DOPE  H14X 7726   1.507   6.779   4.562  0.8762 -0.3401 -0.0284
   60DOPE  H14Y 7727   1.597   6.635   4.580  0.2937  0.5042  0.1318
   60DOPE  C315 7728   1.479   6.631   4.390 -0.0381 -0.5466 -0.2823
   60DOPE  H15X 7729   1.464   6.699   4.304 -2.0281 -0.7373 -0.1501
   60DOPE  H15Y 7730   1.379   6.618   4.438  0.4996  1.8158  1.6614
   60DOPE  C316 7731   1.524   6.501   4.330  0.4860 -0.2790  0.2230
   60DOPE  H16X 7732   1.531   6.423   4.410 -0.4480 -0.7258 -0.1079
   60DOPE  H16Y 7733   1.625   6.505   4.284  0.2331 -0.1247 -0.3226
   60DOPE  C317 7734   1.426   6.453   4.227  0.6299  0.4395  0.2703
   60DOPE  H17X 7735   1.322   6.459   4.266  0.4273 -0.2063 -0.1577
   60DOPE  H17Y 7736   1.429   6.524   4.141  1.5700 -0.4570 -0.4645
   60DOPE  C318 7737   1.439   6.310   4.166 -0.5667 -0.0438 -0.5126
   60DOPE  H18X 7738   1.440   6.243   4.255 -0.5241  2.7655  1.7374
   60DOPE  H18Y 7739   1.356   6.287   4.097  0.1271 -1.8941 -0.7987
   60DOPE  H18Z 7740   1.534   6.312   4.108 -0.4650  0.3705 -0.3402
   6123SM     N 7741   3.932   5.013   7.827 -0.0201  0.2405  0.2587
   6123SM   C15 7742   3.794   4.961   7.793  0.4677  0.0208 -0.0982
   6123SM  H15A 7743   3.718   5.038   7.803  1.8391  1.7166 -2.0751
   6123SM  H15B 7744   3.769   4.870   7.845 -1.4831 -0.3291 -1.5211
   6123SM  H15C 7745   3.785   4.940   7.688 -1.5673  0.7375 -0.1104
   6123SM   C14 7746   3.952   5.122   7.729  0.4473  0.5496 -0.3280
   6123SM  H14A 7747   4.049   5.169   7.743  2.3618 -2.9044 -1.0395
   6123SM  H14B 7748   3.874   5.197   7.731 -1.3033 -1.1880 -0.7149
   6123SM  H14C 7749   3.958   5.075   7.632 -0.2937  1.0987 -0.6482
   6123SM   C13 7750   3.932   5.073   7.967  0.4044 -0.9354 -0.1596
   6123SM  H13A 7751   3.884   5.007   8.037  0.1733  0.7086  1.2876
   6123SM  H13B 7752   3.874   5.163   7.975 -1.0515 -1.9701  1.6644
   6123SM  H13C 7753   4.035   5.092   7.993  0.1780  1.2029 -0.6804
   6123SM   C12 7754   4.038   4.902   7.803 -1.0702 -0.4219 -0.6541
   6123SM  H12A 7755   4.036   4.833   7.886 -0.9869  0.9275  0.5038
   6123SM  H12B 7756   4.130   4.954   7.824 -2.1215  0.3446  2.5220
   6123SM   C11 7757   4.038   4.820   7.675  0.1200 -0.1745 -0.0502
   6123SM  H11A 7758   3.944   4.765   7.651  0.9801 -1.1337 -1.3799
   6123SM  H11B 7759   4.106   4.732   7.681 -0.5480 -0.6195  1.1568
   6123SM     P 7760   4.227   4.946   7.546 -0.0998 -0.1891 -0.0698
   6123SM   O13 7761   4.250   5.089   7.532 -0.3137  0.2734  0.4784
   6123SM   O14 7762   4.303   4.876   7.649 -0.0425  0.6608 -0.3640
   6123SM   O11 7763   4.256   4.879   7.412 -0.3782  0.4667  0.1373
   6123SM   O12 7764   4.069   4.910   7.564  0.0945 -1.2484 -0.3417
   6123SM   C1S 7765   4.206   4.934   7.287  0.2291  0.6076 -0.5028
   6123SM   H1S 7766   4.143   5.024   7.306  0.7214  0.7823  0.3730
   6123SM   H1T 7767   4.135   4.860   7.244 -0.7588  0.9928  0.4267
   6123SM    NF 7768   4.227   5.002   7.059  0.9241 -0.1198 -0.1964
   6123SM   HNF 7769   4.198   4.930   6.997  1.9088  0.2336 -1.0981
   6123SM   C2S 7770   4.306   4.969   7.178  0.5467 -0.5448 -0.2552
   6123SM   H2S 7771   4.362   5.057   7.216 -1.3092  0.7389 -0.3532
   6123SM   C3S 7772   4.400   4.849   7.155  0.3747 -0.5141  0.0540
   6123SM   H3S 7773   4.334   4.767   7.120  0.4270  0.2475 -2.0049
   6123SM    O3 7774   4.475   4.806   7.268 -0.3498 -0.3669 -0.1700
   6123SM   HO3 7775   4.412   4.816   7.340  0.0533 -0.3551  0.1857
   6123SM   C4S 7776   4.491   4.876   7.046 -0.6338 -0.3641 -0.5874
   6123SM   H4S 7777   4.552   4.967   7.061 -1.6818  0.3282 -0.4229
   6123SM   C5S 7778   4.488   4.826   6.921 -0.8096  0.1076 -0.2974
   6123SM   H5S 7779   4.409   4.757   6.888 -1.1712  0.2557  0.2432
   6123SM   C6S 7780   4.593   4.862   6.819 -0.1878  0.4106 -0.8334
   6123SM   H6S 7781   4.631   4.965   6.835 -0.7156  0.3979  0.6659
   6123SM   H6T 7782   4.542   4.863   6.721  2.1134  2.8315 -2.1393
   6123SM   C7S 7783   4.703   4.753   6.817  0.6152 -0.0517  0.9394
   6123SM   H7S 7784   4.655   4.654   6.801 -1.2576  1.2381 -2.2754
   6123SM   H7T 7785   4.765   4.748   6.909  0.1294  0.3499  1.2924
   6123SM   C8S 7786   4.803   4.761   6.700 -0.1785 -0.2157  0.0111
   6123SM   H8S 7787   4.875   4.844   6.710 -0.3128 -0.0533 -0.3654
   6123SM   H8T 7788   4.744   4.769   6.606 -0.5699 -0.1742  0.2587
   6123SM   C9S 7789   4.889   4.638   6.695 -0.5065 -0.1232  0.0728
   6123SM   H9S 7790   4.832   4.543   6.707  0.6126 -0.5375  3.0587
   6123SM   H9T 7791   4.949   4.646   6.788 -0.3670 -1.3186  0.1080
   6123SM  C10S 7792   4.979   4.638   6.564  0.6097  0.4432  0.3390
   6123SM  H10S 7793   5.011   4.742   6.542  0.2381  0.0296 -2.5693
   6123SM  H10T 7794   4.907   4.614   6.483  0.3842 -1.0506  0.9530
   6123SM  C11S 7795   5.092   4.532   6.571 -0.1887 -0.3777 -0.6085
   6123SM  H11S 7796   5.176   4.562   6.639 -0.6806 -1.6837  0.6210
   6123SM  H11T 7797   5.131   4.530   6.467 -1.1380  0.5097 -0.9920
   6123SM  C12S 7798   5.048   4.401   6.632 -0.4781  0.6010 -0.4122
   6123SM  H12S 7799   4.960   4.371   6.571 -1.0462  0.3325  0.5196
   6123SM  H12T 7800   5.025   4.406   6.740  1.0132 -0.3320 -0.0187
   6123SM  C13S 7801   5.152   4.286   6.622 -0.1913 -0.8243  0.0709
   6123SM  H13S 7802   5.253   4.330   6.607 -0.8974  0.9128  0.1359
   6123SM  H13T 7803   5.126   4.232   6.528 -1.3088 -0.9358  0.4295
   6123SM  C14S 7804   5.153   4.185   6.730 -0.1269  0.0592  0.4795
   6123SM  H14S 7805   5.056   4.131   6.739 -1.1666  2.0387  2.1400
   6123SM  H14T 7806   5.161   4.237   6.829  2.2705  0.8097 -0.0455
   6123SM  C15S 7807   5.255   4.069   6.711 -0.1214  0.3041  0.6389
   6123SM  H15S 7808   5.360   4.105   6.703  0.1886 -0.2093  2.1441
   6123SM  H15T 7809   5.234   4.021   6.613  2.1157  1.2345 -0.3710
   6123SM  C16S 7810   5.251   3.962   6.818  0.4661 -0.5017  0.7419
   6123SM  H16S 7811   5.274   4.020   6.910  1.3643  2.5770 -1.2713
   6123SM  H16T 7812   5.337   3.892   6.807  0.2425 -0.6770  0.0768
   6123SM  C17S 7813   5.122   3.883   6.827  0.1773  0.0194  0.3042
   6123SM  H17S 7814   5.091   3.838   6.731  0.9279 -0.3469  0.2286
   6123SM  H17T 7815   5.036   3.947   6.858  0.7838 -0.0405  2.2887
   6123SM  C18S 7816   5.124   3.762   6.927 -0.4697  0.3404  0.3890
   6123SM  H18S 7817   5.193   3.683   6.890  0.9918  2.2111 -1.1130
   6123SM  H18T 7818   5.023   3.720   6.945 -0.3759  0.2880  0.8191
   6123SM  H18U 7819   5.172   3.788   7.024  0.8388 -3.4037  0.9396
   6123SM   C1F 7820   4.171   5.126   7.044 -0.5364 -0.1702  0.3342
   6123SM    OF 7821   4.164   5.204   7.135  0.6398 -0.0228  0.0796
   6123SM   C2F 7822   4.129   5.158   6.903 -0.7007  0.6383 -0.2317
   6123SM   H2F 7823   4.110   5.065   6.846  1.0940 -0.2570  0.5538
   6123SM   H2G 7824   4.217   5.213   6.863 -0.7599 -0.3028 -1.7162
   6123SM   C3F 7825   3.995   5.236   6.902  0.0688 -0.3614 -0.1237
   6123SM   H3F 7826   3.994   5.318   6.977 -1.2022  0.8088 -1.3634
   6123SM   H3G 7827   3.916   5.170   6.945  1.5432 -2.4963 -0.5564
   6123SM   C4F 7828   3.933   5.285   6.766  0.2242 -0.3739 -0.2051
   6123SM   H4F 7829   3.838   5.337   6.790  0.1158 -0.2453 -0.9037
   6123SM   H4G 7830   3.907   5.198   6.702  0.5189 -0.0654 -0.7580
   6123SM   C5F 7831   4.027   5.378   6.695 -0.2342 -0.1157  0.6405
   6123SM   H5F 7832   4.127   5.330   6.688 -0.1447  0.2409 -0.7016
   6123SM   H5G 7833   4.034   5.474   6.752  1.8993 -0.3483  0.8446
   6123SM   C6F 7834   3.991   5.398   6.547 -0.1442  0.1509  0.3287
   6123SM   H6F 7835   4.059   5.482   6.520 -0.6565  0.7098  0.7578
   6123SM   H6G 7836   3.890   5.443   6.549  0.4287  1.5005 -0.0611
   6123SM   C7F 7837   4.014   5.273   6.459 -0.6552 -0.6043  0.6464
   6123SM   H7F 7838   3.936   5.200   6.489 -1.0930  0.2976  1.7736
   6123SM   H7G 7839   4.110   5.224   6.487  0.3572  0.4562 -0.7984
   6123SM   C8F 7840   4.009   5.312   6.315  0.2957 -0.2182  0.6758
   6123SM   H8F 7841   4.097   5.377   6.300 -0.4016  0.9329  1.4111
   6123SM   H8G 7842   3.918   5.372   6.291  0.4564 -0.6523 -1.1450
   6123SM   C9F 7843   4.004   5.198   6.215  0.0365  0.0359  0.0571
   6123SM   H9F 7844   4.028   5.236   6.113  2.9283  0.4283  0.8094
   6123SM   H9G 7845   3.902   5.161   6.189  0.0967  0.5665 -1.0158
   6123SM  C10F 7846   4.097   5.085   6.257 -0.3251  0.1947 -0.0974
   6123SM  H10F 7847   4.059   5.036   6.349  1.8880 -1.2491  0.1093
   6123SM  H10G 7848   4.199   5.124   6.277 -0.1935 -0.6023  0.8241
   6123SM  C11F 7849   4.111   4.981   6.148 -0.3120  0.3322 -0.4480
   6123SM  H11F 7850   4.155   5.017   6.053  0.7239  0.1242 -0.0601
   6123SM  H11G 7851   4.006   4.953   6.123 -0.5572 -0.4337  1.2389
   6123SM  C12F 7852   4.184   4.852   6.197 -0.7717  0.2637  0.0597
   6123SM  H12F 7853   4.183   4.759   6.136  1.7508  1.1636 -1.4927
   6123SM  H12G 7854   4.132   4.816   6.289  0.9300 -1.8776  0.2505
   6123SM  C13F 7855   4.332   4.884   6.229 -0.0445 -0.6071 -0.2017
   6123SM  H13F 7856   4.336   4.981   6.283  0.8251 -0.6105 -0.2468
   6123SM  H13G 7857   4.391   4.909   6.138  1.2465 -2.3056  0.1262
   6123SM  C14F 7858   4.404   4.772   6.299 -0.7237  0.2399  0.4477
   6123SM  H14F 7859   4.369   4.672   6.268 -0.4689  0.5111 -0.7775
   6123SM  H14G 7860   4.388   4.783   6.408  1.4888  1.6624  0.7091
   6123SM  C15F 7861   4.558   4.775   6.291  0.2278 -0.3025 -0.2300
   6123SM  H15F 7862   4.592   4.747   6.190  1.2833 -1.2205  0.3574
   6123SM  H15G 7863   4.600   4.691   6.351 -0.1084 -1.3347 -1.4095
   6123SM  C16F 7864   4.612   4.909   6.344 -0.7792  0.7884 -0.3905
   6123SM  H16F 7865   4.579   4.921   6.449 -0.2548  1.1425 -0.2590
   6123SM  H16G 7866   4.570   4.992   6.282  0.2091  1.2567 -0.4599
   6123SM  C17F 7867   4.769   4.906   6.344  0.1737  0.1919  0.9747
   6123SM  H17F 7868   4.818   4.883   6.247 -0.4119  1.2145  0.4176
   6123SM  H17G 7869   4.812   4.831   6.414  0.0591  0.1579  1.0097
   6123SM  C18F 7870   4.841   5.034   6.379 -0.6744 -0.1621  0.2590
   6123SM  H18F 7871   4.944   5.018   6.416 -1.8607 -0.8696  3.6703
   6123SM  H18G 7872   4.783   5.090   6.456  0.2460  1.0472  0.1047
   6123SM  C19F 7873   4.850   5.134   6.261 -0.3848  0.1882  0.0204
   6123SM  H19F 7874   4.748   5.128   6.218 -0.4917 -1.7016  0.4104
   6123SM  H19G 7875   4.920   5.113   6.178 -0.4982 -0.4363  0.0774
   6123SM  C20F 7876   4.885   5.275   6.303 -0.5282 -0.1964 -0.6890
   6123SM  H20F 7877   4.983   5.273   6.355 -0.5298  0.6686 -0.6454
   6123SM  H20G 7878   4.806   5.294   6.378 -1.1325 -0.5637 -1.2252
   6123SM  C21F 7879   4.881   5.380   6.191  0.4872 -0.3282  0.2285
   6123SM  H21F 7880   4.791   5.357   6.131  0.3001  0.7417  0.0825
   6123SM  H21G 7881   4.965   5.372   6.118 -0.8930 -0.1416 -1.4428
   6123SM  C22F 7882   4.861   5.523   6.228 -0.3312  0.1935 -0.0100
   6123SM  H22F 7883   4.957   5.550   6.277  0.3594 -1.3237 -0.4568
   6123SM  H22G 7884   4.778   5.533   6.301  1.6172  0.6566  2.3169
   6123SM  C23F 7885   4.832   5.607   6.103  0.3610 -0.3261  0.5264
   6123SM  H23F 7886   4.887   5.573   6.013 -1.9555  1.1229 -1.5810
   6123SM  H23G 7887   4.852   5.715   6.121 -0.1860 -0.0578 -0.4167
   6123SM  H23H 7888   4.728   5.593   6.067  0.8781 -1.7412 -0.5399
   6223SM     N 7889   5.113   3.732   7.516  0.0825  0.3837 -0.2693
   6223SM   C15 7890   5.199   3.720   7.395  0.4263  0.3676  0.3013
   6223SM  H15A 7891   5.183   3.632   7.334  1.8442 -0.9311  1.6993
   6223SM  H15B 7892   5.304   3.725   7.420  0.7497  0.3160 -0.9883
   6223SM  H15C 7893   5.183   3.807   7.332  1.5489  0.9227  0.7693
   6223SM   C14 7894   5.103   3.880   7.551 -0.3185 -0.2050 -0.6786
   6223SM  H14A 7895   5.194   3.923   7.587 -0.7272  0.6978 -0.7017
   6223SM  H14B 7896   5.043   3.886   7.640 -0.9482  0.6743 -1.1488
   6223SM  H14C 7897   5.066   3.943   7.471 -1.1159 -0.4731 -0.5376
   6223SM   C13 7898   4.975   3.686   7.485  0.4139  0.0029  0.5826
   6223SM  H13A 7899   4.916   3.705   7.573  1.0437  0.8768  0.8326
   6223SM  H13B 7900   4.979   3.580   7.463  1.3255  0.1871 -0.2255
   6223SM  H13C 7901   4.932   3.746   7.405  1.2119  2.2625  1.7531
   6223SM   C12 7902   5.173   3.654   7.626 -0.0571  0.0803 -0.8518
   6223SM  H12A 7903   5.136   3.675   7.725 -0.1939 -1.4594 -0.5543
   6223SM  H12B 7904   5.275   3.686   7.641 -0.5308  1.2417  0.0816
   6223SM   C11 7905   5.179   3.497   7.607 -0.1345  0.1193 -0.1915
   6223SM  H11A 7906   5.216   3.462   7.706 -0.0228  0.4193 -0.1267
   6223SM  H11B 7907   5.260   3.469   7.536  0.4616  0.1037  0.4771
   6223SM     P 7908   5.034   3.343   7.460 -0.3244  0.2473 -0.2862
   6223SM   O13 7909   5.124   3.230   7.484 -0.0973  0.0090  0.4213
   6223SM   O14 7910   4.892   3.322   7.453 -0.6740 -0.2721 -0.1462
   6223SM   O11 7911   5.083   3.426   7.330 -0.4557  0.1954 -0.2792
   6223SM   O12 7912   5.051   3.441   7.585 -0.7495  0.3624  0.3259
   6223SM   C1S 7913   5.049   3.374   7.199  0.6603 -0.2535  0.0031
   6223SM   H1S 7914   4.953   3.419   7.165  0.4692 -1.8063 -1.6308
   6223SM   H1T 7915   5.040   3.264   7.192 -2.7723 -0.0660 -0.5771
   6223SM    NF 7916   5.101   3.341   6.960  0.3940 -0.1971  0.3145
   6223SM   HNF 7917   5.158   3.263   6.937 -0.0035 -0.1039 -1.1094
   6223SM   C2S 7918   5.138   3.422   7.079 -0.5886 -0.6071  1.0437
   6223SM   H2S 7919   5.112   3.530   7.070 -2.3367 -1.1277 -0.8285
   6223SM   C3S 7920   5.292   3.401   7.115 -0.6232 -0.8850  0.1597
   6223SM   H3S 7921   5.312   3.293   7.133  2.3017 -0.7662 -1.6911
   6223SM    O3 7922   5.330   3.471   7.238 -0.8257  0.0728 -0.2605
   6223SM   HO3 7923   5.247   3.496   7.279  0.4007  1.2371  1.7250
   6223SM   C4S 7924   5.374   3.445   6.984 -0.3665  0.3421 -0.5743
   6223SM   H4S 7925   5.392   3.366   6.910  1.6559 -0.7485  0.9726
   6223SM   C5S 7926   5.426   3.564   6.958 -1.2983  0.4687  0.5903
   6223SM   H5S 7927   5.401   3.649   7.024 -1.8574  0.3221  0.5743
   6223SM   C6S 7928   5.488   3.570   6.822 -0.4681  0.2039  0.5391
   6223SM   H6S 7929   5.550   3.483   6.791 -0.7648  0.2357 -0.1691
   6223SM   H6T 7930   5.558   3.656   6.821 -2.6698  2.0941  0.3749
   6223SM   C7S 7931   5.398   3.603   6.701 -0.1986  0.0681  0.0850
   6223SM   H7S 7932   5.465   3.627   6.616 -0.1478  1.8450  0.5850
   6223SM   H7T 7933   5.342   3.696   6.723 -2.1708 -0.7799 -1.1345
   6223SM   C8S 7934   5.293   3.492   6.674  0.3798  0.0263 -0.6213
   6223SM   H8S 7935   5.215   3.485   6.752  1.4599 -1.3182  0.3851
   6223SM   H8T 7936   5.334   3.390   6.658 -1.1424 -0.6235 -0.5245
   6223SM   C9S 7937   5.213   3.509   6.540 -0.0800 -0.0409  0.3398
   6223SM   H9S 7938   5.145   3.597   6.542  0.4202  0.4502 -1.6858
   6223SM   H9T 7939   5.147   3.420   6.528 -0.6213  0.1776  1.4854
   6223SM  C10S 7940   5.309   3.519   6.419  0.9005  0.6493 -0.4575
   6223SM  H10S 7941   5.376   3.432   6.431  0.1523  0.1332  0.0618
   6223SM  H10T 7942   5.370   3.612   6.428  2.8656 -0.7189  1.8760
   6223SM  C11S 7943   5.247   3.507   6.280 -0.1978 -0.0545  0.4205
   6223SM  H11S 7944   5.177   3.593   6.271  0.0021  0.0071 -0.5645
   6223SM  H11T 7945   5.186   3.417   6.257  2.5800 -1.9988  0.2065
   6223SM  C12S 7946   5.356   3.528   6.180  0.2565  0.0954 -0.0635
   6223SM  H12S 7947   5.435   3.459   6.213  0.5852  0.1899 -0.6361
   6223SM  H12T 7948   5.390   3.634   6.187 -0.0230  0.1578  0.3815
   6223SM  C13S 7949   5.321   3.503   6.031 -0.8799 -0.4616 -0.0289
   6223SM  H13S 7950   5.289   3.397   6.025 -1.8914 -0.0622 -2.3247
   6223SM  H13T 7951   5.415   3.531   5.979 -0.6701  1.2554  1.1799
   6223SM  C14S 7952   5.212   3.598   5.982 -0.1261  1.1641 -0.2968
   6223SM  H14S 7953   5.243   3.701   6.009  0.1608  1.1684 -0.6433
   6223SM  H14T 7954   5.114   3.585   6.033  0.1526  0.8129  0.1593
   6223SM  C15S 7955   5.186   3.581   5.834  0.1223 -0.0507  0.0714
   6223SM  H15S 7956   5.271   3.567   5.765 -1.6143 -2.7311 -1.6749
   6223SM  H15T 7957   5.124   3.664   5.794 -2.1329 -1.5210  0.3102
   6223SM  C16S 7958   5.098   3.453   5.803 -0.3389  0.1328 -0.4969
   6223SM  H16S 7959   5.002   3.469   5.856 -0.9447 -0.7240 -1.3112
   6223SM  H16T 7960   5.154   3.371   5.853  0.1189  1.1051  0.6521
   6223SM  C17S 7961   5.059   3.428   5.657  0.6937 -0.1879  0.3265
   6223SM  H17S 7962   4.997   3.336   5.658  1.8648 -1.0083 -0.0228
   6223SM  H17T 7963   5.154   3.411   5.601  1.1170 -2.0797  1.5207
   6223SM  C18S 7964   4.990   3.542   5.588  0.2488 -0.2218 -1.0156
   6223SM  H18S 7965   4.911   3.593   5.648 -0.1927 -1.5097 -0.4593
   6223SM  H18T 7966   4.940   3.496   5.500 -0.3890  1.1655 -1.3953
   6223SM  H18U 7967   5.064   3.616   5.552  1.0631  0.8384  2.4540
   6223SM   C1F 7968   4.983   3.350   6.895 -0.0962 -0.6674  0.1716
   6223SM    OF 7969   4.910   3.446   6.903  0.3680 -0.3444 -1.0870
   6223SM   C2F 7970   4.944   3.234   6.806  0.2035 -0.1076 -0.4262
   6223SM   H2F 7971   4.856   3.183   6.850  0.6676  0.7533  1.6023
   6223SM   H2G 7972   5.023   3.156   6.803  0.2370 -0.0694 -0.5503
   6223SM   C3F 7973   4.912   3.285   6.668 -0.1080  0.9331 -0.7049
   6223SM   H3F 7974   4.981   3.367   6.636 -2.3585  2.8393 -0.9226
   6223SM   H3G 7975   4.806   3.311   6.650 -0.5551 -0.0723  0.4212
   6223SM   C4F 7976   4.934   3.171   6.564  0.1840  0.2107  0.6106
   6223SM   H4F 7977   4.892   3.081   6.613  0.9844  0.6930  2.2516
   6223SM   H4G 7978   5.040   3.145   6.544  0.8435  2.9149  0.1170
   6223SM   C5F 7979   4.878   3.200   6.422  0.2370 -0.3920  0.0740
   6223SM   H5F 7980   4.767   3.191   6.419  0.4053 -3.3228 -0.5881
   6223SM   H5G 7981   4.916   3.123   6.351  1.2856 -0.3383  0.5531
   6223SM   C6F 7982   4.916   3.341   6.373 -0.2223  0.2007 -0.3382
   6223SM   H6F 7983   5.027   3.346   6.367 -0.2587  0.4382 -0.9362
   6223SM   H6G 7984   4.867   3.422   6.431 -0.8216  1.2790 -2.2403
   6223SM   C7F 7985   4.859   3.378   6.231  0.3509 -0.1074  0.0161
   6223SM   H7F 7986   4.876   3.300   6.153 -1.3283  0.1534 -0.6709
   6223SM   H7G 7987   4.915   3.463   6.187 -0.0701  1.6632  2.7050
   6223SM   C8F 7988   4.709   3.424   6.231 -0.3793 -0.8218  0.7462
   6223SM   H8F 7989   4.697   3.507   6.304  3.3322  2.5949 -2.0870
   6223SM   H8G 7990   4.634   3.344   6.251 -1.7942 -0.0080 -1.0692
   6223SM   C9F 7991   4.665   3.491   6.091 -0.4118 -0.0053 -0.4755
   6223SM   H9F 7992   4.726   3.580   6.065 -1.1230  0.1368 -1.7493
   6223SM   H9G 7993   4.563   3.534   6.103 -0.3742 -0.4316  1.7693
   6223SM  C10F 7994   4.670   3.395   5.974 -0.5918  0.0885 -0.4177
   6223SM  H10F 7995   4.590   3.320   5.989 -0.1781 -0.0674  1.1972
   6223SM  H10G 7996   4.769   3.346   5.967 -0.7693 -0.1816 -1.1161
   6223SM  C11F 7997   4.664   3.471   5.840  0.1240 -0.8229 -0.0668
   6223SM  H11F 7998   4.748   3.540   5.816  0.5258 -2.4854 -4.3454
   6223SM  H11G 7999   4.568   3.526   5.842  0.9458  0.6301  1.1526
   6223SM  C12F 8000   4.643   3.374   5.726 -0.5414  1.1519 -0.0235
   6223SM  H12F 8001   4.550   3.314   5.742 -0.4615  0.7215 -1.0970
   6223SM  H12G 8002   4.725   3.300   5.729  0.1996  1.9524 -0.3252
   6223SM  C13F 8003   4.630   3.437   5.585  0.4742  0.4847 -0.8904
   6223SM  H13F 8004   4.732   3.470   5.557  0.4742  1.6774  0.3908
   6223SM  H13G 8005   4.571   3.530   5.600 -1.3911 -0.8765  0.7441
   6223SM  C14F 8006   4.568   3.350   5.478  0.4319  0.6232 -0.2493
   6223SM  H14F 8007   4.470   3.312   5.513  0.7131  2.4760  2.9333
   6223SM  H14G 8008   4.633   3.260   5.474 -0.9223 -0.3797 -0.2651
   6223SM  C15F 8009   4.556   3.416   5.342  0.9087 -0.3665 -0.1341
   6223SM  H15F 8010   4.533   3.337   5.268 -0.2093  1.2440 -1.5916
   6223SM  H15G 8011   4.643   3.476   5.309 -0.0370  1.2910  0.2651
   6223SM  C16F 8012   4.447   3.525   5.338 -0.1730 -0.1730  0.5275
   6223SM  H16F 8013   4.426   3.591   5.425 -1.4976  0.1028  0.0269
   6223SM  H16G 8014   4.349   3.479   5.315 -0.3103 -0.1126  0.9777
   6223SM  C17F 8015   4.461   3.615   5.212 -0.0735  0.1736 -0.7850
   6223SM  H17F 8016   4.368   3.675   5.213  0.9203  2.0102 -3.6920
   6223SM  H17G 8017   4.458   3.552   5.120  0.7945  0.2064 -0.8497
   6223SM  C18F 8018   4.575   3.716   5.205 -0.2885 -0.2729  0.0047
   6223SM  H18F 8019   4.671   3.662   5.193  1.1037  1.9234  0.7671
   6223SM  H18G 8020   4.584   3.759   5.307  1.7364 -1.3166  0.3106
   6223SM  C19F 8021   4.565   3.822   5.098  0.0435  0.9690 -0.2276
   6223SM  H19F 8022   4.630   3.911   5.112 -0.4235  1.0134  2.0630
   6223SM  H19G 8023   4.464   3.865   5.114 -0.4283  0.1158 -0.8210
   6223SM  C20F 8024   4.585   3.774   4.956  0.3701 -0.8297  1.0797
   6223SM  H20F 8025   4.541   3.675   4.932  2.7000 -1.4364 -0.9842
   6223SM  H20G 8026   4.692   3.759   4.930 -0.2873 -1.8698 -1.2478
   6223SM  C21F 8027   4.523   3.868   4.852  0.0075 -0.6711  0.1086
   6223SM  H21F 8028   4.586   3.959   4.858  0.3955 -0.9669  0.6288
   6223SM  H21G 8029   4.416   3.891   4.869 -0.4451 -2.5149  0.0059
   6223SM  C22F 8030   4.538   3.815   4.707 -0.4466 -0.4973 -0.7808
   6223SM  H22F 8031   4.491   3.893   4.643  0.0333  0.0273 -0.5045
   6223SM  H22G 8032   4.474   3.724   4.714 -0.3530 -0.4567  1.1884
   6223SM  C23F 8033   4.683   3.770   4.672 -0.1759  0.0183  0.1973
   6223SM  H23F 8034   4.713   3.683   4.735 -0.4287 -0.6640 -0.6074
   6223SM  H23G 8035   4.759   3.850   4.684  1.2353 -1.4265  1.5212
   6223SM  H23H 8036   4.678   3.733   4.567 -1.2942  1.2679 -0.2023
   6323SM     N 8037   6.187   6.663   7.182 -0.2919 -0.3789  0.3885
   6323SM   C15 8038   6.295   6.751   7.135 -0.0590 -0.2369 -0.2901
   6323SM  H15A 8039   6.388   6.712   7.173 -0.2246 -1.2401 -0.8909
   6323SM  H15B 8040   6.282   6.848   7.180  0.4870 -0.5822  0.6291
   6323SM  H15C 8041   6.279   6.765   7.029 -0.4729 -0.8249 -0.3077
   6323SM   C14 8042   6.196   6.645   7.332  0.0223 -0.7052  0.2832
   6323SM  H14A 8043   6.106   6.595   7.364 -1.9214  0.1940 -3.2013
   6323SM  H14B 8044   6.184   6.741   7.379 -0.1314 -0.2542 -0.6478
   6323SM  H14C 8045   6.291   6.597   7.351  0.6172 -0.0760 -0.9511
   6323SM   C13 8046   6.064   6.739   7.154 -0.1228 -0.1906  0.1145
   6323SM  H13A 8047   6.054   6.759   7.048 -1.7625 -2.5267 -0.2603
   6323SM  H13B 8048   6.066   6.837   7.200 -0.2064  0.4070 -1.1244
   6323SM  H13C 8049   5.984   6.672   7.182 -0.2607 -0.3656 -0.6764
   6323SM   C12 8050   6.190   6.532   7.112  0.2386  0.0953 -0.1559
   6323SM  H12A 8051   6.100   6.481   7.142  0.2769  0.5254  0.7176
   6323SM  H12B 8052   6.282   6.482   7.140  1.0964  1.8072  0.2569
   6323SM   C11 8053   6.198   6.546   6.962 -0.2934 -0.0070 -0.2112
   6323SM  H11A 8054   6.119   6.613   6.923 -1.2077 -0.4852  0.7741
   6323SM  H11B 8055   6.176   6.449   6.911  1.0919 -0.3570 -0.1927
   6323SM     P 8056   6.458   6.489   6.932  0.3984  0.2448 -0.1387
   6323SM   O13 8057   6.565   6.535   7.021 -0.0408  0.4255  0.2188
   6323SM   O14 8058   6.408   6.349   6.945 -0.0353 -0.3319  0.6533
   6323SM   O11 8059   6.519   6.510   6.789 -0.7056  0.4031  0.2980
   6323SM   O12 8060   6.332   6.582   6.921  0.5456 -0.0254  0.1200
   6323SM   C1S 8061   6.466   6.495   6.659 -0.7134  0.0576  0.1272
   6323SM   H1S 8062   6.355   6.489   6.664 -0.7098  0.1900  0.3989
   6323SM   H1T 8063   6.500   6.398   6.616 -1.3341 -1.1471  2.2038
   6323SM    NF 8064   6.467   6.554   6.417 -0.0594  0.6512 -0.4586
   6323SM   HNF 8065   6.544   6.538   6.355  1.1196  1.6866  0.6688
   6323SM   C2S 8066   6.501   6.606   6.550 -0.2298  0.2090 -0.3494
   6323SM   H2S 8067   6.437   6.697   6.557  1.0884  1.2216 -1.0466
   6323SM   C3S 8068   6.646   6.648   6.562 -0.3428 -0.3107  0.4795
   6323SM   H3S 8069   6.712   6.563   6.536  0.4935  0.8454 -1.4588
   6323SM    O3 8070   6.692   6.691   6.691  0.4610 -0.2795  0.5961
   6323SM   HO3 8071   6.626   6.650   6.747 -2.1294  2.1249 -0.5111
   6323SM   C4S 8072   6.671   6.755   6.460 -0.2187 -0.9021 -0.1445
   6323SM   H4S 8073   6.612   6.847   6.470  2.5115  1.0719 -1.0713
   6323SM   C5S 8074   6.775   6.747   6.375 -0.1459  0.2298 -0.6324
   6323SM   H5S 8075   6.846   6.664   6.381  1.5972  1.7703  1.5051
   6323SM   C6S 8076   6.807   6.849   6.272 -0.1476 -0.5400 -0.0971
   6323SM   H6S 8077   6.905   6.901   6.279 -0.6118  0.4919 -0.9690
   6323SM   H6T 8078   6.730   6.929   6.271 -1.4014 -1.7124  0.2379
   6323SM   C7S 8079   6.799   6.778   6.133 -0.7175 -0.3279 -0.8035
   6323SM   H7S 8080   6.701   6.727   6.136 -1.7418  1.5915  1.4698
   6323SM   H7T 8081   6.874   6.696   6.139 -1.4662 -0.9700  0.0889
   6323SM   C8S 8082   6.823   6.879   6.021  0.6074 -0.0261 -0.0686
   6323SM   H8S 8083   6.930   6.893   5.997  0.8904 -0.9485  0.5478
   6323SM   H8T 8084   6.779   6.976   6.052 -0.4934 -0.8058  0.9209
   6323SM   C9S 8085   6.727   6.831   5.905  0.2818  0.2918  0.2824
   6323SM   H9S 8086   6.626   6.842   5.951  1.1153 -2.0619  2.9203
   6323SM   H9T 8087   6.737   6.724   5.879 -2.6391 -0.3400  1.3554
   6323SM  C10S 8088   6.735   6.911   5.773  0.3205 -0.3357  0.4296
   6323SM  H10S 8089   6.841   6.914   5.740 -0.1307  0.5500 -0.9945
   6323SM  H10T 8090   6.702   7.013   5.802 -3.3132 -2.0820  3.2692
   6323SM  C11S 8091   6.641   6.856   5.665  0.0786  0.2593  0.3501
   6323SM  H11S 8092   6.540   6.883   5.702  0.1291 -0.4761  1.0561
   6323SM  H11T 8093   6.630   6.746   5.658 -0.2097  0.3615 -1.0333
   6323SM  C12S 8094   6.663   6.914   5.516  0.1005 -0.2854  0.0031
   6323SM  H12S 8095   6.614   6.855   5.435  1.6409 -2.4386  0.5358
   6323SM  H12T 8096   6.773   6.913   5.497 -0.0774 -0.6356 -1.0522
   6323SM  C13S 8097   6.601   7.060   5.508 -0.6562  0.2625 -0.3303
   6323SM  H13S 8098   6.656   7.137   5.567  0.3848  0.7052 -1.8279
   6323SM  H13T 8099   6.497   7.053   5.548 -1.5347 -0.5585 -2.6429
   6323SM  C14S 8100   6.596   7.111   5.365 -0.2434 -0.0672 -0.3031
   6323SM  H14S 8101   6.523   7.194   5.360  0.5991  0.6266 -1.7637
   6323SM  H14T 8102   6.553   7.021   5.316 -0.3901 -2.0920  3.2089
   6323SM  C15S 8103   6.734   7.154   5.306  0.3861 -0.2085  0.7740
   6323SM  H15S 8104   6.797   7.064   5.290 -0.5640 -0.8193  0.4000
   6323SM  H15T 8105   6.777   7.225   5.380 -0.5716  2.2530 -0.9050
   6323SM  C16S 8106   6.714   7.216   5.171 -0.0583 -0.7032  0.6010
   6323SM  H16S 8107   6.806   7.252   5.120 -1.9594  1.9448 -1.2135
   6323SM  H16T 8108   6.662   7.313   5.188  1.0498  0.0351 -0.1109
   6323SM  C17S 8109   6.634   7.128   5.063 -0.1308 -0.0802 -0.7582
   6323SM  H17S 8110   6.526   7.116   5.084  0.2094 -1.2947  0.4535
   6323SM  H17T 8111   6.681   7.028   5.071  0.2739  0.1762  0.3108
   6323SM  C18S 8112   6.641   7.191   4.927  0.1202 -0.1537  0.3308
   6323SM  H18S 8113   6.615   7.299   4.933  1.8097  0.3469 -0.5825
   6323SM  H18T 8114   6.592   7.135   4.844  2.6091  0.3277 -1.5955
   6323SM  H18U 8115   6.747   7.196   4.893  0.1103  0.7479  0.4208
   6323SM   C1F 8116   6.347   6.531   6.374  0.3640  0.5697 -0.8587
   6323SM    OF 8117   6.249   6.557   6.443  0.4224  0.2289  0.9228
   6323SM   C2F 8118   6.326   6.457   6.238 -0.5367 -0.2257  0.0672
   6323SM   H2F 8119   6.421   6.405   6.216 -0.1744 -0.1435  1.3696
   6323SM   H2G 8120   6.312   6.542   6.168  3.2636  0.3121 -0.2273
   6323SM   C3F 8121   6.212   6.357   6.254  0.5829  0.8729 -0.4213
   6323SM   H3F 8122   6.122   6.407   6.294  1.2216  2.0362 -0.3880
   6323SM   H3G 8123   6.256   6.287   6.327 -1.1834  1.4982  1.3153
   6323SM   C4F 8124   6.186   6.287   6.120  0.0358  0.7565 -0.2266
   6323SM   H4F 8125   6.269   6.215   6.104 -2.2153 -3.3619  4.1673
   6323SM   H4G 8126   6.178   6.363   6.039 -1.0874  0.6931 -0.1923
   6323SM   C5F 8127   6.060   6.199   6.099  0.7960  0.1559  0.2640
   6323SM   H5F 8128   5.961   6.245   6.121  0.2502 -0.5830 -0.5663
   6323SM   H5G 8129   6.073   6.103   6.154 -1.6307 -0.0289  0.5984
   6323SM   C6F 8130   6.054   6.138   5.955 -0.1969  0.1216  0.4612
   6323SM   H6F 8131   6.144   6.076   5.938  1.2226  2.1263  0.2521
   6323SM   H6G 8132   6.050   6.221   5.881 -1.2146  0.0770  0.4459
   6323SM   C7F 8133   5.925   6.060   5.926 -0.5144 -0.3227  0.0639
   6323SM   H7F 8134   5.835   6.117   5.958  1.9411  4.2524 -0.1995
   6323SM   H7G 8135   5.930   5.966   5.984 -2.1179  0.6014  1.7955
   6323SM   C8F 8136   5.903   6.019   5.777 -0.5786  0.3174 -0.0953
   6323SM   H8F 8137   6.004   5.982   5.748 -0.2575  1.4429 -0.4548
   6323SM   H8G 8138   5.887   6.108   5.713 -0.1232  2.3564  2.4494
   6323SM   C9F 8139   5.792   5.910   5.766 -0.6039  0.0882  1.0037
   6323SM   H9F 8140   5.694   5.957   5.790 -0.4239  1.8960 -1.3750
   6323SM   H9G 8141   5.814   5.819   5.825 -2.3791 -1.5070 -0.6832
   6323SM  C10F 8142   5.777   5.871   5.619  0.2934 -0.3209  0.4210
   6323SM  H10F 8143   5.873   5.822   5.591  0.7860  0.1818  1.2065
   6323SM  H10G 8144   5.764   5.964   5.560 -0.0548  0.7767  2.1657
   6323SM  C11F 8145   5.660   5.784   5.595 -0.5099  0.5228  0.4928
   6323SM  H11F 8146   5.618   5.749   5.691  0.6647 -1.1449  0.4505
   6323SM  H11G 8147   5.686   5.691   5.539 -2.0364  0.6937 -0.5610
   6323SM  C12F 8148   5.547   5.846   5.514 -0.3780 -0.0658 -0.6268
   6323SM  H12F 8149   5.586   5.855   5.410  0.2472  1.4345 -0.2905
   6323SM  H12G 8150   5.518   5.948   5.547  1.6140  1.1557 -2.3282
   6323SM  C13F 8151   5.426   5.746   5.509 -0.7819 -0.4103  0.1725
   6323SM  H13F 8152   5.375   5.765   5.606  1.9393  0.3303  1.5366
   6323SM  H13G 8153   5.460   5.640   5.499  1.7860  0.2045  1.6101
   6323SM  C14F 8154   5.329   5.774   5.392 -0.4037 -0.2355 -0.4891
   6323SM  H14F 8155   5.376   5.767   5.291  1.1769 -0.8466  0.2568
   6323SM  H14G 8156   5.312   5.883   5.405 -1.1899 -0.2563 -1.2147
   6323SM  C15F 8157   5.194   5.704   5.392  0.1872 -0.7928  0.5238
   6323SM  H15F 8158   5.154   5.733   5.491  0.7740  0.1989  0.4848
   6323SM  H15G 8159   5.204   5.593   5.387 -1.8311 -0.9888 -3.5811
   6323SM  C16F 8160   5.098   5.743   5.280 -0.1606  0.1467 -0.1881
   6323SM  H16F 8161   5.141   5.727   5.178 -1.5671  1.3165 -1.0022
   6323SM  H16G 8162   5.078   5.852   5.291  0.2357  0.1018  1.0961
   6323SM  C17F 8163   4.966   5.662   5.277 -0.0473 -1.1685  0.1430
   6323SM  H17F 8164   4.990   5.553   5.271 -0.9952 -1.3944  0.3400
   6323SM  H17G 8165   4.915   5.691   5.183 -1.0916  1.4976  1.4464
   6323SM  C18F 8166   4.872   5.698   5.396 -0.2036 -0.2730  0.1765
   6323SM  H18F 8167   4.860   5.808   5.400 -0.3996 -0.2068 -1.4531
   6323SM  H18G 8168   4.912   5.667   5.495  2.7159  0.0248 -0.8038
   6323SM  C19F 8169   4.731   5.640   5.390 -0.1211 -0.0204  0.4279
   6323SM  H19F 8170   4.741   5.538   5.347  0.7971  0.7188 -1.2104
   6323SM  H19G 8171   4.662   5.686   5.315  0.2741 -1.4455 -0.8638
   6323SM  C20F 8172   4.661   5.648   5.530  0.6032 -0.4868  0.4558
   6323SM  H20F 8173   4.735   5.607   5.602 -0.7070  0.1874  2.2210
   6323SM  H20G 8174   4.566   5.591   5.534 -0.4223  1.2003  0.7462
   6323SM  C21F 8175   4.610   5.788   5.557  0.8285 -0.1387 -0.1161
   6323SM  H21F 8176   4.515   5.810   5.503 -0.6898 -2.1567  1.5520
   6323SM  H21G 8177   4.690   5.859   5.528 -0.2574  0.3658 -2.1032
   6323SM  C22F 8178   4.569   5.809   5.705 -0.6546  0.3655  0.2149
   6323SM  H22F 8179   4.510   5.718   5.730 -0.9182  0.3474 -0.4419
   6323SM  H22G 8180   4.508   5.901   5.708  0.4843  1.5194 -4.3721
   6323SM  C23F 8181   4.692   5.820   5.798  0.3711  0.6880 -0.6767
   6323SM  H23F 8182   4.720   5.714   5.817  1.1989  0.6902 -1.8198
   6323SM  H23G 8183   4.666   5.864   5.897 -2.4661  0.7718 -1.3692
   6323SM  H23H 8184   4.777   5.871   5.749  1.1240 -1.9203 -2.3207
   6423SM     N 8185   6.054   4.161   7.500  0.4358  0.2421  0.4292
   6423SM   C15 8186   6.115   4.287   7.457  0.0647 -0.6082  0.1104
   6423SM  H15A 8187   6.132   4.356   7.537  1.4390  0.8251 -1.3393
   6423SM  H15B 8188   6.070   4.337   7.372  0.4986  0.8541  0.7151
   6423SM  H15C 8189   6.215   4.266   7.422  0.0819  1.7435 -1.5538
   6423SM   C14 8190   6.145   4.093   7.604 -0.1369  0.0764  0.4128
   6423SM  H14A 8191   6.099   4.023   7.673  1.5214 -1.4573  0.0584
   6423SM  H14B 8192   6.183   4.164   7.676  1.8110 -0.6817  0.1941
   6423SM  H14C 8193   6.232   4.060   7.549 -0.3758  1.2244 -0.6834
   6423SM   C13 8194   5.932   4.190   7.577  0.4657 -0.1336 -0.0898
   6423SM  H13A 8195   5.879   4.103   7.613  0.7857 -0.1176  0.4376
   6423SM  H13B 8196   5.857   4.254   7.533 -0.4732 -1.2146 -0.1144
   6423SM  H13C 8197   5.967   4.242   7.665  1.6516 -0.3899 -0.3956
   6423SM   C12 8198   6.022   4.069   7.382  0.9454  0.3940 -0.0820
   6423SM  H12A 8199   5.938   4.115   7.332 -0.1090 -1.4778 -0.1189
   6423SM  H12B 8200   5.985   3.975   7.419 -1.7844  0.9895 -1.0509
   6423SM   C11 8201   6.136   4.034   7.276  0.2960 -0.1841 -0.3346
   6423SM  H11A 8202   6.153   4.136   7.234 -1.6872  1.4839  2.4900
   6423SM  H11B 8203   6.097   3.966   7.198  0.9902 -0.6531 -0.2783
   6423SM     P 8204   6.309   3.837   7.341 -0.4251  0.1345  0.0853
   6423SM   O13 8205   6.428   3.833   7.429 -0.0909  0.6605  0.8396
   6423SM   O14 8206   6.206   3.735   7.374 -0.2318 -0.4853 -0.5196
   6423SM   O11 8207   6.349   3.819   7.188  0.2143  0.1050  0.2978
   6423SM   O12 8208   6.251   3.984   7.344  0.4141  0.1218  0.9072
   6423SM   C1S 8209   6.442   3.906   7.114 -0.3389 -0.8034  0.1919
   6423SM   H1S 8210   6.544   3.873   7.143 -0.5386 -0.1839  1.6999
   6423SM   H1T 8211   6.427   4.012   7.143  0.3325 -0.7367  0.3056
   6423SM    NF 8212   6.498   3.962   6.889  0.9706  0.0787 -0.4740
   6423SM   HNF 8213   6.462   4.041   6.839  1.9267  1.8581  1.5050
   6423SM   C2S 8214   6.405   3.882   6.969 -0.2330 -0.3388  0.5467
   6423SM   H2S 8215   6.431   3.776   6.950 -1.0259 -0.4178 -0.1430
   6423SM   C3S 8216   6.259   3.914   6.923  0.0772  0.4645  0.3209
   6423SM   H3S 8217   6.229   4.021   6.926 -2.7370 -0.2388  0.2980
   6423SM    O3 8218   6.158   3.842   6.992 -0.6922  0.3277 -0.2564
   6423SM   HO3 8219   6.201   3.802   7.069 -0.4455 -1.2512 -1.1624
   6423SM   C4S 8220   6.246   3.872   6.779 -0.4308 -0.4997 -0.4892
   6423SM   H4S 8221   6.256   3.764   6.759 -0.9190 -0.6818  0.2036
   6423SM   C5S 8222   6.224   3.956   6.675 -1.0555 -0.0965 -0.1944
   6423SM   H5S 8223   6.224   4.066   6.683  1.1811 -0.1434  1.4563
   6423SM   C6S 8224   6.211   3.898   6.537  0.7044 -0.0434  0.0200
   6423SM   H6S 8225   6.120   3.942   6.492  0.6065 -0.8218 -0.5809
   6423SM   H6T 8226   6.193   3.789   6.552  0.1590  0.0519  0.0582
   6423SM   C7S 8227   6.339   3.932   6.447 -0.1060  0.1190 -0.5567
   6423SM   H7S 8228   6.422   3.894   6.510 -0.3713 -0.9447 -0.8263
   6423SM   H7T 8229   6.364   4.040   6.440  0.1497  0.1640  0.7280
   6423SM   C8S 8230   6.340   3.879   6.307 -0.3085 -0.7763 -0.1247
   6423SM   H8S 8231   6.426   3.940   6.270 -0.1761 -0.4126  0.7519
   6423SM   H8T 8232   6.249   3.921   6.258  1.0011 -0.0531 -2.0812
   6423SM   C9S 8233   6.362   3.733   6.268  0.1311 -0.0686 -0.5985
   6423SM   H9S 8234   6.279   3.664   6.293 -0.3100 -0.1168 -2.1279
   6423SM   H9T 8235   6.447   3.696   6.330 -0.7020  0.7418  1.0991
   6423SM  C10S 8236   6.399   3.714   6.120 -0.3168 -0.4928  0.1294
   6423SM  H10S 8237   6.439   3.611   6.107  2.3452 -0.2444  4.2731
   6423SM  H10T 8238   6.483   3.784   6.100 -1.5163  0.8918 -0.1408
   6423SM  C11S 8239   6.276   3.741   6.036 -0.1998  0.4482 -0.6055
   6423SM  H11S 8240   6.208   3.820   6.073 -1.0631 -0.9617  0.9617
   6423SM  H11T 8241   6.212   3.651   6.051  0.5061 -0.1236 -0.9284
   6423SM  C12S 8242   6.311   3.742   5.885  0.6363  0.0116 -1.1103
   6423SM  H12S 8243   6.387   3.663   5.867  1.8505  0.7009  0.7575
   6423SM  H12T 8244   6.360   3.840   5.868 -0.4604  0.6401 -0.7906
   6423SM  C13S 8245   6.198   3.719   5.779 -0.2536 -0.0758 -0.1754
   6423SM  H13S 8246   6.104   3.756   5.825  0.8571 -0.9115  3.0776
   6423SM  H13T 8247   6.176   3.611   5.762 -1.2548  0.1535 -0.4211
   6423SM  C14S 8248   6.235   3.784   5.646  1.2995 -0.7311  0.5265
   6423SM  H14S 8249   6.320   3.725   5.605 -0.1416 -2.1845 -0.4649
   6423SM  H14T 8250   6.262   3.891   5.656  1.6144 -0.5159 -2.0129
   6423SM  C15S 8251   6.118   3.772   5.546 -0.3126  0.0263  0.0503
   6423SM  H15S 8252   6.022   3.819   5.578 -2.4426 -2.6146 -1.9389
   6423SM  H15T 8253   6.095   3.664   5.538  0.6994 -0.1321 -0.8439
   6423SM  C16S 8254   6.140   3.817   5.403  0.6733  0.0534 -0.2623
   6423SM  H16S 8255   6.044   3.814   5.347  0.3614  0.1476  0.2523
   6423SM  H16T 8256   6.210   3.751   5.347  1.4338  1.8722 -1.5467
   6423SM  C17S 8257   6.180   3.962   5.390  0.1894 -0.0339 -0.2932
   6423SM  H17S 8258   6.290   3.976   5.400  0.0219 -0.3171  2.5434
   6423SM  H17T 8259   6.135   4.019   5.473  0.1843  1.7665 -1.4703
   6423SM  C18S 8260   6.147   4.035   5.256  0.2464 -0.6843 -0.2056
   6423SM  H18S 8261   6.210   4.127   5.254 -1.7413  0.7490  0.0687
   6423SM  H18T 8262   6.044   4.073   5.270  0.2688 -1.3221  1.9176
   6423SM  H18U 8263   6.159   3.975   5.163 -1.7849  1.3999 -1.9308
   6423SM   C1F 8264   6.625   3.967   6.905 -0.5423 -0.1733  0.4891
   6423SM    OF 8265   6.685   3.873   6.959 -0.3474 -0.0929 -0.2812
   6423SM   C2F 8266   6.687   4.096   6.859 -0.1831  0.9468  0.4129
   6423SM   H2F 8267   6.715   4.162   6.944  1.0896 -0.1486  0.8823
   6423SM   H2G 8268   6.622   4.158   6.793  1.8396  2.1440 -0.5386
   6423SM   C3F 8269   6.816   4.063   6.778  0.1086 -1.0287  1.1809
   6423SM   H3F 8270   6.882   3.993   6.834 -0.5306 -0.1255  3.1610
   6423SM   H3G 8271   6.875   4.152   6.749 -0.8427 -0.7676 -0.0235
   6423SM   C4F 8272   6.785   3.994   6.646  0.3701  0.5175 -0.2013
   6423SM   H4F 8273   6.704   4.037   6.583 -0.7088  0.5760  1.1714
   6423SM   H4G 8274   6.742   3.892   6.656 -1.9791  1.6311  2.5300
   6423SM   C5F 8275   6.908   3.969   6.562 -0.1695 -0.8213 -0.0619
   6423SM   H5F 8276   6.974   3.893   6.609 -0.2047 -0.7417  0.1153
   6423SM   H5G 8277   6.970   4.061   6.564  0.9942 -1.5974  0.0534
   6423SM   C6F 8278   6.870   3.947   6.417 -0.5850 -0.4075 -0.4311
   6423SM   H6F 8279   6.822   4.039   6.377 -0.3186 -0.0951 -0.0398
   6423SM   H6G 8280   6.786   3.874   6.408 -0.7573 -0.0808 -1.6778
   6423SM   C7F 8281   6.983   3.881   6.338  0.5650 -0.0309  0.2446
   6423SM   H7F 8282   7.080   3.924   6.373  0.3025  0.2600  0.6224
   6423SM   H7G 8283   6.959   3.918   6.236  1.7345 -0.4815 -0.2147
   6423SM   C8F 8284   6.973   3.728   6.336  0.5470  0.7896  0.6123
   6423SM   H8F 8285   6.962   3.676   6.434 -0.5881  1.2958  0.7689
   6423SM   H8G 8286   7.064   3.691   6.284 -0.3217  0.7945 -0.9640
   6423SM   C9F 8287   6.856   3.676   6.245 -0.2571 -0.3232  0.1364
   6423SM   H9F 8288   6.764   3.738   6.244  0.6449  1.0827 -1.3046
   6423SM   H9G 8289   6.825   3.577   6.285 -1.3926  0.7185  1.9631
   6423SM  C10F 8290   6.902   3.674   6.095  0.1609  0.0146 -0.1092
   6423SM  H10F 8291   6.990   3.608   6.080 -1.4215 -2.0164 -0.8857
   6423SM  H10G 8292   6.937   3.777   6.072 -0.2933 -0.2134 -2.0190
   6423SM  C11F 8293   6.798   3.639   5.985  0.0457 -0.1569 -0.2184
   6423SM  H11F 8294   6.744   3.735   5.968 -0.0721 -0.3869 -1.2124
   6423SM  H11G 8295   6.723   3.560   6.005 -1.0014  1.1901  1.3812
   6423SM  C12F 8296   6.858   3.610   5.848  0.1612  0.2785 -0.1138
   6423SM  H12F 8297   6.931   3.526   5.846 -1.1936 -0.9178 -0.9254
   6423SM  H12G 8298   6.905   3.701   5.804 -0.7820  0.1457 -1.4352
   6423SM  C13F 8299   6.758   3.561   5.743 -0.2556  0.0473 -0.1632
   6423SM  H13F 8300   6.678   3.637   5.736  0.6481  1.0353 -0.0387
   6423SM  H13G 8301   6.708   3.467   5.775  3.9220 -2.3489 -0.0050
   6423SM  C14F 8302   6.823   3.536   5.608  0.6824 -0.5198  0.6975
   6423SM  H14F 8303   6.911   3.469   5.622  1.7389  0.2280 -1.8080
   6423SM  H14G 8304   6.852   3.634   5.566 -1.6681  0.5281  1.3435
   6423SM  C15F 8305   6.730   3.471   5.506 -0.1538 -0.5181  0.3859
   6423SM  H15F 8306   6.651   3.541   5.471 -1.4022 -0.3351  3.2774
   6423SM  H15G 8307   6.667   3.398   5.561 -2.2872  1.3805  0.6249
   6423SM  C16F 8308   6.794   3.404   5.381 -0.1061  0.2506 -0.0515
   6423SM  H16F 8309   6.872   3.332   5.413  0.7966  0.9469 -0.6687
   6423SM  H16G 8310   6.844   3.482   5.321 -1.0610 -1.4861 -3.4080
   6423SM  C17F 8311   6.699   3.345   5.282 -0.3138  0.8491 -0.4317
   6423SM  H17F 8312   6.613   3.405   5.245 -2.6823 -1.2359  1.3062
   6423SM  H17G 8313   6.653   3.263   5.341 -1.5373  2.0294  0.3136
   6423SM  C18F 8314   6.756   3.279   5.160  0.0770 -0.2849  0.1913
   6423SM  H18F 8315   6.842   3.213   5.184  1.0822  0.9316  0.0265
   6423SM  H18G 8316   6.793   3.362   5.097 -0.6281 -0.0826  0.0291
   6423SM  C19F 8317   6.657   3.194   5.072 -0.6207  0.2525 -0.8976
   6423SM  H19F 8318   6.588   3.262   5.016  1.6573  0.2900 -3.9607
   6423SM  H19G 8319   6.603   3.124   5.139  0.5197 -0.4583 -0.6845
   6423SM  C20F 8320   6.719   3.103   4.966 -0.1379 -0.2580 -0.3937
   6423SM  H20F 8321   6.654   3.014   4.952  1.1725 -1.2659 -0.2326
   6423SM  H20G 8322   6.823   3.074   4.991  0.1199  1.2474  0.4547
   6423SM  C21F 8323   6.719   3.184   4.833  0.0209  0.5344  0.0675
   6423SM  H21F 8324   6.771   3.282   4.843  1.6750 -0.1475 -1.3269
   6423SM  H21G 8325   6.613   3.204   4.805 -0.7672 -2.2203  0.7811
   6423SM  C22F 8326   6.793   3.108   4.722  0.1229  0.2631 -0.1286
   6423SM  H22F 8327   6.893   3.092   4.767  0.6775 -0.9495 -1.6901
   6423SM  H22G 8328   6.799   3.165   4.627 -3.0456  1.2870  0.1525
   6423SM  C23F 8329   6.731   2.974   4.680  0.3411  0.3009  0.7950
   6423SM  H23F 8330   6.780   2.952   4.583 -0.4774  0.3085  0.3700
   6423SM  H23G 8331   6.620   2.972   4.671  0.2001 -1.1858  2.2488
   6423SM  H23H 8332   6.767   2.895   4.749 -0.3319 -1.1733 -0.4873
   6523SM     N 8333   7.340   5.624   7.285  0.1891 -0.2005 -0.5330
   6523SM   C15 8334   7.447   5.730   7.304  0.0571 -0.4558  0.2630
   6523SM  H15A 8335   7.415   5.820   7.254  0.0599  0.6041  2.0668
   6523SM  H15B 8336   7.546   5.693   7.280  0.3369 -0.4809  1.4102
   6523SM  H15C 8337   7.446   5.754   7.409 -0.5365  0.4141  0.0712
   6523SM   C14 8338   7.365   5.503   7.370 -0.0802  0.3621 -0.6171
   6523SM  H14A 8339   7.332   5.517   7.471  1.2959  0.2000 -0.1174
   6523SM  H14B 8340   7.473   5.491   7.373  0.2076  2.6513 -0.2194
   6523SM  H14C 8341   7.326   5.415   7.320  2.3177 -2.1017  1.4986
   6523SM   C13 8342   7.206   5.668   7.322 -0.2759 -0.2940  0.3423
   6523SM  H13A 8343   7.139   5.595   7.277  1.7202 -1.5619 -0.7264
   6523SM  H13B 8344   7.193   5.770   7.288  1.4930 -0.3718 -0.6815
   6523SM  H13C 8345   7.186   5.676   7.428 -0.3808  2.1692  0.1998
   6523SM   C12 8346   7.346   5.581   7.135 -0.1327  0.1373 -0.5977
   6523SM  H12A 8347   7.437   5.525   7.116 -1.2204 -2.3198  0.9634
   6523SM  H12B 8348   7.345   5.672   7.077 -1.1432 -0.1396 -1.0431
   6523SM   C11 8349   7.230   5.479   7.085 -0.1416  0.2308  0.0186
   6523SM  H11A 8350   7.227   5.497   6.975  0.0181 -0.2316 -0.0618
   6523SM  H11B 8351   7.133   5.513   7.127 -0.4455  0.2882 -0.7227
   6523SM     P 8352   7.164   5.232   7.134 -0.4835  0.2088 -0.2851
   6523SM   O13 8353   7.217   5.122   7.213 -0.2728  0.2894 -0.1923
   6523SM   O14 8354   7.031   5.281   7.170  0.6230 -0.0833 -0.2070
   6523SM   O11 8355   7.141   5.185   6.990  0.4968 -0.7212  0.2184
   6523SM   O12 8356   7.270   5.345   7.124  0.5591 -0.6703  0.5911
   6523SM   C1S 8357   7.252   5.171   6.895  0.4052 -0.7939 -0.4136
   6523SM   H1S 8358   7.292   5.069   6.914  1.3348 -0.1352  1.4403
   6523SM   H1T 8359   7.316   5.261   6.895 -1.6265  0.7547 -2.0916
   6523SM    NF 8360   7.306   5.115   6.658 -0.3676  0.2303 -0.7100
   6523SM   HNF 8361   7.364   5.189   6.626  0.6954 -0.3152 -0.1218
   6523SM   C2S 8362   7.197   5.157   6.749 -0.3912 -0.1231  0.6584
   6523SM   H2S 8363   7.113   5.086   6.737 -0.3652  0.0690 -0.8033
   6523SM   C3S 8364   7.141   5.296   6.713  0.6524  0.3099 -0.0081
   6523SM   H3S 8365   7.222   5.371   6.718  0.9525 -0.0587  0.7100
   6523SM    O3 8366   7.037   5.341   6.798 -0.6664  0.2190  0.6793
   6523SM   HO3 8367   7.048   5.280   6.871  0.4868  1.2558  1.3898
   6523SM   C4S 8368   7.072   5.297   6.577  0.4451 -0.6283 -0.8376
   6523SM   H4S 8369   6.975   5.245   6.573 -1.0306  1.9369 -0.4312
   6523SM   C5S 8370   7.122   5.349   6.467  0.0918 -0.6086  0.0289
   6523SM   H5S 8371   7.225   5.383   6.449 -0.0554  0.0440  0.4253
   6523SM   C6S 8372   7.044   5.341   6.341 -0.1445  0.3273 -0.4769
   6523SM   H6S 8373   7.040   5.427   6.271 -0.5133 -0.7557 -1.8365
   6523SM   H6T 8374   6.937   5.315   6.356 -0.9202  1.3517 -3.4177
   6523SM   C7S 8375   7.083   5.229   6.254 -0.1899  0.2681  0.7441
   6523SM   H7S 8376   7.095   5.129   6.300 -1.5225 -0.3128 -0.0851
   6523SM   H7T 8377   7.184   5.260   6.221 -0.6861  0.9409 -0.2156
   6523SM   C8S 8378   6.991   5.224   6.131 -0.7291  0.4748 -0.0323
   6523SM   H8S 8379   6.988   5.324   6.084  0.1671  0.7160  0.4070
   6523SM   H8T 8380   6.885   5.198   6.153 -0.5344  0.1549  0.5821
   6523SM   C9S 8381   7.049   5.118   6.021 -0.2005  0.6381  0.1061
   6523SM   H9S 8382   7.025   5.015   6.054  1.5293 -0.1064 -0.8154
   6523SM   H9T 8383   7.160   5.124   6.026 -0.0001 -1.1841 -1.1020
   6523SM  C10S 8384   7.004   5.162   5.878  0.1203 -0.3371 -0.5980
   6523SM  H10S 8385   7.044   5.263   5.857 -1.0568  0.1405 -0.6582
   6523SM  H10T 8386   6.897   5.188   5.892  0.7207  1.9204  0.2232
   6523SM  C11S 8387   7.040   5.054   5.779 -0.7559 -0.6102  0.2696
   6523SM  H11S 8388   7.027   4.955   5.828  1.3729 -0.1785  1.8335
   6523SM  H11T 8389   7.147   5.065   5.751 -1.3119 -0.8129 -2.2138
   6523SM  C12S 8390   6.955   5.055   5.650  0.2250  0.3809  0.0829
   6523SM  H12S 8391   6.910   5.155   5.633 -1.9840 -0.5212  0.2984
   6523SM  H12T 8392   6.871   4.982   5.644  0.3474  0.2837 -0.4929
   6523SM  C13S 8393   7.030   5.009   5.524  0.6889 -0.0042  0.2781
   6523SM  H13S 8394   7.135   5.045   5.528  0.1354  1.6607  0.4663
   6523SM  H13T 8395   6.976   5.050   5.436 -0.6431 -3.0147 -0.4308
   6523SM  C14S 8396   7.027   4.860   5.517  0.5124  0.1428 -0.0099
   6523SM  H14S 8397   6.927   4.822   5.550  0.7921 -0.9927 -0.4259
   6523SM  H14T 8398   7.101   4.824   5.592 -0.6358  1.5979  1.9227
   6523SM  C15S 8399   7.075   4.804   5.378  0.0195 -0.5425 -0.7166
   6523SM  H15S 8400   7.136   4.711   5.379  1.6862  0.5070  0.0141
   6523SM  H15T 8401   7.148   4.875   5.334 -1.4498  1.4604 -0.0377
   6523SM  C16S 8402   6.961   4.777   5.279 -0.0468 -0.1730 -1.3290
   6523SM  H16S 8403   6.905   4.873   5.270 -1.6033 -0.6705  1.8350
   6523SM  H16T 8404   6.905   4.696   5.329 -1.2137  1.3064 -0.1121
   6523SM  C17S 8405   7.021   4.737   5.143  0.2141  0.4299 -0.5690
   6523SM  H17S 8406   7.048   4.631   5.164 -0.6848  0.0678 -1.2214
   6523SM  H17T 8407   7.111   4.799   5.124  0.3837 -0.0598 -1.4189
   6523SM  C18S 8408   6.927   4.743   5.026  0.1438  0.0418 -0.2408
   6523SM  H18S 8409   6.975   4.686   4.943  0.2611 -1.5648  0.8932
   6523SM  H18T 8410   6.908   4.848   4.995  0.6492 -0.5988 -3.0253
   6523SM  H18U 8411   6.829   4.693   5.037  0.1920 -0.2604 -1.0822
   6523SM   C1F 8412   7.348   4.991   6.654 -0.0065  0.6538 -0.3224
   6523SM    OF 8413   7.298   4.895   6.718 -0.6881  0.3961  0.0694
   6523SM   C2F 8414   7.467   4.959   6.564 -0.5096 -0.0519  0.3713
   6523SM   H2F 8415   7.510   4.859   6.589 -0.4350  0.0066  0.4793
   6523SM   H2G 8416   7.544   5.038   6.574 -0.0472 -0.5384  0.7735
   6523SM   C3F 8417   7.414   4.946   6.417 -0.4618 -0.1540  0.0406
   6523SM   H3F 8418   7.368   5.042   6.387 -1.3233 -0.9730 -1.4007
   6523SM   H3G 8419   7.339   4.864   6.413 -1.2005  0.4389  1.2768
   6523SM   C4F 8420   7.530   4.917   6.325 -0.2727  0.5800 -0.8278
   6523SM   H4F 8421   7.571   4.816   6.348  1.6061  1.8617  1.9987
   6523SM   H4G 8422   7.614   4.984   6.352  0.9981 -0.9988 -0.6700
   6523SM   C5F 8423   7.500   4.928   6.176 -0.0734 -0.0769  0.0998
   6523SM   H5F 8424   7.600   4.942   6.131  0.2801  1.0497  1.1960
   6523SM   H5G 8425   7.449   5.023   6.147 -1.3318 -0.0307  2.2202
   6523SM   C6F 8426   7.433   4.800   6.129 -0.5137  0.6547 -0.3539
   6523SM   H6F 8427   7.338   4.776   6.182 -0.4664 -0.1085 -0.5996
   6523SM   H6G 8428   7.503   4.728   6.176 -0.9808  2.0000  2.6564
   6523SM   C7F 8429   7.413   4.788   5.981 -0.6343  0.1539  0.6330
   6523SM   H7F 8430   7.513   4.807   5.938 -1.0382  2.1121  0.4592
   6523SM   H7G 8431   7.340   4.862   5.941 -1.3949 -0.4586  0.8447
   6523SM   C8F 8432   7.380   4.646   5.933 -0.0998 -0.0938  0.4197
   6523SM   H8F 8433   7.316   4.595   6.008 -0.6663  0.5317  0.3810
   6523SM   H8G 8434   7.469   4.582   5.917 -0.7737 -1.1370  0.7343
   6523SM   C9F 8435   7.309   4.644   5.796 -0.0409  0.0476 -0.3432
   6523SM   H9F 8436   7.375   4.712   5.738 -0.6939  1.3496  0.4138
   6523SM   H9G 8437   7.209   4.687   5.819  0.0728  0.5292 -0.7413
   6523SM  C10F 8438   7.310   4.509   5.725  0.0134  0.6439  0.6650
   6523SM  H10F 8439   7.255   4.437   5.789  1.3751 -0.3318  0.7758
   6523SM  H10G 8440   7.412   4.469   5.707  0.5816  1.1834  2.4913
   6523SM  C11F 8441   7.242   4.522   5.587  0.0344  0.6107  0.1015
   6523SM  H11F 8442   7.299   4.599   5.530 -1.8019  2.2294  0.3424
   6523SM  H11G 8443   7.135   4.548   5.597 -0.4513 -1.8024  1.9127
   6523SM  C12F 8444   7.261   4.392   5.509  0.2875 -0.9552 -0.5995
   6523SM  H12F 8445   7.216   4.316   5.577 -0.1240  0.0729  0.3184
   6523SM  H12G 8446   7.366   4.365   5.490  0.5318 -0.8395  0.4995
   6523SM  C13F 8447   7.185   4.396   5.381 -0.1570 -0.1497 -0.4827
   6523SM  H13F 8448   7.236   4.464   5.309  2.1384  0.7033  1.7980
   6523SM  H13G 8449   7.086   4.443   5.395  0.1846  1.2953 -2.4398
   6523SM  C14F 8450   7.170   4.262   5.310 -0.1900  0.1495  0.5734
   6523SM  H14F 8451   7.120   4.178   5.364  0.2211  0.4425  1.4309
   6523SM  H14G 8452   7.274   4.231   5.287  0.0433  1.0709  0.3497
   6523SM  C15F 8453   7.098   4.260   5.175  0.2334  0.6858  0.1272
   6523SM  H15F 8454   7.094   4.156   5.137 -0.5593  0.8067 -0.1312
   6523SM  H15G 8455   7.148   4.326   5.101  1.6017  0.5863  0.9365
   6523SM  C16F 8456   6.951   4.298   5.185 -0.1402  0.6270 -0.6449
   6523SM  H16F 8457   6.936   4.404   5.156  0.0413  1.5089  2.2387
   6523SM  H16G 8458   6.921   4.303   5.292 -0.4879  2.1504 -0.8014
   6523SM  C17F 8459   6.849   4.194   5.123 -0.6230  0.1623  0.2113
   6523SM  H17F 8460   6.867   4.087   5.142 -1.6317 -0.1499 -0.4877
   6523SM  H17G 8461   6.854   4.207   5.012 -0.1361 -1.3677  0.0389
   6523SM  C18F 8462   6.705   4.217   5.185  0.8790 -0.5722  0.0618
   6523SM  H18F 8463   6.685   4.322   5.156 -1.6915 -0.3247  2.3109
   6523SM  H18G 8464   6.702   4.211   5.296  0.1088 -0.5475  0.0427
   6523SM  C19F 8465   6.600   4.127   5.118 -0.8768 -0.5451 -0.4223
   6523SM  H19F 8466   6.504   4.166   5.158  0.2085  0.3543  1.4469
   6523SM  H19G 8467   6.632   4.027   5.155  0.0858 -0.3706 -0.7677
   6523SM  C20F 8468   6.611   4.122   4.961  0.4281  0.4732  0.5617
   6523SM  H20F 8469   6.705   4.064   4.948 -0.7591 -0.9572 -2.6692
   6523SM  H20G 8470   6.635   4.226   4.928 -2.0963  1.0472  0.3330
   6523SM  C21F 8471   6.486   4.059   4.897  0.0147  0.2694 -0.5624
   6523SM  H21F 8472   6.394   4.116   4.919 -0.6708 -0.8695 -0.3768
   6523SM  H21G 8473   6.469   3.959   4.943 -0.3572  0.7250  0.3018
   6523SM  C22F 8474   6.491   4.045   4.743  0.6324 -0.3956  0.2246
   6523SM  H22F 8475   6.453   4.139   4.699 -1.6635 -0.5218  1.7304
   6523SM  H22G 8476   6.420   3.964   4.715  1.8219 -1.6599  0.7706
   6523SM  C23F 8477   6.628   3.998   4.690 -0.7812 -0.5990 -0.5369
   6523SM  H23F 8478   6.622   3.993   4.580 -1.5544 -1.1999 -0.4759
   6523SM  H23G 8479   6.642   3.894   4.725 -0.7724  0.1079  1.7361
   6523SM  H23H 8480   6.718   4.057   4.717 -0.6886 -1.0826  0.2471
   6623SM     N 8481   6.400   1.882   7.319  0.1961 -0.0112 -0.2243
   6623SM   C15 8482   6.415   1.733   7.341  0.0354  0.5376  0.1568
   6623SM  H15A 8483   6.513   1.696   7.315 -0.8315 -1.5975 -0.3124
   6623SM  H15B 8484   6.343   1.684   7.277  2.1763 -0.5749 -1.5403
   6623SM  H15C 8485   6.404   1.711   7.446 -0.8441  1.7327  0.3308
   6623SM   C14 8486   6.290   1.931   7.402 -0.5189 -0.0535  0.3032
   6623SM  H14A 8487   6.198   1.897   7.356 -1.1913  2.1353 -0.0551
   6623SM  H14B 8488   6.294   2.038   7.395 -1.7206 -0.1061 -2.5320
   6623SM  H14C 8489   6.302   1.911   7.507  1.0702 -1.0220 -0.0307
   6623SM   C13 8490   6.515   1.952   7.382 -0.4219 -0.0372  0.0326
   6623SM  H13A 8491   6.514   1.934   7.488  0.2091  0.0018  0.0493
   6623SM  H13B 8492   6.502   2.058   7.370 -0.3632 -0.1053 -0.6910
   6623SM  H13C 8493   6.612   1.930   7.337 -0.1407  0.7420  0.2410
   6623SM   C12 8494   6.397   1.924   7.170 -0.0612  0.2009 -0.2087
   6623SM  H12A 8495   6.495   1.908   7.128  0.5783 -0.0405  1.2955
   6623SM  H12B 8496   6.397   2.032   7.174  1.3955  0.2202 -0.2316
   6623SM   C11 8497   6.281   1.877   7.086 -0.0417 -0.5654  0.1639
   6623SM  H11A 8498   6.291   1.766   7.084 -1.6156 -0.7987  2.0228
   6623SM  H11B 8499   6.296   1.910   6.981  0.6246 -0.7228  0.2043
   6623SM     P 8500   6.108   2.057   7.112  0.4089  0.0705 -0.1596
   6623SM   O13 8501   6.003   2.106   7.204 -0.3440  0.0785 -0.2450
   6623SM   O14 8502   6.221   2.145   7.098  0.0561  0.0878 -0.8444
   6623SM   O11 8503   6.044   2.035   6.972  0.0630  0.2897 -0.4410
   6623SM   O12 8504   6.153   1.914   7.150  0.6651  0.4500  0.3781
   6623SM   C1S 8505   5.942   1.936   6.958 -0.3149  0.3048  0.4468
   6623SM   H1S 8506   5.869   1.952   7.040 -1.6889  0.8888 -0.8364
   6623SM   H1T 8507   5.987   1.835   6.970  0.7758  0.4935 -1.6114
   6623SM    NF 8508   5.771   1.825   6.830 -0.7823  0.4215 -0.6623
   6623SM   HNF 8509   5.778   1.746   6.770 -0.3637 -0.6645  0.7496
   6623SM   C2S 8510   5.867   1.931   6.817 -0.1866  0.5753 -0.2974
   6623SM   H2S 8511   5.811   2.026   6.808  1.2074  1.4553  0.0188
   6623SM   C3S 8512   5.967   1.914   6.701 -0.0091 -0.5019 -0.0251
   6623SM   H3S 8513   6.015   1.815   6.719  0.2911 -0.7969 -2.2365
   6623SM    O3 8514   6.065   2.021   6.697  0.1969 -0.7876  0.4889
   6623SM   HO3 8515   6.043   2.062   6.781  0.6552  0.9292 -0.1924
   6623SM   C4S 8516   5.889   1.904   6.569  0.5459  0.2744 -0.4223
   6623SM   H4S 8517   5.848   2.002   6.543 -0.6884 -0.2999 -0.7385
   6623SM   C5S 8518   5.867   1.797   6.498 -0.2227  0.1766 -0.6768
   6623SM   H5S 8519   5.925   1.709   6.530 -1.4839 -0.0262  1.2279
   6623SM   C6S 8520   5.782   1.787   6.371 -0.3900  0.3437 -0.2431
   6623SM   H6S 8521   5.696   1.719   6.387  0.7117 -1.3202 -1.1653
   6623SM   H6T 8522   5.838   1.746   6.285  1.2924  2.9376 -0.4974
   6623SM   C7S 8523   5.730   1.919   6.318  0.4446 -0.0596 -0.1569
   6623SM   H7S 8524   5.809   1.996   6.312 -1.5550  2.0669 -0.8156
   6623SM   H7T 8525   5.649   1.956   6.384  0.8433  1.1248 -0.3070
   6623SM   C8S 8526   5.682   1.897   6.175 -1.0651  0.0443  0.1552
   6623SM   H8S 8527   5.625   1.988   6.147  0.3335  0.6133 -0.9957
   6623SM   H8T 8528   5.608   1.815   6.180 -1.4845  0.4984  2.9519
   6623SM   C9S 8529   5.794   1.867   6.067 -0.1231  0.2403 -0.9377
   6623SM   H9S 8530   5.813   1.758   6.057  0.3573  0.4358 -2.3892
   6623SM   H9T 8531   5.882   1.925   6.104 -0.3032 -0.7235  1.1499
   6623SM  C10S 8532   5.758   1.921   5.926 -0.3093 -0.2133 -1.0036
   6623SM  H10S 8533   5.760   2.032   5.923  1.0012 -0.1651  0.3082
   6623SM  H10T 8534   5.658   1.887   5.891 -0.1503  0.6884 -2.4171
   6623SM  C11S 8535   5.860   1.872   5.820  0.4987  0.8769  0.1249
   6623SM  H11S 8536   5.954   1.822   5.851  1.0938  0.6641 -1.9147
   6623SM  H11T 8537   5.887   1.968   5.771  3.1979  0.9987  1.6454
   6623SM  C12S 8538   5.793   1.774   5.726 -1.2825 -0.0361 -0.2383
   6623SM  H12S 8539   5.855   1.742   5.640 -0.5227 -3.5633  1.3944
   6623SM  H12T 8540   5.700   1.807   5.677 -1.4937 -1.9342 -1.1970
   6623SM  C13S 8541   5.760   1.638   5.788  0.2188 -0.0854 -0.8903
   6623SM  H13S 8542   5.687   1.587   5.722 -2.3676 -0.1162  1.7759
   6623SM  H13T 8543   5.715   1.635   5.890  1.5736 -0.9421 -0.2872
   6623SM  C14S 8544   5.883   1.542   5.806  0.0293  0.4208  0.1885
   6623SM  H14S 8545   5.942   1.561   5.898  0.2942  0.5526 -0.0084
   6623SM  H14T 8546   5.944   1.555   5.714  0.3488 -1.9967 -0.0053
   6623SM  C15S 8547   5.847   1.390   5.803 -1.0988 -0.0333  0.4613
   6623SM  H15S 8548   5.764   1.371   5.875 -0.1966  0.6370  1.7235
   6623SM  H15T 8549   5.945   1.346   5.830 -2.1400 -2.2671  0.8206
   6623SM  C16S 8550   5.811   1.331   5.670 -0.6811 -0.4821  0.1612
   6623SM  H16S 8551   5.897   1.353   5.603 -0.5505  0.1301  0.5240
   6623SM  H16T 8552   5.716   1.369   5.629 -1.3073 -1.4546  0.6542
   6623SM  C17S 8553   5.792   1.179   5.681  0.3267 -0.2675 -0.7634
   6623SM  H17S 8554   5.752   1.162   5.783  0.8133 -2.3789 -0.8780
   6623SM  H17T 8555   5.887   1.121   5.682 -0.5712 -1.8233  0.8700
   6623SM  C18S 8556   5.697   1.121   5.578  0.2879 -0.1863 -0.1223
   6623SM  H18S 8557   5.751   1.119   5.481 -1.4354 -0.2735 -1.1343
   6623SM  H18T 8558   5.600   1.175   5.567 -0.3853 -0.9900  1.4672
   6623SM  H18U 8559   5.671   1.014   5.596  3.8803 -1.3443 -1.0577
   6623SM   C1F 8560   5.666   1.830   6.916  0.0861  0.5904  1.0339
   6623SM    OF 8561   5.632   1.941   6.966  0.0315  0.1944  0.0587
   6623SM   C2F 8562   5.592   1.705   6.947  0.1081  0.0675  0.1334
   6623SM   H2F 8563   5.545   1.714   7.047  2.6668  0.2212  1.4148
   6623SM   H2G 8564   5.669   1.626   6.961  0.1833  0.0553 -0.3366
   6623SM   C3F 8565   5.487   1.667   6.834  0.6357  0.3074 -0.0409
   6623SM   H3F 8566   5.406   1.604   6.875 -0.9840  0.3093 -2.9766
   6623SM   H3G 8567   5.551   1.620   6.756  0.0403 -0.0875 -0.2967
   6623SM   C4F 8568   5.419   1.780   6.767  0.3397  0.2747 -0.1148
   6623SM   H4F 8569   5.486   1.845   6.706  0.9332  1.0940  1.3503
   6623SM   H4G 8570   5.371   1.834   6.852  0.8550  1.6831 -0.6934
   6623SM   C5F 8571   5.317   1.728   6.665 -0.5860  0.4408 -0.3747
   6623SM   H5F 8572   5.246   1.810   6.641  0.4702  0.9606 -1.8598
   6623SM   H5G 8573   5.255   1.646   6.707 -3.1643  2.2543 -0.3717
   6623SM   C6F 8574   5.380   1.712   6.525  0.2376  0.5479 -0.1373
   6623SM   H6F 8575   5.479   1.666   6.546  0.5911  1.3701  0.0100
   6623SM   H6G 8576   5.407   1.813   6.487  1.1123  0.4606  0.2284
   6623SM   C7F 8577   5.310   1.611   6.432  0.2507  0.8544 -0.1870
   6623SM   H7F 8578   5.281   1.524   6.494  2.6476  0.2564  0.2103
   6623SM   H7G 8579   5.381   1.583   6.352  1.1429 -0.4881  1.0088
   6623SM   C8F 8580   5.184   1.675   6.371 -0.4065 -0.3984  0.5835
   6623SM   H8F 8581   5.220   1.766   6.319  0.2580 -0.7748  0.3704
   6623SM   H8G 8582   5.109   1.707   6.446 -0.6732  0.0697  0.1196
   6623SM   C9F 8583   5.117   1.579   6.260  0.0785 -0.2128 -1.0676
   6623SM   H9F 8584   5.026   1.633   6.227 -0.0740 -0.6302 -1.3384
   6623SM   H9G 8585   5.084   1.485   6.310  0.3836 -0.9874 -2.3019
   6623SM  C10F 8586   5.200   1.544   6.142 -0.5323 -0.2597  0.0782
   6623SM  H10F 8587   5.140   1.482   6.072 -1.4769  0.3274  0.3590
   6623SM  H10G 8588   5.279   1.469   6.165 -1.9052 -0.9338  3.0980
   6623SM  C11F 8589   5.245   1.669   6.061  0.1360 -0.0371  0.1382
   6623SM  H11F 8590   5.299   1.733   6.135 -0.2787 -1.3526  1.6564
   6623SM  H11G 8591   5.153   1.716   6.022 -0.6245 -0.8282  0.9348
   6623SM  C12F 8592   5.338   1.635   5.945 -0.3936  0.2683 -0.0124
   6623SM  H12F 8593   5.297   1.569   5.865  1.3876  0.1035 -0.8560
   6623SM  H12G 8594   5.424   1.580   5.989 -1.6781 -1.1936  0.7565
   6623SM  C13F 8595   5.394   1.766   5.880  0.0175  0.0771  0.0272
   6623SM  H13F 8596   5.466   1.727   5.804  0.0976 -2.5257  1.3217
   6623SM  H13G 8597   5.437   1.830   5.959 -0.3137  0.4479 -0.0900
   6623SM  C14F 8598   5.296   1.852   5.808 -0.5063 -0.4086  0.0413
   6623SM  H14F 8599   5.348   1.924   5.741  0.7823 -2.0537 -0.7957
   6623SM  H14G 8600   5.240   1.907   5.888 -1.2375 -2.5251  1.0493
   6623SM  C15F 8601   5.195   1.778   5.726  0.1204  0.2396 -1.0386
   6623SM  H15F 8602   5.131   1.712   5.788 -0.2342  1.0790 -0.4983
   6623SM  H15G 8603   5.225   1.720   5.636 -0.6728  1.7603 -2.3311
   6623SM  C16F 8604   5.089   1.873   5.671 -0.3948  0.1410 -0.4165
   6623SM  H16F 8605   5.148   1.955   5.624 -0.5700  0.1997 -0.5355
   6623SM  H16G 8606   5.024   1.919   5.749  0.0425  1.3789 -0.7589
   6623SM  C17F 8607   4.993   1.799   5.584 -0.1607 -0.1298 -0.7897
   6623SM  H17F 8608   4.932   1.731   5.647 -1.4246  1.2469 -0.4777
   6623SM  H17G 8609   5.057   1.742   5.513  0.0873 -1.0960  0.1846
   6623SM  C18F 8610   4.896   1.883   5.509  0.4150  0.0216  0.2533
   6623SM  H18F 8611   4.847   1.824   5.429 -1.0319  0.9687  0.4038
   6623SM  H18G 8612   4.946   1.967   5.458  1.0364 -2.1348 -3.0055
   6623SM  C19F 8613   4.788   1.941   5.603 -0.0273  0.1539  0.7174
   6623SM  H19F 8614   4.841   2.001   5.680  2.2376 -1.9232  0.8783
   6623SM  H19G 8615   4.743   1.853   5.654  1.2093 -0.7423  0.2881
   6623SM  C20F 8616   4.684   2.020   5.519 -0.2182 -0.0122 -0.1286
   6623SM  H20F 8617   4.644   1.937   5.456 -0.4597  1.2919 -1.7733
   6623SM  H20G 8618   4.732   2.085   5.442  0.1514  0.1898  0.2714
   6623SM  C21F 8619   4.557   2.078   5.590 -0.5353  0.1744 -0.0248
   6623SM  H21F 8620   4.594   2.156   5.659 -0.6754  0.7116 -0.5403
   6623SM  H21G 8621   4.498   2.010   5.655 -2.8231 -0.3486 -2.4411
   6623SM  C22F 8622   4.454   2.151   5.497 -0.3550  0.1063  0.2183
   6623SM  H22F 8623   4.529   2.211   5.441 -1.6860  0.8273 -0.8554
   6623SM  H22G 8624   4.385   2.215   5.556  2.3465  2.6953  0.8109
   6623SM  C23F 8625   4.380   2.047   5.407  0.0148 -0.2798  0.0207
   6623SM  H23F 8626   4.449   2.025   5.322  1.0249  0.4880  0.6238
   6623SM  H23G 8627   4.286   2.096   5.373  1.6897  3.5942  0.4994
   6623SM  H23H 8628   4.358   1.952   5.460 -1.6058  0.7911  1.3686
   6723SM     N 8629   4.687   6.145   7.240  0.0050 -0.4716 -0.0780
   6723SM   C15 8630   4.826   6.126   7.281  0.2626 -0.9867  0.4511
   6723SM  H15A 8631   4.874   6.222   7.265  1.2955 -1.5390  0.1561
   6723SM  H15B 8632   4.874   6.060   7.211 -0.4172  0.5787 -1.5737
   6723SM  H15C 8633   4.833   6.094   7.384 -3.1370  0.5563  1.3202
   6723SM   C14 8634   4.629   6.010   7.248  0.8203  0.5490 -0.2068
   6723SM  H14A 8635   4.660   5.966   7.342 -1.8341 -1.0527  0.0228
   6723SM  H14B 8636   4.665   5.945   7.169 -0.7465 -0.7086  0.0529
   6723SM  H14C 8637   4.522   6.018   7.242  0.7354  3.1950  2.6233
   6723SM   C13 8638   4.612   6.236   7.333 -0.0261  0.1884  0.0368
   6723SM  H13A 8639   4.598   6.189   7.430 -0.5709 -1.2902 -0.7266
   6723SM  H13B 8640   4.513   6.249   7.294 -0.2359 -3.2695 -0.8950
   6723SM  H13C 8641   4.669   6.328   7.341  2.7686 -1.2929 -1.1849
   6723SM   C12 8642   4.682   6.205   7.098 -0.1705  0.0468 -0.5721
   6723SM  H12A 8643   4.742   6.139   7.038  1.6964 -1.3512  2.5890
   6723SM  H12B 8644   4.736   6.299   7.098  0.2313 -0.1796 -0.3102
   6723SM   C11 8645   4.546   6.223   7.030 -0.6403  0.6528  0.0594
   6723SM  H11A 8646   4.483   6.132   7.032 -1.6550  1.3610  1.2304
   6723SM  H11B 8647   4.571   6.230   6.922  1.7548 -2.3837  0.2871
   6723SM     P 8648   4.514   6.471   7.052 -0.1393 -0.0435 -0.0717
   6723SM   O13 8649   4.424   6.566   7.124 -0.5180  0.5749 -0.6508
   6723SM   O14 8650   4.662   6.489   7.053  0.1546  0.6001 -0.4840
   6723SM   O11 8651   4.474   6.481   6.901 -0.0843 -0.1752 -0.4249
   6723SM   O12 8652   4.467   6.327   7.085  0.3605 -0.6087 -0.4883
   6723SM   C1S 8653   4.332   6.460   6.868 -0.0759  0.4750 -0.7035
   6723SM   H1S 8654   4.254   6.531   6.904 -0.9389  0.5417 -2.5956
   6723SM   H1T 8655   4.307   6.357   6.902  1.3338 -0.1283 -1.3943
   6723SM    NF 8656   4.184   6.421   6.683  0.6634  0.1717 -1.1690
   6723SM   HNF 8657   4.146   6.329   6.696  2.9898 -0.6849  0.2305
   6723SM   C2S 8658   4.324   6.437   6.714 -0.5203 -0.4253 -0.4910
   6723SM   H2S 8659   4.357   6.531   6.665  1.8674 -0.9525 -0.0237
   6723SM   C3S 8660   4.411   6.317   6.660 -0.2972  0.5032 -0.5725
   6723SM   H3S 8661   4.374   6.225   6.710  0.6591 -1.1465 -2.7235
   6723SM    O3 8662   4.550   6.330   6.689  0.5069 -0.1227 -0.1853
   6723SM   HO3 8663   4.544   6.398   6.756 -1.2698 -0.0480 -0.3558
   6723SM   C4S 8664   4.399   6.295   6.512 -0.0561  0.1095 -0.4172
   6723SM   H4S 8665   4.431   6.385   6.459 -0.5732 -1.5090 -3.7386
   6723SM   C5S 8666   4.356   6.185   6.449  0.1399 -0.6723 -0.1202
   6723SM   H5S 8667   4.323   6.100   6.510  2.0588 -1.0791  0.4357
   6723SM   C6S 8668   4.353   6.179   6.293 -0.3065 -0.0553 -0.6703
   6723SM   H6S 8669   4.399   6.084   6.255  0.4273  0.3240 -0.7483
   6723SM   H6T 8670   4.397   6.267   6.242  0.5456  0.4393  0.8416
   6723SM   C7S 8671   4.200   6.169   6.258 -0.3025  0.2428  0.3042
   6723SM   H7S 8672   4.154   6.267   6.283  4.1237  2.2423  1.6595
   6723SM   H7T 8673   4.161   6.085   6.320 -0.0650  0.4052  0.6792
   6723SM   C8S 8674   4.168   6.142   6.103  0.3898 -0.0281 -0.3950
   6723SM   H8S 8675   4.059   6.125   6.114  0.1438  1.3471 -0.5164
   6723SM   H8T 8676   4.222   6.050   6.075  0.4833  0.0422 -0.4466
   6723SM   C9S 8677   4.197   6.257   6.015  0.1975 -0.1512 -0.4200
   6723SM   H9S 8678   4.303   6.288   6.004 -0.6134  1.8920 -3.5023
   6723SM   H9T 8679   4.139   6.347   6.044 -3.4954 -2.3628 -0.2022
   6723SM  C10S 8680   4.147   6.227   5.874 -0.4112  0.2227  0.7488
   6723SM  H10S 8681   4.131   6.318   5.813  0.3789 -1.1908 -1.6973
   6723SM  H10T 8682   4.049   6.174   5.879 -1.0550  1.3547  0.3725
   6723SM  C11S 8683   4.253   6.141   5.794  0.1749 -0.3107  0.3396
   6723SM  H11S 8684   4.308   6.085   5.873  1.1480  1.2837  0.8324
   6723SM  H11T 8685   4.332   6.207   5.752  1.1475 -0.3129  2.0673
   6723SM  C12S 8686   4.186   6.047   5.694  0.3882  0.2857  0.0496
   6723SM  H12S 8687   4.126   5.969   5.746 -0.4527  1.0814  0.2951
   6723SM  H12T 8688   4.267   5.992   5.641  0.1594 -0.1637  0.1637
   6723SM  C13S 8689   4.107   6.126   5.591 -0.3121 -0.2285  1.3470
   6723SM  H13S 8690   4.165   6.199   5.529 -0.6948 -2.1423 -1.4678
   6723SM  H13T 8691   4.025   6.180   5.641 -1.0771 -3.1664  3.5568
   6723SM  C14S 8692   4.036   6.046   5.477  0.0251 -0.3688  0.1269
   6723SM  H14S 8693   3.963   5.971   5.515 -0.6410 -1.7915 -3.4949
   6723SM  H14T 8694   4.104   5.993   5.407 -1.9045 -1.1737 -1.2513
   6723SM  C15S 8695   3.957   6.147   5.399 -0.1989  0.4868  0.5149
   6723SM  H15S 8696   4.019   6.239   5.395  0.0263  0.3333  0.4999
   6723SM  H15T 8697   3.865   6.175   5.455  0.0751  3.3711 -0.3003
   6723SM  C16S 8698   3.940   6.109   5.250  0.0730 -0.1591  0.1680
   6723SM  H16S 8699   3.872   6.021   5.248  0.2417 -0.2956  0.4001
   6723SM  H16T 8700   4.031   6.066   5.202 -0.1343  1.3305 -1.6639
   6723SM  C17S 8701   3.885   6.217   5.158  0.0772  0.7437 -0.2272
   6723SM  H17S 8702   3.943   6.312   5.157 -0.9372  1.3756 -0.5335
   6723SM  H17T 8703   3.793   6.246   5.213  1.7905  1.6870  2.3088
   6723SM  C18S 8704   3.851   6.177   5.015 -1.0776  0.5468  0.1561
   6723SM  H18S 8705   3.940   6.158   4.951  0.0997  0.4182  1.7744
   6723SM  H18T 8706   3.795   6.261   4.969  0.3171  0.9574 -0.8531
   6723SM  H18U 8707   3.787   6.087   5.017 -0.1630 -0.1165  1.6150
   6723SM   C1F 8708   4.100   6.523   6.685  0.1987 -0.0553  0.5651
   6723SM    OF 8709   4.141   6.637   6.668  0.2475 -0.6386  0.4946
   6723SM   C2F 8710   3.951   6.489   6.708 -0.1507 -0.4458 -0.1550
   6723SM   H2F 8711   3.902   6.557   6.781  0.2162 -1.4867  1.0974
   6723SM   H2G 8712   3.947   6.383   6.741  1.8134 -0.3419  0.5493
   6723SM   C3F 8713   3.868   6.507   6.570 -0.1154 -0.8415 -0.3101
   6723SM   H3F 8714   3.870   6.614   6.543 -4.0786 -1.1822 -2.6617
   6723SM   H3G 8715   3.759   6.491   6.584 -0.4147 -0.0365 -1.5185
   6723SM   C4F 8716   3.914   6.423   6.449 -0.6775 -0.0870 -0.4328
   6723SM   H4F 8717   3.921   6.316   6.476 -1.4169 -0.5587 -2.0266
   6723SM   H4G 8718   4.017   6.454   6.422 -1.0760  2.3035  0.4891
   6723SM   C5F 8719   3.821   6.448   6.326 -0.2365 -0.7524 -0.2739
   6723SM   H5F 8720   3.847   6.551   6.292 -0.2560 -0.7063 -0.1515
   6723SM   H5G 8721   3.715   6.452   6.357 -0.5107  2.1923 -1.2249
   6723SM   C6F 8722   3.848   6.342   6.221  0.0294  0.3248 -0.0767
   6723SM   H6F 8723   3.853   6.245   6.276  2.7289 -0.3297 -1.3244
   6723SM   H6G 8724   3.949   6.359   6.178 -0.2290 -1.5948 -1.5891
   6723SM   C7F 8725   3.738   6.343   6.109  0.2737 -0.5736 -0.0980
   6723SM   H7F 8726   3.635   6.321   6.142  0.6218  0.9578  2.2269
   6723SM   H7G 8727   3.779   6.259   6.047  0.4577 -0.1956 -0.5003
   6723SM   C8F 8728   3.739   6.471   6.020 -0.0256 -0.3396 -0.2177
   6723SM   H8F 8729   3.838   6.517   6.002  0.2064 -1.2091 -1.2363
   6723SM   H8G 8730   3.676   6.551   6.066  0.1447  0.1294 -0.7823
   6723SM   C9F 8731   3.692   6.444   5.877  0.1748  0.0986  0.3168
   6723SM   H9F 8732   3.604   6.511   5.863 -0.9635 -0.9872  1.9946
   6723SM   H9G 8733   3.663   6.338   5.864  0.0794  0.0180  1.1410
   6723SM  C10F 8734   3.778   6.477   5.754  0.6015 -0.4875  0.6720
   6723SM  H10F 8735   3.870   6.415   5.759  1.3777  0.3684 -1.6951
   6723SM  H10G 8736   3.814   6.582   5.746  0.3538 -0.3961  0.7613
   6723SM  C11F 8737   3.720   6.447   5.613 -0.0514  0.8847  0.1249
   6723SM  H11F 8738   3.618   6.492   5.606 -0.0505  1.4035  2.5184
   6723SM  H11G 8739   3.712   6.337   5.604  0.5904  0.4763  3.3166
   6723SM  C12F 8740   3.804   6.500   5.501 -0.3548  0.0174 -0.1685
   6723SM  H12F 8741   3.890   6.430   5.495  0.0458  0.5266 -0.4247
   6723SM  H12G 8742   3.836   6.604   5.520  2.4501 -0.5952 -1.0719
   6723SM  C13F 8743   3.732   6.508   5.372 -0.0628 -0.1638  0.1096
   6723SM  H13F 8744   3.639   6.567   5.392  1.1760  1.3220  1.8255
   6723SM  H13G 8745   3.696   6.408   5.339  0.1297 -0.3847  0.5697
   6723SM  C14F 8746   3.818   6.592   5.268  0.7698  0.0934 -0.3517
   6723SM  H14F 8747   3.923   6.555   5.274  0.8846  0.3345 -0.8991
   6723SM  H14G 8748   3.808   6.701   5.282  1.3124  0.5458 -2.9730
   6723SM  C15F 8749   3.763   6.567   5.124  0.0287 -0.0063 -0.4020
   6723SM  H15F 8750   3.752   6.459   5.102  0.9730 -0.0916 -0.4984
   6723SM  H15G 8751   3.838   6.613   5.055  1.7417 -0.4676  1.0809
   6723SM  C16F 8752   3.619   6.619   5.105  0.7827 -0.7121 -0.1235
   6723SM  H16F 8753   3.630   6.729   5.118  0.3107 -0.3403 -2.4270
   6723SM  H16G 8754   3.545   6.572   5.173  1.3651 -3.5935 -1.3487
   6723SM  C17F 8755   3.568   6.603   4.966  0.5042  0.5886 -0.1293
   6723SM  H17F 8756   3.572   6.494   4.943  0.4490  0.5857 -0.1242
   6723SM  H17G 8757   3.643   6.644   4.894  1.4020 -0.1663  0.3477
   6723SM  C18F 8758   3.435   6.670   4.945 -0.1677 -0.0278 -0.4989
   6723SM  H18F 8759   3.441   6.779   4.968 -0.4554 -0.2877  0.8803
   6723SM  H18G 8760   3.354   6.625   5.005  0.7907  0.5906  1.3206
   6723SM  C19F 8761   3.394   6.676   4.797  0.0425 -0.3283  0.0182
   6723SM  H19F 8762   3.484   6.710   4.741  0.1983 -2.9725 -1.4841
   6723SM  H19G 8763   3.311   6.751   4.795 -0.2032 -0.6105 -0.4976
   6723SM  C20F 8764   3.358   6.547   4.735  0.7362 -0.0170 -0.3223
   6723SM  H20F 8765   3.278   6.502   4.799 -0.1143  0.0311 -1.3185
   6723SM  H20G 8766   3.447   6.482   4.723  1.4636  1.1632 -1.5646
   6723SM  C21F 8767   3.299   6.566   4.594 -0.1443 -0.0762 -0.5237
   6723SM  H21F 8768   3.374   6.610   4.526  1.5354  0.8841  1.8289
   6723SM  H21G 8769   3.221   6.644   4.609  0.2921  0.0811  1.1428
   6723SM  C22F 8770   3.230   6.440   4.525  0.3417 -0.2064 -0.4366
   6723SM  H22F 8771   3.182   6.388   4.610 -1.0094  0.7276 -0.5983
   6723SM  H22G 8772   3.302   6.365   4.486 -0.2556 -1.7210  1.2537
   6723SM  C23F 8773   3.129   6.489   4.418 -0.6770  0.7441  0.4843
   6723SM  H23F 8774   3.067   6.574   4.451  0.4526  1.3706  1.0707
   6723SM  H23G 8775   3.062   6.402   4.402  0.9822 -0.3075 -1.1848
   6723SM  H23H 8776   3.174   6.519   4.321 -1.9316  0.5598 -0.1734
   6823SM     N 8777   4.968   2.493   7.795  0.2697  0.1561  0.1900
   6823SM   C15 8778   4.969   2.526   7.936 -0.3070  0.1555  0.0881
   6823SM  H15A 8779   5.022   2.460   8.002  0.0526  0.3005 -0.0543
   6823SM  H15B 8780   4.869   2.525   7.978 -0.3168  1.1969  0.1164
   6823SM  H15C 8781   4.995   2.630   7.952 -0.2052  0.0225  0.8264
   6823SM   C14 8782   5.110   2.507   7.752 -0.3650 -0.6899  0.2050
   6823SM  H14A 8783   5.148   2.604   7.780 -2.4294  0.2553 -0.0873
   6823SM  H14B 8784   5.127   2.501   7.645 -1.0782  1.1888 -0.0568
   6823SM  H14C 8785   5.177   2.444   7.809  0.5146  0.0524  0.0097
   6823SM   C13 8786   4.925   2.346   7.778 -0.0067 -0.3378  0.2724
   6823SM  H13A 8787   4.820   2.330   7.796 -0.3110  0.4655 -0.6961
   6823SM  H13B 8788   4.970   2.287   7.857  1.2761 -0.3828 -0.4626
   6823SM  H13C 8789   4.937   2.313   7.676  1.5461 -1.0895  0.6777
   6823SM   C12 8790   4.880   2.585   7.710 -0.3196 -0.0376  0.0991
   6823SM  H12A 8791   4.892   2.546   7.610 -0.0845  0.1978  0.0335
   6823SM  H12B 8792   4.915   2.686   7.726 -0.9952 -0.1374  2.6483
   6823SM   C11 8793   4.729   2.589   7.734  0.9260  0.0454 -0.7461
   6823SM  H11A 8794   4.675   2.669   7.678 -0.5476  2.4055  3.5965
   6823SM  H11B 8795   4.699   2.606   7.839  1.3695 -2.8948 -0.0574
   6823SM     P 8796   4.635   2.397   7.567  0.4126  0.1870  0.2784
   6823SM   O13 8797   4.724   2.280   7.562  0.2488 -0.2175 -0.2836
   6823SM   O14 8798   4.487   2.386   7.544  0.4324 -0.4339  1.2203
   6823SM   O11 8799   4.691   2.503   7.467 -0.6221  0.5664 -0.4300
   6823SM   O12 8800   4.663   2.464   7.704  0.3502 -0.3647  0.4965
   6823SM   C1S 8801   4.694   2.490   7.324 -0.5704  0.1068 -0.4077
   6823SM   H1S 8802   4.685   2.383   7.296 -2.8011 -0.8255  3.1683
   6823SM   H1T 8803   4.788   2.531   7.282 -1.2526  2.6367  0.3339
   6823SM    NF 8804   4.553   2.513   7.118  0.3641  0.0177 -0.2839
   6823SM   HNF 8805   4.599   2.573   7.052 -0.4864 -0.1269 -1.0321
   6823SM   C2S 8806   4.566   2.555   7.256  0.5270  0.2059 -0.2174
   6823SM   H2S 8807   4.477   2.514   7.309  1.3136  0.0518  1.0245
   6823SM   C3S 8808   4.575   2.707   7.279 -0.0720  0.1295  0.2048
   6823SM   H3S 8809   4.668   2.752   7.237  0.0276 -1.6945 -1.7423
   6823SM    O3 8810   4.591   2.751   7.410  0.0739 -0.3163 -0.2975
   6823SM   HO3 8811   4.624   2.672   7.454  1.1224 -0.8565 -1.9696
   6823SM   C4S 8812   4.455   2.779   7.210 -0.2540  0.0174  0.3296
   6823SM   H4S 8813   4.483   2.807   7.107  0.8043  1.1909  0.9102
   6823SM   C5S 8814   4.341   2.823   7.260  0.2451  0.2156 -0.5530
   6823SM   H5S 8815   4.331   2.804   7.368  0.9095  2.3258 -0.0700
   6823SM   C6S 8816   4.231   2.895   7.194 -0.3215  0.7991  0.2222
   6823SM   H6S 8817   4.199   2.979   7.258 -1.0625 -0.8132  2.0656
   6823SM   H6T 8818   4.142   2.828   7.198 -0.1383  0.5428  0.0996
   6823SM   C7S 8819   4.260   2.947   7.049 -0.8553  0.5901 -0.7756
   6823SM   H7S 8820   4.297   2.860   6.990 -0.4039  2.0744 -2.7849
   6823SM   H7T 8821   4.342   3.019   7.033  2.2340 -2.7779 -1.4689
   6823SM   C8S 8822   4.142   3.024   6.984 -0.5856 -0.1631 -0.0476
   6823SM   H8S 8823   4.120   3.119   7.036 -0.4255 -0.6096  0.8642
   6823SM   H8T 8824   4.053   2.959   6.994 -1.0585  0.3422 -0.9053
   6823SM   C9S 8825   4.168   3.054   6.837 -0.1623  0.0153 -0.2164
   6823SM   H9S 8826   4.180   2.959   6.780 -0.3205  0.4749 -1.0211
   6823SM   H9T 8827   4.271   3.093   6.823 -0.0514 -0.1273  0.1718
   6823SM  C10S 8828   4.067   3.152   6.768  0.3190 -0.4933  0.0905
   6823SM  H10S 8829   4.081   3.251   6.815  0.9573 -1.2710  1.6119
   6823SM  H10T 8830   3.971   3.111   6.804  0.3026  0.6881  1.4693
   6823SM  C11S 8831   4.072   3.148   6.612  0.5255  0.0682  0.1725
   6823SM  H11S 8832   4.054   3.039   6.604 -0.6213 -0.0316  2.9044
   6823SM  H11T 8833   4.167   3.181   6.564  0.3512 -1.8665 -1.6293
   6823SM  C12S 8834   3.954   3.218   6.541 -0.5765  0.5659 -0.3819
   6823SM  H12S 8835   3.967   3.327   6.559  0.4468  0.1633  1.5673
   6823SM  H12T 8836   3.858   3.182   6.586  0.1262  0.6691  1.2777
   6823SM  C13S 8837   3.952   3.185   6.388  0.1994 -0.3878  0.4496
   6823SM  H13S 8838   3.925   3.078   6.376 -0.3530 -0.1015 -1.1881
   6823SM  H13T 8839   4.054   3.184   6.345 -0.8535 -1.8162 -2.2665
   6823SM  C14S 8840   3.870   3.281   6.300  0.6416 -0.1574 -0.1151
   6823SM  H14S 8841   3.902   3.387   6.303  0.1482 -0.0233  0.5534
   6823SM  H14T 8842   3.769   3.274   6.346  0.6959  1.2688  0.2501
   6823SM  C15S 8843   3.873   3.226   6.153  0.6095  0.4207 -1.0727
   6823SM  H15S 8844   3.834   3.124   6.169 -2.9335  2.0187  2.2960
   6823SM  H15T 8845   3.977   3.213   6.117 -0.1140  0.5569 -3.3819
   6823SM  C16S 8846   3.801   3.324   6.065  0.8624  0.0909  1.0112
   6823SM  H16S 8847   3.815   3.431   6.093 -0.9845  1.4199 -2.4592
   6823SM  H16T 8848   3.690   3.319   6.061  0.6911  2.4580 -2.8689
   6823SM  C17S 8849   3.842   3.301   5.916 -0.2369  0.7141  0.2409
   6823SM  H17S 8850   3.945   3.339   5.898 -0.5838  0.5043 -2.6266
   6823SM  H17T 8851   3.778   3.361   5.849 -1.1591 -0.5923 -0.0707
   6823SM  C18S 8852   3.842   3.155   5.880  0.0769  0.0918  0.6655
   6823SM  H18S 8853   3.889   3.136   5.781 -0.4104 -0.5117  0.5379
   6823SM  H18T 8854   3.740   3.111   5.865  0.6922 -0.5473 -2.5794
   6823SM  H18U 8855   3.907   3.090   5.942  0.4901  1.0770  1.2886
   6823SM   C1F 8856   4.530   2.386   7.076 -0.2119 -0.1075 -0.0796
   6823SM    OF 8857   4.501   2.301   7.157 -0.1869 -0.0737  0.4075
   6823SM   C2F 8858   4.538   2.364   6.925  0.0700 -0.1149 -0.0991
   6823SM   H2F 8859   4.639   2.400   6.895 -1.2014  3.1316 -0.8848
   6823SM   H2G 8860   4.464   2.434   6.880 -0.4413  0.0586  0.9621
   6823SM   C3F 8861   4.515   2.224   6.884  0.5981 -0.0491 -0.3589
   6823SM   H3F 8862   4.425   2.182   6.933  1.4690 -2.2059 -0.4934
   6823SM   H3G 8863   4.608   2.166   6.903  0.8808  0.4553 -0.1828
   6823SM   C4F 8864   4.485   2.209   6.736 -0.5072  0.0865 -0.3331
   6823SM   H4F 8865   4.402   2.278   6.711 -0.1907  0.7723  0.4646
   6823SM   H4G 8866   4.451   2.104   6.725 -1.0582  0.3529 -1.2772
   6823SM   C5F 8867   4.605   2.221   6.648  0.2701  0.0642  1.1979
   6823SM   H5F 8868   4.687   2.153   6.679  0.6054 -0.1851 -0.1689
   6823SM   H5G 8869   4.645   2.324   6.660 -1.1556  0.6562  0.9879
   6823SM   C6F 8870   4.580   2.191   6.494 -0.3566 -0.2643  0.0661
   6823SM   H6F 8871   4.527   2.096   6.471 -0.0329 -0.2353 -0.8578
   6823SM   H6G 8872   4.683   2.166   6.460 -0.6462 -2.1751  0.4959
   6823SM   C7F 8873   4.526   2.309   6.418  0.2048 -0.0750  0.2847
   6823SM   H7F 8874   4.587   2.399   6.444  0.2430  0.5928 -1.9432
   6823SM   H7G 8875   4.422   2.333   6.447  0.3401  1.9270 -0.7452
   6823SM   C8F 8876   4.540   2.298   6.266 -0.5016 -0.5940  0.9817
   6823SM   H8F 8877   4.480   2.211   6.233  0.0391 -0.0358 -1.6458
   6823SM   H8G 8878   4.646   2.269   6.248 -0.0611  1.1114  0.6158
   6823SM   C9F 8879   4.474   2.423   6.198  0.5255  0.0984 -0.2563
   6823SM   H9F 8880   4.537   2.508   6.231 -0.7240  1.7955 -2.0629
   6823SM   H9G 8881   4.369   2.428   6.235  0.5552  0.1797 -0.1850
   6823SM  C10F 8882   4.476   2.410   6.046  0.1714  0.0074 -0.1476
   6823SM  H10F 8883   4.416   2.487   5.994 -0.3980  0.9585  1.8369
   6823SM  H10G 8884   4.418   2.318   6.025 -1.4778  0.6807  1.2159
   6823SM  C11F 8885   4.619   2.410   5.993  0.2677  0.5227  0.0445
   6823SM  H11F 8886   4.659   2.314   6.032  0.5176  0.5552 -0.1321
   6823SM  H11G 8887   4.675   2.494   6.040  0.1914  0.0838  0.9403
   6823SM  C12F 8888   4.626   2.394   5.836  0.0589 -0.9050  0.0409
   6823SM  H12F 8889   4.599   2.487   5.782  0.8521  0.6226  2.1648
   6823SM  H12G 8890   4.549   2.326   5.794 -0.7089  0.4149 -0.7586
   6823SM  C13F 8891   4.771   2.368   5.786 -0.5979  0.3108  0.3416
   6823SM  H13F 8892   4.786   2.266   5.829 -2.4679  0.5296  1.6316
   6823SM  H13G 8893   4.838   2.445   5.830  4.0496  0.1013 -5.1795
   6823SM  C14F 8894   4.792   2.361   5.633 -0.1893 -0.2379  0.1186
   6823SM  H14F 8895   4.703   2.313   5.586 -1.3246  1.6281  0.2632
   6823SM  H14G 8896   4.884   2.301   5.616 -0.1292  0.0172 -0.4877
   6823SM  C15F 8897   4.802   2.498   5.566 -0.0445  0.2220 -0.6965
   6823SM  H15F 8898   4.839   2.553   5.656 -1.8689 -2.8021  2.1382
   6823SM  H15G 8899   4.699   2.533   5.543 -0.5086 -0.9247 -0.4268
   6823SM  C16F 8900   4.895   2.501   5.441  0.4358 -1.2435  0.3092
   6823SM  H16F 8901   5.002   2.502   5.472  0.6961  0.9919 -0.4687
   6823SM  H16G 8902   4.893   2.601   5.394  0.0893 -0.5212  1.8120
   6823SM  C17F 8903   4.870   2.394   5.337  0.4293  0.2122 -0.1656
   6823SM  H17F 8904   4.887   2.292   5.377  1.5867  0.9359  1.3336
   6823SM  H17G 8905   4.965   2.397   5.279  1.5129 -1.1829  1.4316
   6823SM  C18F 8906   4.739   2.400   5.258 -0.4413 -0.0267  0.1047
   6823SM  H18F 8907   4.720   2.502   5.218  0.3443  0.1854  0.2670
   6823SM  H18G 8908   4.663   2.358   5.327  1.4635 -2.0051  1.0915
   6823SM  C19F 8909   4.743   2.321   5.130 -0.1386 -0.2131 -0.3799
   6823SM  H19F 8910   4.833   2.337   5.067 -0.6914 -0.0387 -1.1373
   6823SM  H19G 8911   4.652   2.355   5.076 -1.2992 -0.1052  1.5253
   6823SM  C20F 8912   4.722   2.170   5.162  0.4937  0.7561  0.2998
   6823SM  H20F 8913   4.633   2.160   5.227  0.3016 -2.7171 -0.3165
   6823SM  H20G 8914   4.814   2.138   5.215 -0.0117 -0.6772  0.3413
   6823SM  C21F 8915   4.717   2.087   5.030 -0.5349 -0.4226 -0.2176
   6823SM  H21F 8916   4.802   2.121   4.968  1.3985 -1.5073  1.6971
   6823SM  H21G 8917   4.620   2.101   4.978 -0.9042 -0.0309  0.5570
   6823SM  C22F 8918   4.722   1.933   5.053 -0.2804 -0.1728  0.3205
   6823SM  H22F 8919   4.631   1.902   5.107 -1.0047 -1.2261 -1.4249
   6823SM  H22G 8920   4.808   1.918   5.122 -0.6131 -2.2957  0.3316
   6823SM  C23F 8921   4.750   1.846   4.927 -0.3581 -0.1885  0.8840
   6823SM  H23F 8922   4.656   1.802   4.888  0.0837 -0.4511  0.0988
   6823SM  H23G 8923   4.816   1.760   4.951  3.6065  1.7386 -1.9142
   6823SM  H23H 8924   4.795   1.899   4.840 -1.1532 -1.9956 -0.6779
   6923SM     N 8925   6.802   3.571   6.904  0.6141  0.1806  0.6021
   6923SM   C15 8926   6.752   3.554   7.038  0.3949  0.1328 -0.1942
   6923SM  H15A 8927   6.678   3.627   7.066  0.6967  0.0368  0.8640
   6923SM  H15B 8928   6.823   3.545   7.118 -1.7490  3.7134  2.3873
   6923SM  H15C 8929   6.688   3.467   7.048  0.0761  0.5539  1.8310
   6923SM   C14 8930   6.689   3.594   6.805  0.1644  0.0282 -0.2617
   6923SM  H14A 8931   6.608   3.526   6.822  0.3786 -0.1022  0.2882
   6923SM  H14B 8932   6.726   3.590   6.704  0.4559 -1.6269 -0.1181
   6923SM  H14C 8933   6.658   3.697   6.819 -0.1722 -0.2525  1.3514
   6923SM   C13 8934   6.888   3.688   6.907  0.2005 -0.0826  0.4128
   6923SM  H13A 8935   6.954   3.688   6.993 -0.8229 -1.4728  1.2347
   6923SM  H13B 8936   6.829   3.778   6.915  0.4950 -0.0030  1.9892
   6923SM  H13C 8937   6.955   3.694   6.822  1.9166  2.6153  1.7968
   6923SM   C12 8938   6.892   3.451   6.874  0.2954  0.4997  0.1860
   6923SM  H12A 8939   6.971   3.447   6.947 -0.9581  4.4033  2.0240
   6923SM  H12B 8940   6.948   3.462   6.782  0.5064 -0.7428  0.1468
   6923SM   C11 8941   6.812   3.317   6.855 -0.4467 -0.1512 -0.3516
   6923SM  H11A 8942   6.747   3.331   6.766  0.4998 -0.2098 -1.0723
   6923SM  H11B 8943   6.745   3.301   6.942  0.1148 -0.1210  0.0896
   6923SM     P 8944   6.931   3.107   6.945 -0.5469  0.3589 -0.0874
   6923SM   O13 8945   7.033   3.009   6.897 -0.0474 -0.2823 -0.1466
   6923SM   O14 8946   6.960   3.178   7.068  0.2879  0.3968 -0.2789
   6923SM   O11 8947   6.797   3.033   6.966 -0.6559  0.2373 -1.1343
   6923SM   O12 8948   6.905   3.211   6.828 -0.0922  0.0598 -0.6600
   6923SM   C1S 8949   6.704   2.995   6.862 -0.4301  0.5553 -0.2953
   6923SM   H1S 8950   6.720   3.052   6.768 -0.8236  0.1912 -0.5870
   6923SM   H1T 8951   6.600   3.009   6.898 -0.8900  0.9380 -1.6839
   6923SM    NF 8952   6.669   2.811   6.713  0.1991 -0.3739 -0.4559
   6923SM   HNF 8953   6.603   2.735   6.709  1.0832 -1.1537 -0.6725
   6923SM   C2S 8954   6.717   2.844   6.842  0.4195  0.6889 -0.0491
   6923SM   H2S 8955   6.825   2.816   6.841  0.0895 -0.7297  0.7757
   6923SM   C3S 8956   6.649   2.755   6.951  0.5044  0.1007 -0.0783
   6923SM   H3S 8957   6.542   2.785   6.956  0.5196  0.1238  0.1252
   6923SM    O3 8958   6.696   2.784   7.080  0.4571  0.4903 -0.3551
   6923SM   HO3 8959   6.726   2.874   7.069  1.5607  0.0196 -1.4252
   6923SM   C4S 8960   6.656   2.614   6.916  0.6731  0.0921  0.1196
   6923SM   H4S 8961   6.576   2.588   6.845  0.8070 -0.1449  0.0560
   6923SM   C5S 8962   6.743   2.513   6.955 -0.0315  1.0031  0.0273
   6923SM   H5S 8963   6.817   2.541   7.031 -0.7786 -0.5368  1.3858
   6923SM   C6S 8964   6.741   2.379   6.890 -0.2232 -0.4017  0.1277
   6923SM   H6S 8965   6.642   2.336   6.918  0.6167 -0.9460  2.5260
   6923SM   H6T 8966   6.805   2.312   6.951 -1.6319 -0.8546  1.1586
   6923SM   C7S 8967   6.760   2.361   6.742  0.4393  0.7025 -0.1528
   6923SM   H7S 8968   6.869   2.352   6.721  0.4985  0.2575  0.3260
   6923SM   H7T 8969   6.712   2.441   6.683  0.3212  1.6891  1.2392
   6923SM   C8S 8970   6.700   2.228   6.699 -0.0398 -0.2398  0.6458
   6923SM   H8S 8971   6.590   2.224   6.712 -0.1299  2.3887  1.1813
   6923SM   H8T 8972   6.743   2.157   6.774  0.3096  0.8889  1.5336
   6923SM   C9S 8973   6.726   2.193   6.550  0.4892 -0.0205  0.6604
   6923SM   H9S 8974   6.699   2.087   6.531 -0.2692  0.5323 -1.7176
   6923SM   H9T 8975   6.833   2.179   6.524  0.3540 -0.8270  0.5203
   6923SM  C10S 8976   6.657   2.296   6.456 -0.2921 -0.1486  0.0556
   6923SM  H10S 8977   6.689   2.270   6.353  0.8386  1.7398 -0.1144
   6923SM  H10T 8978   6.687   2.402   6.472 -1.5446  0.4504 -1.3359
   6923SM  C11S 8979   6.499   2.293   6.451 -0.3042 -0.3138 -0.3965
   6923SM  H11S 8980   6.468   2.345   6.545  1.5729  2.6094 -1.2624
   6923SM  H11T 8981   6.460   2.191   6.474 -1.2081  0.3907  1.4111
   6923SM  C12S 8982   6.441   2.375   6.340  0.5319 -0.0460  0.4974
   6923SM  H12S 8983   6.496   2.471   6.327 -0.0276  0.3060  0.7016
   6923SM  H12T 8984   6.337   2.402   6.367  1.4417  0.8335  3.6152
   6923SM  C13S 8985   6.434   2.312   6.198 -0.2379  0.4052 -0.3651
   6923SM  H13S 8986   6.391   2.210   6.200 -1.2138  0.7764 -1.4806
   6923SM  H13T 8987   6.541   2.299   6.169 -0.3911  0.9468 -1.1838
   6923SM  C14S 8988   6.353   2.388   6.093 -0.1965 -0.1565  0.6317
   6923SM  H14S 8989   6.399   2.489   6.100 -0.1232 -0.1272 -0.1458
   6923SM  H14T 8990   6.245   2.404   6.110 -0.2694  1.3161 -0.9422
   6923SM  C15S 8991   6.376   2.319   5.958  0.0176  0.7001 -0.7394
   6923SM  H15S 8992   6.329   2.219   5.948 -0.2909  1.0349 -3.0093
   6923SM  H15T 8993   6.484   2.314   5.931  0.3650  3.0926 -0.0540
   6923SM  C16S 8994   6.323   2.409   5.842 -0.5706 -0.2690 -0.7746
   6923SM  H16S 8995   6.362   2.511   5.860  1.7903 -0.8225 -2.3240
   6923SM  H16T 8996   6.212   2.421   5.845 -0.6725 -1.2786 -0.1801
   6923SM  C17S 8997   6.373   2.363   5.707  0.2473  0.2592  0.3596
   6923SM  H17S 8998   6.483   2.378   5.713 -0.0471  2.3798  1.0659
   6923SM  H17T 8999   6.321   2.425   5.630 -0.3349 -2.1776 -1.3488
   6923SM  C18S 9000   6.345   2.218   5.661  0.3865  0.4579  0.5941
   6923SM  H18S 9001   6.239   2.196   5.639  1.3762 -3.7197 -1.0157
   6923SM  H18T 9002   6.385   2.156   5.744  0.9603 -0.3531 -0.2625
   6923SM  H18U 9003   6.403   2.189   5.571 -1.7904 -1.0806 -0.4025
   6923SM   C1F 9004   6.720   2.867   6.594 -0.2661  0.7117  0.3603
   6923SM    OF 9005   6.815   2.946   6.599  0.0012 -0.0449 -0.2538
   6923SM   C2F 9006   6.655   2.840   6.469  0.7822 -0.0161  0.7018
   6923SM   H2F 9007   6.644   2.937   6.417  0.6596 -0.3645  0.0726
   6923SM   H2G 9008   6.559   2.788   6.490 -0.0394 -0.6073 -3.6308
   6923SM   C3F 9009   6.747   2.761   6.378 -0.1255  0.0109 -0.5742
   6923SM   H3F 9010   6.754   2.656   6.411 -2.3079 -0.3295 -1.0272
   6923SM   H3G 9011   6.850   2.803   6.374  1.3107 -2.8860  1.9521
   6923SM   C4F 9012   6.682   2.769   6.236 -0.8427 -0.0215 -0.0072
   6923SM   H4F 9013   6.685   2.876   6.206 -1.2805 -0.0417 -0.1222
   6923SM   H4G 9014   6.572   2.755   6.246 -1.3352  2.6023 -1.0049
   6923SM   C5F 9015   6.742   2.667   6.138  0.1974 -0.2017  0.0207
   6923SM   H5F 9016   6.727   2.569   6.188 -1.4061 -0.6037 -1.1542
   6923SM   H5G 9017   6.848   2.682   6.110  1.0820 -0.7557  2.7735
   6923SM   C6F 9018   6.665   2.654   6.006 -0.4248 -0.0427 -0.1848
   6923SM   H6F 9019   6.658   2.748   5.946 -0.2441  0.5702  0.7266
   6923SM   H6G 9020   6.559   2.636   6.033 -0.3584 -0.0775  0.0584
   6923SM   C7F 9021   6.713   2.540   5.914  0.3440 -0.0039 -0.2301
   6923SM   H7F 9022   6.657   2.449   5.945  0.5466  0.8697  3.0574
   6923SM   H7G 9023   6.817   2.517   5.945 -0.5716 -0.5228  2.7785
   6923SM   C8F 9024   6.697   2.575   5.770  0.8670  0.5610  0.1280
   6923SM   H8F 9025   6.738   2.674   5.740 -0.2594  1.7130  2.1321
   6923SM   H8G 9026   6.588   2.581   5.751  0.6391  1.8501  1.6099
   6923SM   C9F 9027   6.755   2.468   5.682 -0.4069 -0.3571 -0.3312
   6923SM   H9F 9028   6.737   2.363   5.712 -1.7457  0.0332  0.3201
   6923SM   H9G 9029   6.865   2.473   5.676 -0.4039  0.6595  0.2565
   6923SM  C10F 9030   6.691   2.482   5.537  0.3826  0.9080 -0.1105
   6923SM  H10F 9031   6.714   2.584   5.500 -0.2938  1.4690  0.9512
   6923SM  H10G 9032   6.580   2.491   5.544  0.0344 -1.1812 -1.8040
   6923SM  C11F 9033   6.737   2.377   5.439 -0.4532  0.9949  0.1309
   6923SM  H11F 9034   6.662   2.296   5.428  0.1722  0.4986 -0.5940
   6923SM  H11G 9035   6.841   2.351   5.468  0.2541  1.6465 -1.6566
   6923SM  C12F 9036   6.747   2.429   5.297 -0.1429 -0.1857  0.3122
   6923SM  H12F 9037   6.791   2.355   5.227  0.0321 -2.0515  2.2800
   6923SM  H12G 9038   6.807   2.522   5.298 -0.5641  0.1036 -0.7394
   6923SM  C13F 9039   6.616   2.480   5.242 -0.3688  0.5610 -0.5244
   6923SM  H13F 9040   6.642   2.544   5.156 -3.0002  1.5350 -0.6514
   6923SM  H13G 9041   6.557   2.544   5.310 -1.1934 -1.5098  0.8394
   6923SM  C14F 9042   6.531   2.368   5.198 -0.0923  0.5799  0.2061
   6923SM  H14F 9043   6.527   2.289   5.277  0.9624  1.0612  0.7671
   6923SM  H14G 9044   6.565   2.314   5.108 -0.2347 -1.9732  1.5866
   6923SM  C15F 9045   6.382   2.410   5.168  0.1893  0.3097 -0.2294
   6923SM  H15F 9046   6.346   2.321   5.113 -0.2986 -0.2420  0.9353
   6923SM  H15G 9047   6.394   2.497   5.099  3.0866  1.0084  1.0041
   6923SM  C16F 9048   6.292   2.436   5.285  0.0229  0.4872 -0.2566
   6923SM  H16F 9049   6.324   2.525   5.343  0.1987  1.4335 -1.7696
   6923SM  H16G 9050   6.289   2.350   5.356 -0.3911 -0.0462 -0.9046
   6923SM  C17F 9051   6.147   2.460   5.244 -0.4888 -0.9556 -0.4318
   6923SM  H17F 9052   6.086   2.469   5.337 -1.8742 -2.4015 -1.1451
   6923SM  H17G 9053   6.100   2.382   5.180 -0.7740 -0.3389 -0.9969
   6923SM  C18F 9054   6.133   2.589   5.164  0.5919  0.0056  0.3215
   6923SM  H18F 9055   6.183   2.580   5.065 -0.8901 -1.9975 -0.3095
   6923SM  H18G 9056   6.184   2.671   5.219 -0.8942  1.0775  0.1792
   6923SM  C19F 9057   5.993   2.642   5.151  0.4923  0.0912 -0.3505
   6923SM  H19F 9058   5.948   2.693   5.239  0.6870 -1.9212  0.9962
   6923SM  H19G 9059   5.921   2.561   5.127  0.4142 -0.3092  1.1468
   6923SM  C20F 9060   5.980   2.737   5.031  0.1862 -0.3348  0.1503
   6923SM  H20F 9061   6.014   2.692   4.936 -1.6463 -1.7884  0.1052
   6923SM  H20G 9062   6.029   2.836   5.037  0.6522 -0.6519  3.4149
   6923SM  C21F 9063   5.835   2.777   5.010  0.2024  0.1504  1.1243
   6923SM  H21F 9064   5.791   2.822   5.102 -1.8618 -1.5193  1.0204
   6923SM  H21G 9065   5.776   2.690   4.975  0.9905  0.2572 -0.5552
   6923SM  C22F 9066   5.818   2.886   4.906 -0.2488 -0.3213  0.3281
   6923SM  H22F 9067   5.866   2.980   4.941 -0.2776 -0.2744  0.2400
   6923SM  H22G 9068   5.708   2.903   4.906 -0.3879 -1.1198 -1.0727
   6923SM  C23F 9069   5.863   2.843   4.770 -0.2558 -0.4365 -0.6830
   6923SM  H23F 9070   5.973   2.825   4.768 -0.3043 -0.8384 -0.1265
   6923SM  H23G 9071   5.841   2.918   4.691  0.0277  1.6757  1.1656
   6923SM  H23H 9072   5.813   2.749   4.737  1.1911 -0.6389 -2.4788
   7023SM     N 9073   5.677   1.310   7.534  0.1769 -0.2762  0.4134
   7023SM   C15 9074   5.590   1.306   7.656  0.9466 -0.2215  0.0339
   7023SM  H15A 9075   5.516   1.230   7.639 -1.3743  2.1688 -1.2088
   7023SM  H15B 9076   5.542   1.402   7.668  1.8728  0.0964  1.5715
   7023SM  H15C 9077   5.638   1.286   7.751  0.0042 -0.3129  0.5029
   7023SM   C14 9078   5.817   1.363   7.569  0.8190  0.1903  0.3672
   7023SM  H14A 9079   5.878   1.291   7.622  0.0340 -1.0285 -0.3183
   7023SM  H14B 9080   5.814   1.461   7.614  1.3536  0.0576  0.6952
   7023SM  H14C 9081   5.861   1.379   7.472 -0.7129  1.5235 -0.1543
   7023SM   C13 9082   5.675   1.182   7.467 -1.1241  0.8423 -0.3050
   7023SM  H13A 9083   5.575   1.143   7.454 -0.3838 -1.5103  0.5241
   7023SM  H13B 9084   5.719   1.097   7.518  0.4939 -0.1724 -3.1638
   7023SM  H13C 9085   5.733   1.196   7.377 -0.0016 -0.6200  0.1379
   7023SM   C12 9086   5.611   1.406   7.437 -0.3125  0.2107 -0.2370
   7023SM  H12A 9087   5.616   1.502   7.486 -1.0259 -0.8267  2.0036
   7023SM  H12B 9088   5.507   1.379   7.422 -0.2801  1.3059 -2.8391
   7023SM   C11 9089   5.665   1.414   7.292  0.1626 -0.6628 -0.2555
   7023SM  H11A 9090   5.609   1.494   7.239 -2.9050 -1.2828  1.8081
   7023SM  H11B 9091   5.640   1.320   7.239 -0.1804 -0.2543 -0.8438
   7023SM     P 9092   5.872   1.504   7.161 -0.0909 -0.0836 -0.4531
   7023SM   O13 9093   5.834   1.648   7.172  0.2845  0.0461 -0.0313
   7023SM   O14 9094   6.012   1.463   7.169  0.1478 -0.3092  0.2978
   7023SM   O11 9095   5.812   1.438   7.031 -0.0644  0.0322 -0.1102
   7023SM   O12 9096   5.800   1.441   7.285  0.5569  0.0565  0.0901
   7023SM   C1S 9097   5.833   1.307   6.974  0.2012  0.1495  0.0713
   7023SM   H1S 9098   5.784   1.229   7.035  1.5394  0.6898  1.9360
   7023SM   H1T 9099   5.940   1.276   6.972 -0.4572 -2.5388  1.6758
   7023SM    NF 9100   5.765   1.149   6.781  0.4847 -0.2798 -0.5080
   7023SM   HNF 9101   5.841   1.128   6.720  0.8453  0.3183 -0.2750
   7023SM   C2S 9102   5.766   1.291   6.831  0.1060 -0.5315  0.1267
   7023SM   H2S 9103   5.659   1.323   6.834  0.5203  1.1158 -1.1814
   7023SM   C3S 9104   5.841   1.385   6.731 -0.1567 -0.1092  0.0671
   7023SM   H3S 9105   5.950   1.363   6.736 -0.2664 -0.6109  0.3193
   7023SM    O3 9106   5.835   1.527   6.758 -0.6596 -0.4885  0.0250
   7023SM   HO3 9107   5.796   1.524   6.846 -0.1237 -0.7743  0.2579
   7023SM   C4S 9108   5.785   1.366   6.589 -0.4865  0.6374  0.2485
   7023SM   H4S 9109   5.835   1.282   6.539 -0.4570  1.5399 -1.3181
   7023SM   C5S 9110   5.682   1.422   6.523 -0.1996 -0.2159  0.5841
   7023SM   H5S 9111   5.614   1.495   6.568 -1.8057 -0.5101 -1.2420
   7023SM   C6S 9112   5.640   1.397   6.385 -0.7237 -0.0146  0.4841
   7023SM   H6S 9113   5.652   1.491   6.327 -0.5652 -0.9117 -1.0147
   7023SM   H6T 9114   5.536   1.359   6.389 -0.0751 -1.7862  1.6750
   7023SM   C7S 9115   5.716   1.285   6.314  0.1233  1.0612  0.6708
   7023SM   H7S 9116   5.692   1.192   6.370  0.6588  0.9882  0.7853
   7023SM   H7T 9117   5.826   1.305   6.314 -0.0647  2.3161 -1.2435
   7023SM   C8S 9118   5.690   1.258   6.160  0.3243 -0.4784  0.0746
   7023SM   H8S 9119   5.758   1.177   6.125  0.1717 -0.2693 -0.7060
   7023SM   H8T 9120   5.708   1.357   6.113 -0.2901 -1.6628 -2.8903
   7023SM   C9S 9121   5.544   1.231   6.116 -0.1025  0.5164  0.5431
   7023SM   H9S 9122   5.484   1.319   6.147 -1.1318  0.8474 -2.1081
   7023SM   H9T 9123   5.500   1.138   6.159 -1.4448 -1.4661 -4.3828
   7023SM  C10S 9124   5.529   1.221   5.962  0.3244  0.2454 -0.8343
   7023SM  H10S 9125   5.580   1.129   5.927  0.5334  0.3457 -0.7938
   7023SM  H10T 9126   5.581   1.304   5.909  0.9100  0.0454 -0.5819
   7023SM  C11S 9127   5.387   1.227   5.912 -0.5030 -0.8987  0.4062
   7023SM  H11S 9128   5.330   1.297   5.976 -0.0920 -1.2278  1.1448
   7023SM  H11T 9129   5.341   1.127   5.925 -0.3354 -0.9777  0.3901
   7023SM  C12S 9130   5.367   1.267   5.761 -0.9996 -0.1872  0.0395
   7023SM  H12S 9131   5.403   1.185   5.695  0.0300  2.0315 -2.3347
   7023SM  H12T 9132   5.435   1.351   5.734  0.5404 -1.8782 -1.6031
   7023SM  C13S 9133   5.220   1.290   5.727  0.3496 -0.0710 -0.6308
   7023SM  H13S 9134   5.176   1.347   5.812  0.4902 -1.5564  0.4694
   7023SM  H13T 9135   5.167   1.193   5.725  0.6682 -0.2471 -0.5354
   7023SM  C14S 9136   5.211   1.379   5.602  0.1910 -0.5079 -0.4731
   7023SM  H14S 9137   5.273   1.331   5.524 -0.3548 -0.5691 -0.8777
   7023SM  H14T 9138   5.254   1.480   5.620  2.0430 -1.5563  1.5176
   7023SM  C15S 9139   5.069   1.405   5.560  0.0812 -0.0265  0.3325
   7023SM  H15S 9140   5.021   1.490   5.614 -1.5924  0.5189 -1.8874
   7023SM  H15T 9141   5.007   1.313   5.569 -0.6078  0.3106 -0.7894
   7023SM  C16S 9142   5.064   1.442   5.404 -0.2424 -0.0925 -0.4131
   7023SM  H16S 9143   5.104   1.354   5.349 -0.9320 -0.0646 -0.9775
   7023SM  H16T 9144   5.138   1.523   5.390 -0.3920 -0.1162 -1.4644
   7023SM  C17S 9145   4.927   1.473   5.344  0.2209 -0.2256 -0.4991
   7023SM  H17S 9146   4.875   1.532   5.423  1.7765  1.0854 -0.4144
   7023SM  H17T 9147   4.876   1.376   5.330 -2.9987  1.3855 -0.8820
   7023SM  C18S 9148   4.910   1.547   5.210 -0.5822 -0.0987 -0.1207
   7023SM  H18S 9149   4.809   1.551   5.164 -0.5300 -1.2720 -0.3722
   7023SM  H18T 9150   4.979   1.509   5.132 -0.3641  3.9987 -2.1884
   7023SM  H18U 9151   4.935   1.654   5.227  0.3626 -0.7231  3.0332
   7023SM   C1F 9152   5.689   1.057   6.836 -0.6921 -0.1612 -0.9373
   7023SM    OF 9153   5.608   1.083   6.925  0.3612  0.6683  0.7587
   7023SM   C2F 9154   5.701   0.912   6.795  0.3049 -0.0872 -0.4132
   7023SM   H2F 9155   5.612   0.862   6.839  0.5377  0.3753  0.6151
   7023SM   H2G 9156   5.795   0.874   6.841 -1.0176 -2.8775  0.1964
   7023SM   C3F 9157   5.706   0.898   6.645 -0.4205 -0.7847  0.6198
   7023SM   H3F 9158   5.701   0.790   6.621 -0.0492 -0.4645 -1.0587
   7023SM   H3G 9159   5.797   0.950   6.609 -0.6635 -1.5133 -1.1626
   7023SM   C4F 9160   5.586   0.963   6.592  0.7712 -0.0456 -0.0182
   7023SM   H4F 9161   5.576   1.070   6.621 -0.9127 -0.3441  0.5816
   7023SM   H4G 9162   5.496   0.914   6.633  0.2860 -0.3328 -1.3686
   7023SM   C5F 9163   5.557   0.948   6.438 -0.0561 -0.0235 -0.5592
   7023SM   H5F 9164   5.654   0.977   6.393 -0.6384  3.1322 -0.0358
   7023SM   H5G 9165   5.489   1.024   6.395  1.3989  1.2011 -0.7797
   7023SM   C6F 9166   5.492   0.819   6.397  0.1091  1.2660  0.6095
   7023SM   H6F 9167   5.404   0.805   6.463  0.7817  0.5587  1.3750
   7023SM   H6G 9168   5.560   0.735   6.422 -0.5891 -0.0177 -1.6036
   7023SM   C7F 9169   5.450   0.804   6.253  0.1831 -0.9808 -0.5884
   7023SM   H7F 9170   5.372   0.883   6.238  1.2265  0.9916  3.0929
   7023SM   H7G 9171   5.412   0.701   6.236  1.2557 -1.9943  2.6187
   7023SM   C8F 9172   5.561   0.832   6.151 -0.0075  0.5360 -0.1920
   7023SM   H8F 9173   5.652   0.780   6.187 -0.7241  0.4987  1.6399
   7023SM   H8G 9174   5.584   0.941   6.152  1.9828  0.1475  0.1672
   7023SM   C9F 9175   5.527   0.785   6.012 -0.4116 -0.5398  0.2033
   7023SM   H9F 9176   5.429   0.820   5.973 -1.7399 -1.8256  2.1855
   7023SM   H9G 9177   5.513   0.675   6.010  2.1420 -0.9174 -0.8167
   7023SM  C10F 9178   5.638   0.811   5.902  0.2702 -0.0667 -0.5488
   7023SM  H10F 9179   5.729   0.755   5.933  0.3688 -1.6196 -3.2502
   7023SM  H10G 9180   5.669   0.917   5.905  0.2280 -0.0302 -1.1525
   7023SM  C11F 9181   5.590   0.777   5.763  0.3508  0.4253 -0.6135
   7023SM  H11F 9182   5.576   0.667   5.761 -0.5958  0.5411 -0.9398
   7023SM  H11G 9183   5.673   0.806   5.695 -0.4244  1.1557 -1.2691
   7023SM  C12F 9184   5.468   0.856   5.713 -0.2592 -0.1876  0.1440
   7023SM  H12F 9185   5.476   0.963   5.742 -0.8777 -0.7100  2.4070
   7023SM  H12G 9186   5.383   0.808   5.764  0.4515 -2.3736 -0.6176
   7023SM  C13F 9187   5.452   0.841   5.557 -0.2138 -0.4177  0.0889
   7023SM  H13F 9188   5.431   0.733   5.542  0.0844 -0.2830 -1.5427
   7023SM  H13G 9189   5.548   0.863   5.506 -0.9776 -0.0058 -1.2294
   7023SM  C14F 9190   5.337   0.918   5.493 -0.0655  0.5179  0.2865
   7023SM  H14F 9191   5.338   0.895   5.384  2.1495  0.7859  0.1967
   7023SM  H14G 9192   5.351   1.028   5.498 -0.0631  0.5950 -1.0888
   7023SM  C15F 9193   5.199   0.895   5.553 -0.0655  0.4394 -0.1597
   7023SM  H15F 9194   5.203   0.939   5.655  0.4019  1.5972 -0.6590
   7023SM  H15G 9195   5.183   0.785   5.552  1.0821  0.2316  1.2070
   7023SM  C16F 9196   5.091   0.945   5.455 -0.1818  0.7286 -0.2295
   7023SM  H16F 9197   5.105   0.887   5.361  0.0835 -0.0461  0.2745
   7023SM  H16G 9198   5.114   1.050   5.429  0.3265  1.5259  2.9206
   7023SM  C17F 9199   4.940   0.938   5.499 -0.4611 -0.4735 -0.2025
   7023SM  H17F 9200   4.934   0.971   5.605 -1.7146 -1.6276  0.1042
   7023SM  H17G 9201   4.915   0.830   5.502  1.5491 -0.9999  2.9317
   7023SM  C18F 9202   4.848   1.023   5.413  0.0650  0.2044 -0.7102
   7023SM  H18F 9203   4.852   0.989   5.307  0.4121 -1.5257 -0.1590
   7023SM  H18G 9204   4.882   1.129   5.421 -0.7996  0.3529  1.9080
   7023SM  C19F 9205   4.709   1.027   5.487  1.0046 -0.3840  0.1903
   7023SM  H19F 9206   4.721   1.059   5.593 -2.1942  1.4870  0.1384
   7023SM  H19G 9207   4.672   0.923   5.494  0.9866 -0.3273  1.0934
   7023SM  C20F 9208   4.608   1.116   5.409  0.3157 -0.3988 -0.7021
   7023SM  H20F 9209   4.596   1.081   5.305  1.2656 -1.3683 -0.5083
   7023SM  H20G 9210   4.650   1.219   5.417  2.9422 -1.1419 -3.1496
   7023SM  C21F 9211   4.467   1.101   5.453  0.0431  0.3233  0.5350
   7023SM  H21F 9212   4.460   1.120   5.563 -3.6179  1.3692  0.2770
   7023SM  H21G 9213   4.443   0.993   5.448  1.2670  0.0772 -0.3448
   7023SM  C22F 9214   4.356   1.173   5.371 -0.2302 -0.0383 -0.7434
   7023SM  H22F 9215   4.352   1.281   5.400 -0.0788 -0.0670 -0.6119
   7023SM  H22G 9216   4.255   1.147   5.410 -0.2835  2.8413  1.4004
   7023SM  C23F 9217   4.341   1.147   5.217 -0.5146 -0.7760  0.0101
   7023SM  H23F 9218   4.254   1.205   5.179 -0.7971 -0.9944  0.3145
   7023SM  H23G 9219   4.316   1.039   5.215  1.7547 -1.3492  0.6407
   7023SM  H23H 9220   4.437   1.177   5.170 -1.4257  2.3199 -0.1123
   7123SM     N 9221   5.134   7.021   7.303  0.8224  0.2207 -0.1672
   7123SM   C15 9222   5.031   7.061   7.204  0.2368  0.3325 -0.1796
   7123SM  H15A 9223   5.017   6.980   7.135 -0.9983  0.4702 -0.1144
   7123SM  H15B 9224   5.079   7.139   7.147  1.5507  0.6084  1.2469
   7123SM  H15C 9225   4.934   7.088   7.244 -0.3035  0.2018 -1.3818
   7123SM   C14 9226   5.149   7.129   7.401  0.7028  0.9666  0.3571
   7123SM  H14A 9227   5.228   7.114   7.473  0.0428 -3.0324  0.4676
   7123SM  H14B 9228   5.072   7.115   7.475  0.1713 -1.2326 -0.5430
   7123SM  H14C 9229   5.166   7.228   7.360 -2.5254  1.8939  0.9478
   7123SM   C13 9230   5.099   6.890   7.370 -0.0863  1.3073  0.0835
   7123SM  H13A 9231   5.146   6.883   7.466 -1.0958  0.5217  0.5486
   7123SM  H13B 9232   5.142   6.807   7.315  2.7863  1.0666  2.4793
   7123SM  H13C 9233   4.994   6.874   7.391  0.4412 -2.0921  0.8275
   7123SM   C12 9234   5.269   7.011   7.230 -0.8520 -0.0012  0.0265
   7123SM  H12A 9235   5.340   6.953   7.288  0.3201  1.5902  0.2364
   7123SM  H12B 9236   5.315   7.108   7.222  0.5849 -0.4544  1.9799
   7123SM   C11 9237   5.279   6.933   7.093 -0.2856 -0.4114  0.1814
   7123SM  H11A 9238   5.383   6.944   7.057  0.0017  0.3778  1.1960
   7123SM  H11B 9239   5.218   6.983   7.014 -1.2647 -0.8774  0.6259
   7123SM     P 9240   5.326   6.693   7.179  0.0949 -0.4263  0.0853
   7123SM   O13 9241   5.433   6.769   7.250  0.2500  0.0960  0.8216
   7123SM   O14 9242   5.239   6.616   7.269  0.0341 -0.2429 -0.2314
   7123SM   O11 9243   5.390   6.602   7.063  0.3560 -0.0598  0.6516
   7123SM   O12 9244   5.241   6.793   7.102 -0.2151 -0.1721 -0.5233
   7123SM   C1S 9245   5.329   6.565   6.939 -0.8454  0.1228 -0.3801
   7123SM   H1S 9246   5.218   6.567   6.941 -0.9062  0.1236 -1.9076
   7123SM   H1T 9247   5.357   6.462   6.909 -0.9132 -0.3895  1.2674
   7123SM    NF 9248   5.310   6.592   6.698 -0.1348 -0.4271 -0.2247
   7123SM   HNF 9249   5.367   6.547   6.630  2.2238  1.0606  0.6351
   7123SM   C2S 9250   5.374   6.648   6.816 -0.0900 -0.0080 -0.6013
   7123SM   H2S 9251   5.336   6.751   6.834 -0.1533  0.1491 -1.5917
   7123SM   C3S 9252   5.532   6.648   6.799 -0.1403  0.1482  0.1111
   7123SM   H3S 9253   5.566   6.547   6.768  0.1712 -0.1319  1.3166
   7123SM    O3 9254   5.609   6.678   6.912 -0.1673 -0.3994  0.2098
   7123SM   HO3 9255   5.550   6.676   6.988  0.2364  0.3025  0.5452
   7123SM   C4S 9256   5.569   6.745   6.688  0.3235 -0.0952 -0.4615
   7123SM   H4S 9257   5.538   6.695   6.595 -0.8582 -0.7287  0.2403
   7123SM   C5S 9258   5.613   6.873   6.695  0.2477  0.3839 -0.4197
   7123SM   H5S 9259   5.633   6.911   6.796  0.6233 -0.3530 -0.2032
   7123SM   C6S 9260   5.647   6.951   6.568  0.1910 -0.8184  0.0918
   7123SM   H6S 9261   5.660   7.057   6.601 -0.6806 -0.3633 -0.9565
   7123SM   H6T 9262   5.560   6.957   6.499  0.1423 -0.9055  0.1460
   7123SM   C7S 9263   5.768   6.914   6.488  0.0872 -0.8230  0.0876
   7123SM   H7S 9264   5.763   6.803   6.477 -0.7082 -0.9101  1.1307
   7123SM   H7T 9265   5.861   6.940   6.543 -1.0451  0.8133  1.3244
   7123SM   C8S 9266   5.766   6.982   6.346 -0.2156 -0.3323  0.1033
   7123SM   H8S 9267   5.862   7.023   6.309 -1.7182  3.5023 -0.0267
   7123SM   H8T 9268   5.695   7.067   6.358  0.1566 -0.0884  0.5952
   7123SM   C9S 9269   5.715   6.897   6.232 -0.4777  1.0195  0.1940
   7123SM   H9S 9270   5.611   6.862   6.250  0.0186  0.0097  1.2662
   7123SM   H9T 9271   5.781   6.808   6.222  0.8460  1.9988 -0.1636
   7123SM  C10S 9272   5.731   6.975   6.101 -0.1612  0.0986  0.1268
   7123SM  H10S 9273   5.836   7.004   6.080  0.4955 -2.5302 -0.5447
   7123SM  H10T 9274   5.668   7.066   6.103 -0.8714 -0.3556 -0.7379
   7123SM  C11S 9275   5.688   6.903   5.971  0.3090  0.0437 -0.0781
   7123SM  H11S 9276   5.584   6.863   5.974  0.7806 -1.3536 -1.2095
   7123SM  H11T 9277   5.748   6.811   5.952  0.3225  0.2502 -1.1255
   7123SM  C12S 9278   5.688   6.999   5.850 -0.3879 -0.2361  0.1555
   7123SM  H12S 9279   5.793   7.036   5.845  0.5066 -2.6830 -1.0107
   7123SM  H12T 9280   5.618   7.084   5.862  1.5895  1.7720 -1.5642
   7123SM  C13S 9281   5.670   6.931   5.714  0.0075 -0.0743 -0.1479
   7123SM  H13S 9282   5.579   6.869   5.703  0.8767 -1.1473 -1.7022
   7123SM  H13T 9283   5.748   6.857   5.686 -0.5392 -1.3120  1.3960
   7123SM  C14S 9284   5.670   7.038   5.599  0.6234  0.7520 -0.2945
   7123SM  H14S 9285   5.748   7.114   5.620 -0.0685  0.6457  3.4803
   7123SM  H14T 9286   5.569   7.084   5.608  0.0381 -0.8418  2.7523
   7123SM  C15S 9287   5.683   6.969   5.462  0.3898  0.3459 -1.0149
   7123SM  H15S 9288   5.593   6.905   5.448 -0.0662  1.1516 -1.8608
   7123SM  H15T 9289   5.770   6.900   5.452 -0.1559 -0.3658 -0.9935
   7123SM  C16S 9290   5.679   7.072   5.345  0.3477  0.9362  0.3457
   7123SM  H16S 9291   5.773   7.130   5.358  1.4683 -0.7855  0.2236
   7123SM  H16T 9292   5.594   7.141   5.364  0.3481  0.4875  2.1915
   7123SM  C17S 9293   5.675   7.022   5.204 -0.2134 -0.3302  0.5652
   7123SM  H17S 9294   5.770   6.965   5.197 -0.5377 -1.0156  1.4743
   7123SM  H17T 9295   5.674   7.115   5.143 -1.7803 -0.2684  0.6395
   7123SM  C18S 9296   5.547   6.942   5.169  0.4044 -0.4772 -0.4680
   7123SM  H18S 9297   5.463   7.013   5.183 -0.2763 -0.9289 -1.9647
   7123SM  H18T 9298   5.530   6.863   5.245  0.4851  0.5959  0.7004
   7123SM  H18U 9299   5.534   6.903   5.065 -3.3337  0.2432 -0.4081
   7123SM   C1F 9300   5.179   6.604   6.670  0.0260 -0.4990 -1.2024
   7123SM    OF 9301   5.117   6.696   6.729  0.1033 -0.4307  0.8204
   7123SM   C2F 9302   5.113   6.512   6.566  0.7180  0.2373 -0.6459
   7123SM   H2F 9303   5.110   6.414   6.617 -2.0555  0.1154 -0.9018
   7123SM   H2G 9304   5.188   6.522   6.484  0.7812  0.0814 -0.6076
   7123SM   C3F 9305   4.972   6.545   6.503  0.4218 -0.7195 -0.5726
   7123SM   H3F 9306   4.980   6.643   6.452  1.2894 -0.2283  0.4855
   7123SM   H3G 9307   4.897   6.554   6.584 -0.0275 -0.7648 -0.9773
   7123SM   C4F 9308   4.914   6.437   6.409  0.2982  0.1198 -0.0908
   7123SM   H4F 9309   4.814   6.474   6.376  0.2354  1.2911  1.3088
   7123SM   H4G 9310   4.910   6.341   6.465  1.7040 -0.1683 -0.4520
   7123SM   C5F 9311   5.002   6.420   6.286 -0.1743  0.1487 -0.2669
   7123SM   H5F 9312   4.960   6.342   6.219  0.6799  1.4662 -2.4293
   7123SM   H5G 9313   5.106   6.388   6.307 -0.3165  0.7332  1.5358
   7123SM   C6F 9314   5.002   6.543   6.195  0.0182 -0.5359  0.5281
   7123SM   H6F 9315   5.046   6.632   6.244 -1.7463  1.5692 -1.4765
   7123SM   H6G 9316   4.901   6.581   6.166  0.4508  0.3181  0.1073
   7123SM   C7F 9317   5.069   6.522   6.064 -0.0506 -0.0565  1.0618
   7123SM   H7F 9318   5.002   6.463   5.998  2.0473 -2.1680  0.6952
   7123SM   H7G 9319   5.167   6.473   6.082  0.7184  1.4388  1.0527
   7123SM   C8F 9320   5.127   6.641   5.982  0.8993 -0.1514 -1.0913
   7123SM   H8F 9321   5.185   6.706   6.051  0.4630 -0.4376 -0.4491
   7123SM   H8G 9322   5.039   6.691   5.937 -1.4690 -3.0654 -0.0517
   7123SM   C9F 9323   5.228   6.606   5.875 -0.0276  0.4448  0.1977
   7123SM   H9F 9324   5.233   6.496   5.870  0.3269  0.4514  0.3624
   7123SM   H9G 9325   5.330   6.639   5.903  0.2866 -0.3205 -0.0419
   7123SM  C10F 9326   5.195   6.669   5.734  0.0331  0.0280 -0.6675
   7123SM  H10F 9327   5.087   6.647   5.721 -0.3502 -0.2816  2.3194
   7123SM  H10G 9328   5.244   6.612   5.652 -0.9710  0.0656 -1.3041
   7123SM  C11F 9329   5.225   6.819   5.726 -0.7536 -0.0480 -0.7824
   7123SM  H11F 9330   5.335   6.819   5.739 -0.5396 -1.3653 -2.3837
   7123SM  H11G 9331   5.167   6.872   5.805  1.1813 -1.1384  1.5223
   7123SM  C12F 9332   5.196   6.885   5.591  0.7578  0.0013  0.1791
   7123SM  H12F 9333   5.228   6.991   5.606 -0.2585  0.4379 -0.5948
   7123SM  H12G 9334   5.087   6.886   5.574  0.2900  2.5618  2.6155
   7123SM  C13F 9335   5.287   6.832   5.477  0.3476 -0.3797  0.2723
   7123SM  H13F 9336   5.292   6.722   5.488 -0.5205 -0.1584  5.0405
   7123SM  H13G 9337   5.384   6.885   5.490 -1.0183  1.9725  1.7662
   7123SM  C14F 9338   5.221   6.873   5.347 -0.2023 -0.2583  0.0911
   7123SM  H14F 9339   5.118   6.831   5.343  0.2006 -1.2968  0.4177
   7123SM  H14G 9340   5.267   6.822   5.260 -1.4395 -1.0679 -0.1207
   7123SM  C15F 9341   5.204   7.025   5.308 -0.1307 -0.1274  0.2701
   7123SM  H15F 9342   5.302   7.076   5.319  1.0747 -2.0911 -0.7272
   7123SM  H15G 9343   5.118   7.071   5.361 -0.1426  0.7481 -0.4722
   7123SM  C16F 9344   5.178   7.037   5.160  0.3327 -0.1069 -0.6250
   7123SM  H16F 9345   5.260   6.985   5.107  1.8596  1.0197  0.5217
   7123SM  H16G 9346   5.165   7.140   5.119  0.3085 -1.0729 -3.2159
   7123SM  C17F 9347   5.055   6.961   5.104 -0.3376  0.2768  0.1649
   7123SM  H17F 9348   4.969   6.974   5.173 -0.5700 -0.6681  0.0546
   7123SM  H17G 9349   5.077   6.852   5.107  1.1065  0.5105 -0.9106
   7123SM  C18F 9350   5.014   6.981   4.964  0.5304  0.4208  0.3171
   7123SM  H18F 9351   4.924   6.918   4.949 -0.4791  1.6491  0.9897
   7123SM  H18G 9352   5.094   6.953   4.892  1.8399  1.1629  1.4336
   7123SM  C19F 9353   4.960   7.127   4.941  0.1700  0.0269 -0.3427
   7123SM  H19F 9354   5.040   7.203   4.954  2.5655 -2.1025 -1.7563
   7123SM  H19G 9355   4.896   7.155   5.027  0.7290 -0.8170  0.3665
   7123SM  C20F 9356   4.891   7.155   4.813 -0.2473 -0.2614  0.8406
   7123SM  H20F 9357   4.957   7.141   4.725  0.5141 -1.2901  1.5498
   7123SM  H20G 9358   4.875   7.265   4.811  3.1676  0.3562 -1.6701
   7123SM  C21F 9359   4.757   7.083   4.785  0.8365 -0.2288  0.6770
   7123SM  H21F 9360   4.772   6.973   4.782 -0.8625 -0.4521 -2.2575
   7123SM  H21G 9361   4.716   7.118   4.688 -2.0337  0.4908  2.0455
   7123SM  C22F 9362   4.657   7.103   4.896  0.1665 -0.8090  0.0955
   7123SM  H22F 9363   4.673   7.208   4.930  0.5993 -0.7487 -0.2865
   7123SM  H22G 9364   4.689   7.029   4.972 -0.7616 -0.7553  0.5501
   7123SM  C23F 9365   4.513   7.082   4.846 -0.2891 -0.2525  0.1066
   7123SM  H23F 9366   4.492   7.166   4.776 -0.3373  0.3901  0.8651
   7123SM  H23G 9367   4.453   7.089   4.939  0.5383  0.7563  0.5957
   7123SM  H23H 9368   4.498   6.983   4.799 -0.7797 -0.1967  0.1458
   7223SM     N 9369   7.443   3.005   6.843  0.7113 -0.0699  0.5148
   7223SM   C15 9370   7.570   3.069   6.887 -0.0856 -0.0169  0.4612
   7223SM  H15A 9371   7.584   3.071   6.994  1.0878 -1.7009  0.3773
   7223SM  H15B 9372   7.574   3.161   6.831 -0.8277 -0.6796 -0.7297
   7223SM  H15C 9373   7.654   3.009   6.855  0.7824  0.3455  1.9825
   7223SM   C14 9374   7.436   3.019   6.690  0.4990 -0.3697  0.2377
   7223SM  H14A 9375   7.458   3.122   6.665  0.3917 -0.3469  0.2379
   7223SM  H14B 9376   7.342   2.984   6.651  0.6424  0.0063 -0.4610
   7223SM  H14C 9377   7.507   2.951   6.645 -0.9082 -3.0624  1.8806
   7223SM   C13 9378   7.438   2.855   6.870 -0.5229  0.5331 -0.1964
   7223SM  H13A 9379   7.429   2.836   6.976 -1.1517 -0.0211 -0.3433
   7223SM  H13B 9380   7.536   2.821   6.842  0.2544  0.9563  1.8245
   7223SM  H13C 9381   7.359   2.801   6.820 -1.6812  3.3323 -1.6639
   7223SM   C12 9382   7.327   3.070   6.915  0.5414  0.0405 -0.0138
   7223SM  H12A 9383   7.338   3.064   7.022 -1.4597  0.4087  0.2488
   7223SM  H12B 9384   7.232   3.019   6.910  1.0255 -0.7764 -2.7027
   7223SM   C11 9385   7.293   3.220   6.873  0.3029 -0.3406 -0.3107
   7223SM  H11A 9386   7.202   3.246   6.931  0.9794 -0.5099  0.8604
   7223SM  H11B 9387   7.259   3.229   6.767 -2.1464  1.6864  0.5538
   7223SM     P 9388   7.411   3.448   6.960 -0.0783 -0.0998  0.2880
   7223SM   O13 9389   7.300   3.531   6.906 -0.2901  0.3052 -0.0673
   7223SM   O14 9390   7.417   3.438   7.106  0.3358 -0.4145  0.5097
   7223SM   O11 9391   7.540   3.518   6.906  0.0548  0.4466 -0.2562
   7223SM   O12 9392   7.401   3.306   6.889 -0.6379 -0.2421 -0.7229
   7223SM   C1S 9393   7.625   3.460   6.804 -0.2425  0.0969 -0.3117
   7223SM   H1S 9394   7.635   3.350   6.816 -0.8510  0.3341  3.9162
   7223SM   H1T 9395   7.733   3.483   6.815 -0.4557  0.8935  0.1440
   7223SM    NF 9396   7.665   3.452   6.558 -0.0140 -0.4514  0.6701
   7223SM   HNF 9397   7.756   3.492   6.551 -0.3800  0.3826  0.5077
   7223SM   C2S 9398   7.583   3.513   6.663 -0.6489 -0.0049  0.4603
   7223SM   H2S 9399   7.476   3.486   6.650 -1.1938  1.9022  0.6950
   7223SM   C3S 9400   7.577   3.669   6.653  0.2999  0.4241 -0.1376
   7223SM   H3S 9401   7.674   3.716   6.680  0.5818 -1.2540  2.0428
   7223SM    O3 9402   7.482   3.733   6.740  0.3473  0.4239  0.2371
   7223SM   HO3 9403   7.451   3.659   6.793  3.1240 -0.9661  0.0953
   7223SM   C4S 9404   7.542   3.699   6.512 -0.1630 -0.3842 -0.1916
   7223SM   H4S 9405   7.631   3.725   6.453 -1.5901 -0.8744 -2.6992
   7223SM   C5S 9406   7.421   3.705   6.455 -0.0772 -0.4452  0.1640
   7223SM   H5S 9407   7.335   3.698   6.523  0.1274 -1.4015  0.3276
   7223SM   C6S 9408   7.388   3.741   6.314  0.2638  0.3095  0.6646
   7223SM   H6S 9409   7.441   3.832   6.280  0.2912 -0.0426 -0.2665
   7223SM   H6T 9410   7.279   3.762   6.305 -0.1868 -2.6387 -2.6679
   7223SM   C7S 9411   7.394   3.633   6.209  0.0821 -0.6649  0.2218
   7223SM   H7S 9412   7.373   3.532   6.252  0.2084 -1.0688 -0.6453
   7223SM   H7T 9413   7.501   3.636   6.181  0.9384 -0.9782  3.1393
   7223SM   C8S 9414   7.307   3.667   6.089 -0.0719  0.4805  0.2022
   7223SM   H8S 9415   7.341   3.768   6.059 -0.2696  0.6038  0.3937
   7223SM   H8T 9416   7.199   3.662   6.111 -0.9698 -0.3308 -3.7021
   7223SM   C9S 9417   7.334   3.564   5.981  0.1207 -0.3972 -0.0453
   7223SM   H9S 9418   7.307   3.461   6.011 -0.4503 -0.4066 -0.5873
   7223SM   H9T 9419   7.443   3.554   5.958  0.0793 -1.6068  0.2277
   7223SM  C10S 9420   7.269   3.592   5.842  0.1160  0.2088  0.5604
   7223SM  H10S 9421   7.271   3.700   5.814 -2.8062  0.7495  2.0295
   7223SM  H10T 9422   7.161   3.569   5.852 -0.1246  1.3246  0.6450
   7223SM  C11S 9423   7.327   3.508   5.729  0.3397  0.4061  0.1354
   7223SM  H11S 9424   7.317   3.403   5.764  1.3689  0.4148  0.4918
   7223SM  H11T 9425   7.435   3.523   5.710  0.3766  2.7232  1.7673
   7223SM  C12S 9426   7.242   3.531   5.601  1.0048  0.1432 -0.7787
   7223SM  H12S 9427   7.273   3.628   5.557  3.4495 -0.6393 -0.9436
   7223SM  H12T 9428   7.133   3.530   5.624  1.4176 -0.9092  1.3634
   7223SM  C13S 9429   7.255   3.410   5.502  0.1234 -0.3108 -0.4377
   7223SM  H13S 9430   7.218   3.315   5.547 -0.1169  0.6394  1.4309
   7223SM  H13T 9431   7.362   3.422   5.475  0.2559 -0.1173  0.1717
   7223SM  C14S 9432   7.178   3.428   5.383  0.2379 -0.2037  0.5750
   7223SM  H14S 9433   7.214   3.519   5.329  0.8210 -0.2739  0.8380
   7223SM  H14T 9434   7.069   3.443   5.394  0.2191  0.8409 -0.7056
   7223SM  C15S 9435   7.191   3.315   5.278 -0.5012 -0.1405  0.4393
   7223SM  H15S 9436   7.135   3.224   5.310 -1.5903  0.3441 -0.0338
   7223SM  H15T 9437   7.299   3.287   5.278 -0.3688  0.2090 -1.5665
   7223SM  C16S 9438   7.137   3.366   5.140 -0.1451  0.6933  0.8419
   7223SM  H16S 9439   7.200   3.452   5.109 -1.9230  1.7556  0.0131
   7223SM  H16T 9440   7.033   3.403   5.149 -0.3199  0.8273 -1.2476
   7223SM  C17S 9441   7.160   3.261   5.026  0.3052 -0.2505 -0.2454
   7223SM  H17S 9442   7.103   3.170   5.054 -0.9791 -0.0714 -2.0934
   7223SM  H17T 9443   7.268   3.240   5.007  0.0670 -1.1882 -0.6118
   7223SM  C18S 9444   7.108   3.325   4.898 -0.1909  0.0449  0.1734
   7223SM  H18S 9445   7.166   3.278   4.815  0.2774 -1.1096  1.1221
   7223SM  H18T 9446   7.129   3.433   4.883 -1.1662  0.0957 -0.9567
   7223SM  H18U 9447   7.000   3.303   4.884  0.3651 -3.0655  0.0893
   7223SM   C1F 9448   7.648   3.328   6.518 -0.9601 -0.2211 -0.6283
   7223SM    OF 9449   7.544   3.267   6.528 -0.2306 -0.6003 -0.4513
   7223SM   C2F 9450   7.759   3.257   6.454 -0.4175  0.6839 -0.1493
   7223SM   H2F 9451   7.775   3.157   6.500  2.5818  0.4864 -1.3973
   7223SM   H2G 9452   7.848   3.323   6.443  1.4940 -1.5375  0.9979
   7223SM   C3F 9453   7.711   3.236   6.307 -0.1261  0.5279 -0.8255
   7223SM   H3F 9454   7.609   3.191   6.307 -0.2244  0.7517 -0.6522
   7223SM   H3G 9455   7.773   3.153   6.267 -1.6832 -1.4621  0.6588
   7223SM   C4F 9456   7.718   3.353   6.213  0.4459  0.2071  0.3035
   7223SM   H4F 9457   7.821   3.388   6.191  0.4259 -1.3870 -2.8695
   7223SM   H4G 9458   7.655   3.433   6.257 -1.8812 -0.4960 -1.5403
   7223SM   C5F 9459   7.642   3.322   6.080 -0.2935  0.2686 -0.3945
   7223SM   H5F 9460   7.627   3.421   6.031 -1.1550  1.5800  2.2926
   7223SM   H5G 9461   7.545   3.275   6.106  0.6204 -2.6204 -1.8062
   7223SM   C6F 9462   7.721   3.233   5.974 -0.1491  0.3243  0.1383
   7223SM   H6F 9463   7.725   3.127   6.004 -0.1237  0.3492  0.2211
   7223SM   H6G 9464   7.830   3.251   5.964  0.1280 -1.3488 -0.0593
   7223SM   C7F 9465   7.649   3.239   5.842 -0.1557  0.2384  0.2850
   7223SM   H7F 9466   7.712   3.197   5.760 -1.3904  0.2356 -0.6962
   7223SM   H7G 9467   7.601   3.334   5.814 -0.0286 -0.2683 -1.8290
   7223SM   C8F 9468   7.536   3.131   5.831 -0.5071  0.1352  0.5125
   7223SM   H8F 9469   7.434   3.176   5.834 -0.2084  1.2045 -2.3095
   7223SM   H8G 9470   7.534   3.061   5.917  1.2448  0.7700  1.1028
   7223SM   C9F 9471   7.541   3.041   5.706 -0.3300  0.1483  0.3555
   7223SM   H9F 9472   7.478   2.950   5.715  0.4884 -0.3451  1.1233
   7223SM   H9G 9473   7.643   3.000   5.693 -1.2862 -1.9154 -1.4444
   7223SM  C10F 9474   7.507   3.121   5.574 -0.6328  0.2062  1.0277
   7223SM  H10F 9475   7.590   3.191   5.551 -0.1231 -0.2303  1.5225
   7223SM  H10G 9476   7.424   3.192   5.593 -1.9547 -0.8218 -0.6188
   7223SM  C11F 9477   7.488   3.041   5.447 -0.9416 -0.1055 -0.3931
   7223SM  H11F 9478   7.444   3.104   5.367 -1.9093  0.0236  0.2111
   7223SM  H11G 9479   7.425   2.953   5.474  0.5792 -1.7132 -1.8140
   7223SM  C12F 9480   7.613   2.983   5.397  0.1136  0.5840  0.1463
   7223SM  H12F 9481   7.658   2.897   5.451 -1.2053 -0.7974 -0.8684
   7223SM  H12G 9482   7.686   3.065   5.413  0.7333  0.8353 -3.2290
   7223SM  C13F 9483   7.599   2.938   5.251 -0.0270  0.3143  0.8051
   7223SM  H13F 9484   7.493   2.948   5.219  0.2342 -1.8492 -1.0185
   7223SM  H13G 9485   7.626   2.832   5.231  1.0262  0.9653 -1.6384
   7223SM  C14F 9486   7.673   3.035   5.145  0.6688  1.1049  0.8399
   7223SM  H14F 9487   7.665   2.990   5.044 -3.6642 -0.2506  1.5768
   7223SM  H14G 9488   7.779   3.040   5.176  0.2276  1.9789  2.3116
   7223SM  C15F 9489   7.623   3.181   5.148 -0.1766 -0.2114 -0.6504
   7223SM  H15F 9490   7.642   3.217   5.251 -0.9532  0.2803 -0.6737
   7223SM  H15G 9491   7.514   3.182   5.124 -1.0355 -0.2768  2.7806
   7223SM  C16F 9492   7.698   3.280   5.055 -0.1904 -0.6150  0.1667
   7223SM  H16F 9493   7.677   3.259   4.947  0.8934  0.3649 -0.2537
   7223SM  H16G 9494   7.804   3.254   5.073  0.0552 -0.4101 -0.8837
   7223SM  C17F 9495   7.671   3.428   5.087  0.0637  0.3025  0.1495
   7223SM  H17F 9496   7.738   3.488   5.022  0.5706 -1.0594 -0.6352
   7223SM  H17G 9497   7.708   3.447   5.190  1.8178 -0.3197 -0.3438
   7223SM  C18F 9498   7.525   3.484   5.059  0.1357  0.1778  0.0972
   7223SM  H18F 9499   7.453   3.435   5.129 -1.4920  2.1949 -0.0693
   7223SM  H18G 9500   7.482   3.456   4.961 -0.1659  0.8812  0.0237
   7223SM  C19F 9501   7.507   3.637   5.073 -0.1187 -0.4555  0.2142
   7223SM  H19F 9502   7.579   3.683   5.002 -1.0769  2.4923  1.0000
   7223SM  H19G 9503   7.536   3.662   5.177  0.4253 -1.9734  0.4500
   7223SM  C20F 9504   7.369   3.695   5.046  0.3388  0.6676  0.5965
   7223SM  H20F 9505   7.300   3.659   5.125 -0.1507  2.5643  1.0775
   7223SM  H20G 9506   7.337   3.663   4.944  0.8012  1.3037  0.2467
   7223SM  C21F 9507   7.373   3.843   5.058  1.0808  0.2703 -0.1653
   7223SM  H21F 9508   7.408   3.874   5.159 -1.5026  2.5188  0.1591
   7223SM  H21G 9509   7.265   3.866   5.056  0.7649 -1.1979 -0.9522
   7223SM  C22F 9510   7.433   3.928   4.946 -0.6229  0.6054  0.6047
   7223SM  H22F 9511   7.405   3.887   4.846  0.1574 -1.0503  1.0423
   7223SM  H22G 9512   7.544   3.923   4.951 -0.6923 -0.3004  1.5934
   7223SM  C23F 9513   7.382   4.068   4.952  0.2249 -0.0127  0.1781
   7223SM  H23F 9514   7.272   4.068   4.934  0.4183 -0.6752 -1.1184
   7223SM  H23G 9515   7.437   4.140   4.887  0.4154  1.5270  1.9476
   7223SM  H23H 9516   7.408   4.122   5.045  3.6081  0.1368 -0.7361
   7323SM     N 9517   6.142   1.144   7.325  0.3502 -0.3757  0.4889
   7323SM   C15 9518   6.283   1.197   7.342 -0.4525  0.0525  0.0713
   7323SM  H15A 9519   6.340   1.143   7.269 -0.9168  1.4737 -1.4044
   7323SM  H15B 9520   6.318   1.173   7.441  1.6307  0.1858 -0.5944
   7323SM  H15C 9521   6.291   1.303   7.324  0.0085  0.1079  0.6062
   7323SM   C14 9522   6.137   0.998   7.352  0.0100  0.0644 -0.0021
   7323SM  H14A 9523   6.037   0.959   7.359 -0.2496  0.7456  0.1537
   7323SM  H14B 9524   6.184   0.960   7.442 -1.7462 -3.6943 -0.4614
   7323SM  H14C 9525   6.176   0.940   7.269 -0.6361 -1.6550  0.8403
   7323SM   C13 9526   6.058   1.211   7.431  0.3331  0.0497  0.4412
   7323SM  H13A 9527   6.109   1.197   7.525 -1.3756  0.0331  1.4055
   7323SM  H13B 9528   5.960   1.165   7.436 -0.6312  2.0948  1.5541
   7323SM  H13C 9529   6.062   1.317   7.410 -1.3914 -0.4052 -2.9775
   7323SM   C12 9530   6.084   1.168   7.191 -0.9022 -0.1586 -0.1503
   7323SM  H12A 9531   6.075   1.276   7.183 -2.4655 -0.1921  0.7052
   7323SM  H12B 9532   5.990   1.117   7.176 -1.1096  0.2290 -0.1934
   7323SM   C11 9533   6.174   1.130   7.067 -0.7247 -0.4414  0.3784
   7323SM  H11A 9534   6.274   1.177   7.085 -1.0748  0.7019 -0.5405
   7323SM  H11B 9535   6.134   1.168   6.970  1.5572  0.0047 -0.4571
   7323SM     P 9536   6.091   0.886   7.007 -0.1735 -0.1342 -0.2029
   7323SM   O13 9537   6.155   0.757   7.039 -0.7437  0.1281  0.4425
   7323SM   O14 9538   5.950   0.907   7.058  0.0477  0.2058 -0.3788
   7323SM   O11 9539   6.084   0.908   6.850  0.0957  0.2924 -0.0952
   7323SM   O12 9540   6.196   0.985   7.055 -0.1598 -0.0772  0.3055
   7323SM   C1S 9541   6.213   0.925   6.786  0.1382 -0.0056 -0.4635
   7323SM   H1S 9542   6.290   0.853   6.821  1.3215  0.9847 -1.0056
   7323SM   H1T 9543   6.251   1.029   6.793  1.5611 -0.3462 -2.5543
   7323SM    NF 9544   6.318   0.875   6.565 -0.0367  0.4977 -0.4752
   7323SM   HNF 9545   6.360   0.948   6.511 -0.1759 -0.0778 -1.3601
   7323SM   C2S 9546   6.194   0.907   6.630  0.8705  1.0127 -0.7047
   7323SM   H2S 9547   6.120   0.824   6.626  2.0956 -0.0719 -1.5915
   7323SM   C3S 9548   6.128   1.036   6.570 -0.0705  1.0469  0.4017
   7323SM   H3S 9549   6.201   1.121   6.575  0.8612  0.2027  2.5544
   7323SM    O3 9550   6.018   1.086   6.641  0.1066 -0.4023  0.1820
   7323SM   HO3 9551   6.032   1.057   6.732 -3.5883  0.7823  1.3441
   7323SM   C4S 9552   6.088   1.011   6.425 -0.0084  0.5772 -0.0702
   7323SM   H4S 9553   6.169   1.052   6.363  0.5335  1.2140  1.0367
   7323SM   C5S 9554   5.980   0.955   6.373 -0.2283  0.6826 -0.8246
   7323SM   H5S 9555   5.920   0.897   6.445  0.7043  1.0578  0.3035
   7323SM   C6S 9556   5.954   0.929   6.230  0.1303 -0.2069  0.5115
   7323SM   H6S 9557   5.884   1.007   6.192 -0.5294  0.5050  3.0254
   7323SM   H6T 9558   5.925   0.823   6.212  1.2627 -0.2464 -1.4037
   7323SM   C7S 9559   6.083   0.938   6.144  0.5219 -0.1894 -0.1314
   7323SM   H7S 9560   6.154   0.859   6.177 -2.1056 -3.2882 -1.3746
   7323SM   H7T 9561   6.122   1.041   6.156 -0.7873  0.2225  0.6799
   7323SM   C8S 9562   6.062   0.914   5.992  0.3066  0.3498 -0.3112
   7323SM   H8S 9563   6.139   0.966   5.931 -0.4863 -0.8301 -2.4239
   7323SM   H8T 9564   5.968   0.961   5.958  1.1905  1.8278 -0.7850
   7323SM   C9S 9565   6.047   0.766   5.955 -0.3788 -0.6324  0.5315
   7323SM   H9S 9566   5.967   0.720   6.017  0.4619 -1.1479  1.2657
   7323SM   H9T 9567   6.143   0.717   5.982 -0.0691  0.1005  0.7842
   7323SM  C10S 9568   6.029   0.746   5.800  0.0496 -0.2823  0.5782
   7323SM  H10S 9569   5.927   0.777   5.771  0.1646 -0.8964 -0.5296
   7323SM  H10T 9570   6.047   0.637   5.787  0.0961 -0.0302 -2.0717
   7323SM  C11S 9571   6.115   0.834   5.712 -0.3807 -0.1246 -0.4156
   7323SM  H11S 9572   6.216   0.824   5.758 -1.0563 -0.7629  0.9900
   7323SM  H11T 9573   6.091   0.942   5.718  1.6092  0.2797  1.6827
   7323SM  C12S 9574   6.120   0.784   5.568 -0.4994  0.1640 -0.2927
   7323SM  H12S 9575   6.140   0.675   5.562  0.2494  0.1840  1.4072
   7323SM  H12T 9576   6.207   0.833   5.518 -1.0540  1.7771  0.2808
   7323SM  C13S 9577   5.991   0.822   5.492 -0.0311  0.4191  0.2456
   7323SM  H13S 9578   6.021   0.843   5.387 -0.1736  2.2333  0.5451
   7323SM  H13T 9579   5.954   0.918   5.534 -0.6151 -0.2109  1.1997
   7323SM  C14S 9580   5.886   0.707   5.483 -0.3104  0.2812 -0.4307
   7323SM  H14S 9581   5.798   0.764   5.447  2.0089  3.0513 -2.2648
   7323SM  H14T 9582   5.845   0.669   5.579 -0.2482 -1.0089 -0.8926
   7323SM  C15S 9583   5.913   0.595   5.379 -0.1550 -0.4697  0.2917
   7323SM  H15S 9584   5.930   0.639   5.278 -2.1145  0.8082  0.4714
   7323SM  H15T 9585   5.818   0.539   5.379 -0.0792 -0.6432 -1.3019
   7323SM  C16S 9586   6.029   0.502   5.420 -0.0841 -0.0097  0.2346
   7323SM  H16S 9587   6.027   0.469   5.527 -0.1141 -0.1557  0.1886
   7323SM  H16T 9588   6.127   0.552   5.400  0.0797 -1.0125 -1.6164
   7323SM  C17S 9589   6.035   0.376   5.334  0.3827  0.2279  0.3046
   7323SM  H17S 9590   5.930   0.344   5.321 -0.3327  2.1265  0.9384
   7323SM  H17T 9591   6.085   0.292   5.386  1.5259 -0.7744 -2.2920
   7323SM  C18S 9592   6.093   0.387   5.193 -0.0155  0.0814  0.3475
   7323SM  H18S 9593   6.025   0.437   5.121 -0.5446  1.0895  1.5001
   7323SM  H18T 9594   6.113   0.286   5.151  1.7286  0.7873 -0.6077
   7323SM  H18U 9595   6.188   0.445   5.197  0.0596  0.0816 -1.0926
   7323SM   C1F 9596   6.374   0.758   6.574 -0.6874 -0.1980 -0.0812
   7323SM    OF 9597   6.308   0.668   6.633  0.0219 -0.4630  0.0483
   7323SM   C2F 9598   6.515   0.733   6.522 -0.2424  0.6382 -0.0013
   7323SM   H2F 9599   6.575   0.687   6.603  0.3920 -2.8627 -2.2585
   7323SM   H2G 9600   6.563   0.830   6.498  1.1608  0.7479  2.8817
   7323SM   C3F 9601   6.527   0.634   6.411  0.2795 -0.0728 -0.1976
   7323SM   H3F 9602   6.476   0.672   6.320 -0.0387 -3.7524 -1.7290
   7323SM   H3G 9603   6.474   0.542   6.443 -0.6705  0.5393  0.0167
   7323SM   C4F 9604   6.668   0.612   6.366 -0.0354 -0.0581 -0.0448
   7323SM   H4F 9605   6.706   0.714   6.345 -0.0499 -0.5993 -3.1576
   7323SM   H4G 9606   6.671   0.541   6.281  2.0276  1.8475 -1.6567
   7323SM   C5F 9607   6.759   0.545   6.475 -0.9204 -0.2836 -0.6791
   7323SM   H5F 9608   6.711   0.452   6.515 -1.8787  0.2954 -0.4353
   7323SM   H5G 9609   6.770   0.608   6.566 -1.0426  0.0625 -0.9010
   7323SM   C6F 9610   6.903   0.518   6.430  0.3794 -0.1867 -0.0095
   7323SM   H6F 9611   6.898   0.459   6.335  0.4303  2.3602 -1.6861
   7323SM   H6G 9612   6.946   0.457   6.512 -0.4050 -1.2784 -0.3693
   7323SM   C7F 9613   7.005   0.645   6.407  0.1451 -0.8733 -0.7183
   7323SM   H7F 9614   7.109   0.610   6.427  0.8987  0.9566 -1.2926
   7323SM   H7G 9615   6.991   0.712   6.494 -4.4983 -1.0607 -1.0909
   7323SM   C8F 9616   6.988   0.724   6.275 -0.4752 -0.8456  0.3740
   7323SM   H8F 9617   7.052   0.815   6.281 -0.4632 -0.8180 -0.1556
   7323SM   H8G 9618   6.882   0.759   6.272 -0.3448 -0.3912 -3.0479
   7323SM   C9F 9619   7.011   0.637   6.153 -0.5140  0.3415  0.2778
   7323SM   H9F 9620   6.935   0.558   6.135  0.3989 -0.3063 -0.8388
   7323SM   H9G 9621   7.106   0.581   6.168  0.2566  1.6840  0.4763
   7323SM  C10F 9622   7.020   0.713   6.023 -0.3374  0.2903 -0.1297
   7323SM  H10F 9623   7.088   0.660   5.953  1.1126  0.9811  0.7115
   7323SM  H10G 9624   7.071   0.810   6.042  1.9300 -1.0237  0.8788
   7323SM  C11F 9625   6.887   0.732   5.958  0.1098 -0.4403  0.5796
   7323SM  H11F 9626   6.828   0.804   6.019 -2.7681 -1.3619 -0.9083
   7323SM  H11G 9627   6.840   0.632   5.949  0.0382 -0.5391  1.8674
   7323SM  C12F 9628   6.902   0.798   5.818  0.2383  0.1950  0.5208
   7323SM  H12F 9629   6.808   0.802   5.758  1.6525 -1.9813 -2.0734
   7323SM  H12G 9630   6.975   0.734   5.764  0.5600 -0.0750  1.2619
   7323SM  C13F 9631   6.951   0.939   5.821 -0.2527  0.2072 -0.3166
   7323SM  H13F 9632   7.061   0.949   5.816  0.0538 -2.5346 -0.2701
   7323SM  H13G 9633   6.920   0.978   5.921  0.1923 -1.4217  0.4905
   7323SM  C14F 9634   6.893   1.025   5.704 -0.0263  0.0482 -0.1638
   7323SM  H14F 9635   6.922   1.131   5.722  1.1610 -0.4664  1.0821
   7323SM  H14G 9636   6.782   1.026   5.702 -0.0286 -0.5843 -1.4599
   7323SM  C15F 9637   6.957   0.983   5.563 -0.5550  0.5431  0.6025
   7323SM  H15F 9638   6.908   0.887   5.533 -0.7895  0.4119  1.3795
   7323SM  H15G 9639   7.066   0.967   5.574 -0.1132  0.2488 -3.0000
   7323SM  C16F 9640   6.932   1.094   5.460 -0.0137 -0.5237 -0.1273
   7323SM  H16F 9641   6.990   1.178   5.503 -1.5206  0.0607  0.8598
   7323SM  H16G 9642   6.826   1.126   5.452  0.3345  0.5004 -0.8319
   7323SM  C17F 9643   6.971   1.052   5.321  0.0970 -0.6036  0.0318
   7323SM  H17F 9644   6.902   0.967   5.300 -0.0785 -0.6996  0.9203
   7323SM  H17G 9645   7.071   1.005   5.316  1.3794  1.5546  2.6195
   7323SM  C18F 9646   6.959   1.166   5.219  0.3988  0.4969  0.1016
   7323SM  H18F 9647   7.014   1.251   5.264 -0.3876  1.0500  0.0364
   7323SM  H18G 9648   6.856   1.191   5.187 -0.4052 -1.4647  0.9950
   7323SM  C19F 9649   7.032   1.126   5.091 -0.4109 -0.1768 -0.3391
   7323SM  H19F 9650   6.978   1.035   5.060 -0.9070 -0.7714  2.0237
   7323SM  H19G 9651   7.133   1.083   5.108  0.0384  0.6626 -0.8726
   7323SM  C20F 9652   7.024   1.226   4.976 -0.6193 -0.3345  0.0229
   7323SM  H20F 9653   6.918   1.257   4.967 -0.4598  1.7620  3.5234
   7323SM  H20G 9654   7.064   1.176   4.885  3.5212  1.8675  0.4034
   7323SM  C21F 9655   7.116   1.346   5.006 -0.5044 -0.0737  0.4077
   7323SM  H21F 9656   7.219   1.311   5.031 -0.0690  1.6631  1.2745
   7323SM  H21G 9657   7.071   1.405   5.088 -0.8697 -0.6686  0.6391
   7323SM  C22F 9658   7.150   1.427   4.885  0.3600 -0.1908 -0.3887
   7323SM  H22F 9659   7.056   1.468   4.842 -1.2841 -1.4627  1.7964
   7323SM  H22G 9660   7.204   1.360   4.814 -0.4991 -1.5447  0.1962
   7323SM  C23F 9661   7.234   1.546   4.906  0.0212 -0.4473  0.4935
   7323SM  H23F 9662   7.185   1.611   4.982 -0.7279  1.2604 -1.3556
   7323SM  H23G 9663   7.243   1.601   4.809 -0.6082 -1.6695 -0.2766
   7323SM  H23H 9664   7.331   1.514   4.949 -0.1016 -1.8851 -0.2363
   7423SM     N 9665   2.360   6.082   6.532 -0.1356 -1.1811 -0.0147
   7423SM   C15 9666   2.490   6.148   6.480  0.4178  0.2036 -0.0058
   7423SM  H15A 9667   2.482   6.145   6.372 -1.6805 -2.0097  0.1072
   7423SM  H15B 9668   2.575   6.090   6.514 -1.0332 -1.0791  1.6394
   7423SM  H15C 9669   2.492   6.247   6.523  1.0286  0.2753 -0.2036
   7423SM   C14 9670   2.359   6.098   6.682  0.6671 -0.4501 -0.3367
   7423SM  H14A 9671   2.275   6.037   6.713  1.7319 -2.5255 -1.3115
   7423SM  H14B 9672   2.353   6.197   6.724  2.5814 -0.2845 -0.3799
   7423SM  H14C 9673   2.448   6.058   6.727  0.9196  1.8612  1.3473
   7423SM   C13 9674   2.237   6.165   6.484  1.0715  0.1719 -0.6082
   7423SM  H13A 9675   2.241   6.273   6.493 -1.1214  0.4220 -1.9448
   7423SM  H13B 9676   2.146   6.142   6.539  1.1639  1.2498  0.0266
   7423SM  H13C 9677   2.217   6.146   6.380 -0.7530  1.8153 -0.6234
   7423SM   C12 9678   2.352   5.944   6.495 -0.4428 -0.7262  0.3622
   7423SM  H12A 9679   2.417   5.896   6.566  1.2598  1.4598  0.3951
   7423SM  H12B 9680   2.389   5.933   6.394 -0.2846  0.0044  0.3360
   7423SM   C11 9681   2.205   5.875   6.501 -0.7128 -0.6349 -0.2681
   7423SM  H11A 9682   2.224   5.776   6.455 -0.3893 -1.1233  0.9030
   7423SM  H11B 9683   2.136   5.931   6.433 -0.1040  0.5331  0.0461
   7423SM     P 9684   2.022   5.867   6.685  0.2406  0.0967 -0.1353
   7423SM   O13 9685   1.994   5.766   6.790  0.6400 -0.4283 -0.0142
   7423SM   O14 9686   1.991   6.007   6.721  0.3613  0.1165 -0.7471
   7423SM   O11 9687   1.943   5.832   6.554 -0.2407 -0.4253  0.6654
   7423SM   O12 9688   2.171   5.861   6.637 -0.0610  0.0286 -0.6351
   7423SM   C1S 9689   1.933   5.701   6.494 -0.2002  0.6727 -0.0878
   7423SM   H1S 9690   1.901   5.622   6.566  1.1455 -2.2953 -2.5247
   7423SM   H1T 9691   2.037   5.674   6.465  0.7141  3.1233  0.6671
   7423SM    NF 9692   1.813   5.556   6.341 -0.2851  0.1478 -0.4318
   7423SM   HNF 9693   1.887   5.508   6.295 -0.6980  0.0078 -0.9658
   7423SM   C2S 9694   1.839   5.696   6.373  0.1460 -0.2708 -0.1885
   7423SM   H2S 9695   1.741   5.744   6.391 -0.5680 -1.7287 -0.0080
   7423SM   C3S 9696   1.907   5.779   6.267 -0.2531 -0.7497  0.5309
   7423SM   H3S 9697   2.015   5.758   6.255 -0.0849 -1.3611  2.7325
   7423SM    O3 9698   1.904   5.919   6.303  1.0933  0.6105  0.3993
   7423SM   HO3 9699   1.918   5.919   6.398  1.6590 -0.0470  0.3238
   7423SM   C4S 9700   1.835   5.782   6.132  1.1942  0.1265  0.3646
   7423SM   H4S 9701   1.744   5.842   6.119  0.5380 -1.0623 -0.6597
   7423SM   C5S 9702   1.892   5.727   6.022 -0.3462 -0.8790  0.4064
   7423SM   H5S 9703   1.980   5.663   6.037  1.0363  0.8709  0.1373
   7423SM   C6S 9704   1.820   5.733   5.889  0.9289  0.1336  0.5248
   7423SM   H6S 9705   1.882   5.705   5.801 -2.4101  1.8126 -2.6968
   7423SM   H6T 9706   1.773   5.833   5.870 -0.9376 -0.5640  1.2358
   7423SM   C7S 9707   1.682   5.652   5.877  0.2124 -0.2019  0.5006
   7423SM   H7S 9708   1.649   5.653   5.771  1.3307  0.4402  0.1527
   7423SM   H7T 9709   1.609   5.715   5.932  0.1081 -1.2988  1.6534
   7423SM   C8S 9710   1.701   5.505   5.926  0.2701 -0.3430 -0.5509
   7423SM   H8S 9711   1.601   5.459   5.937 -0.0083  0.4065  0.1970
   7423SM   H8T 9712   1.755   5.508   6.024  0.8338  1.1138 -0.8775
   7423SM   C9S 9713   1.776   5.411   5.834  0.7867 -0.0160 -0.2624
   7423SM   H9S 9714   1.881   5.445   5.817  0.3174  1.3098 -0.6351
   7423SM   H9T 9715   1.717   5.403   5.741  1.2061  0.8974 -0.6178
   7423SM  C10S 9716   1.775   5.267   5.900  0.0773  0.0232  0.5512
   7423SM  H10S 9717   1.670   5.238   5.920 -0.5893  3.2045  2.2808
   7423SM  H10T 9718   1.822   5.266   6.001  1.0974 -2.5810  0.1387
   7423SM  C11S 9719   1.850   5.160   5.810 -0.0554  0.1719  0.0549
   7423SM  H11S 9720   1.868   5.076   5.880  1.2035  1.9569  1.9955
   7423SM  H11T 9721   1.951   5.202   5.788 -0.4726 -0.1852 -2.8941
   7423SM  C12S 9722   1.780   5.101   5.679  0.3826 -0.1440 -0.1788
   7423SM  H12S 9723   1.839   5.016   5.638 -1.8581 -1.3951 -0.9550
   7423SM  H12T 9724   1.758   5.173   5.598  0.1364  0.4763  0.4280
   7423SM  C13S 9725   1.651   5.011   5.720  0.1554  0.1030 -0.1992
   7423SM  H13S 9726   1.557   5.067   5.738 -1.0127 -1.4656 -1.1177
   7423SM  H13T 9727   1.676   4.944   5.806 -0.1550 -0.3902 -0.4847
   7423SM  C14S 9728   1.615   4.919   5.609  0.0015 -0.1201 -0.4286
   7423SM  H14S 9729   1.706   4.875   5.562  0.1510  0.5930 -0.8121
   7423SM  H14T 9730   1.567   4.968   5.522 -1.0672 -0.0913  0.1657
   7423SM  C15S 9731   1.528   4.800   5.660  0.9225 -0.2884 -0.5278
   7423SM  H15S 9732   1.589   4.739   5.730 -0.3242  0.9847  1.8280
   7423SM  H15T 9733   1.498   4.744   5.569  1.6261 -0.7091 -0.5058
   7423SM  C16S 9734   1.398   4.842   5.732 -0.2420  0.0382 -0.4036
   7423SM  H16S 9735   1.404   4.890   5.832 -2.4536  0.1567 -0.2758
   7423SM  H16T 9736   1.333   4.753   5.749 -0.7541  0.3406 -0.7311
   7423SM  C17S 9737   1.319   4.954   5.648 -0.4931 -0.1496 -1.2191
   7423SM  H17S 9738   1.313   4.925   5.540  0.8254  0.8873 -1.5917
   7423SM  H17T 9739   1.362   5.053   5.673 -0.6267 -0.3561 -0.1533
   7423SM  C18S 9740   1.175   4.972   5.697  0.0598  0.3832  0.5779
   7423SM  H18S 9741   1.162   4.988   5.806  0.6125 -1.3008  0.9308
   7423SM  H18T 9742   1.124   4.876   5.673 -1.5429  2.0102 -3.4120
   7423SM  H18U 9743   1.122   5.045   5.633 -0.4686 -1.6665 -1.4757
   7423SM   C1F 9744   1.718   5.484   6.410 -0.2140 -0.0968 -0.5621
   7423SM    OF 9745   1.632   5.531   6.486 -0.2436  0.2896  0.1298
   7423SM   C2F 9746   1.732   5.339   6.387  0.0810  0.9745  0.9192
   7423SM   H2F 9747   1.767   5.292   6.481  1.3205 -0.6625 -0.2851
   7423SM   H2G 9748   1.813   5.313   6.315  0.4971 -1.8154  2.2701
   7423SM   C3F 9749   1.601   5.263   6.363 -0.0842 -0.0378 -0.3652
   7423SM   H3F 9750   1.551   5.302   6.272 -1.6317 -1.0376  0.0087
   7423SM   H3G 9751   1.536   5.279   6.452  0.4719 -0.7692  0.1912
   7423SM   C4F 9752   1.608   5.109   6.335  0.2628 -0.0086 -0.0811
   7423SM   H4F 9753   1.668   5.062   6.416 -0.5107 -0.6403  0.1371
   7423SM   H4G 9754   1.652   5.120   6.234  1.4769  0.7066  0.4978
   7423SM   C5F 9755   1.473   5.036   6.319  0.0041 -0.0206  0.1070
   7423SM   H5F 9756   1.403   5.103   6.265  0.5475  1.0291  0.6664
   7423SM   H5G 9757   1.433   5.008   6.419 -0.2624 -0.6649 -0.1818
   7423SM   C6F 9758   1.493   4.909   6.231  0.5411  0.3071 -0.0657
   7423SM   H6F 9759   1.567   4.850   6.289 -0.1586 -0.7443 -0.2115
   7423SM   H6G 9760   1.530   4.924   6.127 -2.1781 -1.3472 -1.3645
   7423SM   C7F 9761   1.361   4.823   6.217 -0.0713 -0.0408 -0.1255
   7423SM   H7F 9762   1.283   4.881   6.163 -0.5901  0.5405  1.2122
   7423SM   H7G 9763   1.320   4.806   6.318 -1.3969 -0.2150 -0.6759
   7423SM   C8F 9764   1.392   4.688   6.152  0.3576  0.4779  0.5416
   7423SM   H8F 9765   1.460   4.628   6.215 -1.0782 -0.9273  0.8209
   7423SM   H8G 9766   1.444   4.704   6.055 -1.3378  1.3849 -0.2813
   7423SM   C9F 9767   1.272   4.602   6.119 -0.2760 -0.1777  0.4467
   7423SM   H9F 9768   1.199   4.643   6.047  1.3815  1.0670 -0.6040
   7423SM   H9G 9769   1.220   4.573   6.213  3.6995 -1.9665  2.3610
   7423SM  C10F 9770   1.332   4.470   6.067 -0.2886  0.2622  0.3385
   7423SM  H10F 9771   1.269   4.389   6.110 -2.2288  1.5820  0.1167
   7423SM  H10G 9772   1.439   4.459   6.096  0.3196 -0.5906 -2.0035
   7423SM  C11F 9773   1.329   4.449   5.918 -0.1552  0.0490  0.0785
   7423SM  H11F 9774   1.380   4.355   5.891 -2.3347 -0.5210 -2.5142
   7423SM  H11G 9775   1.384   4.533   5.870  0.8739  1.0477  2.8279
   7423SM  C12F 9776   1.197   4.440   5.842 -0.3448 -0.4379  0.0686
   7423SM  H12F 9777   1.114   4.495   5.892 -3.0339 -2.7050 -1.5834
   7423SM  H12G 9778   1.169   4.333   5.857  1.5092 -0.6594  2.4948
   7423SM  C13F 9779   1.200   4.470   5.687 -0.1151 -0.4845 -0.5250
   7423SM  H13F 9780   1.212   4.579   5.677 -1.5712 -0.4669 -2.6777
   7423SM  H13G 9781   1.108   4.429   5.639  0.0696 -0.3947 -0.9556
   7423SM  C14F 9782   1.307   4.402   5.613  0.0552  0.6384 -0.3942
   7423SM  H14F 9783   1.306   4.291   5.624  0.3441  0.7212  0.6675
   7423SM  H14G 9784   1.406   4.436   5.651 -0.6356  1.7070  0.5266
   7423SM  C15F 9785   1.295   4.433   5.465 -0.5421 -1.0396  0.4555
   7423SM  H15F 9786   1.326   4.538   5.443  0.0582 -1.4159 -0.6181
   7423SM  H15G 9787   1.191   4.435   5.427 -0.3476  1.0994 -0.0804
   7423SM  C16F 9788   1.391   4.351   5.377  0.2314  1.1684  0.1836
   7423SM  H16F 9789   1.371   4.243   5.395  1.8415  0.9711  0.9813
   7423SM  H16G 9790   1.498   4.358   5.407  0.7463 -2.3018 -0.3723
   7423SM  C17F 9791   1.386   4.396   5.226  0.4680  0.4380  0.1445
   7423SM  H17F 9792   1.390   4.507   5.218  1.1560  0.4450  0.4741
   7423SM  H17G 9793   1.285   4.386   5.182 -0.4549  2.3524  1.6593
   7423SM  C18F 9794   1.483   4.325   5.137 -0.3947 -0.6902 -0.1862
   7423SM  H18F 9795   1.513   4.222   5.168  2.1536 -0.3414 -1.2919
   7423SM  H18G 9796   1.574   4.386   5.150 -0.4194 -1.2311  4.1523
   7423SM  C19F 9797   1.423   4.306   4.993 -0.3710  0.1232  0.4207
   7423SM  H19F 9798   1.394   4.405   4.953  2.3451  1.0948  0.6076
   7423SM  H19G 9799   1.328   4.250   4.998  0.6929 -1.6991  3.7345
   7423SM  C20F 9800   1.527   4.244   4.896 -0.0134 -1.0845 -0.7511
   7423SM  H20F 9801   1.599   4.179   4.951 -0.1462  0.0764  0.8542
   7423SM  H20G 9802   1.581   4.329   4.848  0.1086  2.0195  4.1908
   7423SM  C21F 9803   1.462   4.161   4.784  0.8400  0.0316  0.6678
   7423SM  H21F 9804   1.529   4.146   4.697  1.0259 -0.6864  0.9273
   7423SM  H21G 9805   1.373   4.212   4.740  2.0456  2.5607  1.0026
   7423SM  C22F 9806   1.421   4.021   4.842  0.1059 -0.1763  0.0036
   7423SM  H22F 9807   1.372   4.052   4.937  3.0632 -0.4351  1.7240
   7423SM  H22G 9808   1.506   3.954   4.865  0.5537  0.2045 -0.5139
   7423SM  C23F 9809   1.337   3.934   4.747  0.1358 -0.0185 -0.4730
   7423SM  H23F 9810   1.403   3.893   4.668  2.2580  0.2189  1.0856
   7423SM  H23G 9811   1.256   3.993   4.700 -0.8475 -1.7904 -1.0664
   7423SM  H23H 9812   1.280   3.854   4.800 -0.2719 -0.1180 -1.0582
   7523SM     N 9813   1.520   5.551   6.878 -0.4373  0.8862 -0.6435
   7523SM   C15 9814   1.517   5.503   7.015  0.0506  0.2994  0.5717
   7523SM  H15A 9815   1.416   5.493   7.051 -0.0642 -2.1380 -0.2245
   7523SM  H15B 9816   1.580   5.560   7.082  0.8400 -1.7863  1.6857
   7523SM  H15C 9817   1.559   5.404   7.017 -0.1079  0.2195  0.0870
   7523SM   C14 9818   1.447   5.677   6.865  0.0435 -0.4150 -0.1113
   7523SM  H14A 9819   1.465   5.723   6.769  0.0496 -0.1320  0.0241
   7523SM  H14B 9820   1.468   5.745   6.946 -0.4253  0.2468 -0.5316
   7523SM  H14C 9821   1.341   5.654   6.871 -0.4010  1.0987 -1.5498
   7523SM   C13 9822   1.658   5.569   6.822 -0.3138 -0.3653 -0.0533
   7523SM  H13A 9823   1.658   5.614   6.724  2.7059  1.9803  0.8793
   7523SM  H13B 9824   1.709   5.474   6.818  0.1849 -0.1265  0.5182
   7523SM  H13C 9825   1.725   5.625   6.886 -2.2968  1.4018  0.5819
   7523SM   C12 9826   1.450   5.453   6.777 -0.8349 -0.4470  0.1790
   7523SM  H12A 9827   1.517   5.370   6.760  0.0642  0.6447 -2.0800
   7523SM  H12B 9828   1.454   5.510   6.685  1.4617  2.0238  1.6584
   7523SM   C11 9829   1.314   5.387   6.816  0.2956 -0.1316 -0.3292
   7523SM  H11A 9830   1.348   5.313   6.892  0.6697 -0.8040 -1.1274
   7523SM  H11B 9831   1.288   5.322   6.730  1.3432 -1.9309  0.6344
   7523SM     P 9832   1.142   5.472   6.983 -0.4611  0.2884 -0.3959
   7523SM   O13 9833   1.208   5.368   7.069 -0.1547 -0.4074  0.0346
   7523SM   O14 9834   1.129   5.609   7.036  0.0046  0.1905  0.1940
   7523SM   O11 9835   1.006   5.411   6.949 -0.3209 -0.6380  0.0541
   7523SM   O12 9836   1.223   5.492   6.847 -0.4418  0.5536  0.4878
   7523SM   C1S 9837   0.914   5.479   6.868  0.3821 -0.8349  0.4055
   7523SM   H1S 9838   0.898   5.585   6.895  0.1768 -0.5053 -0.9366
   7523SM   H1T 9839   0.814   5.432   6.882  0.1748 -0.1652  1.2451
   7523SM    NF 9840   0.827   5.542   6.629 -0.7373  0.0951  0.2214
   7523SM   HNF 9841   0.755   5.493   6.581  0.1094 -1.1368  0.1409
   7523SM   C2S 9842   0.932   5.464   6.703 -0.4864 -0.5880 -0.1084
   7523SM   H2S 9843   1.035   5.498   6.679  0.2652 -1.3426  1.8347
   7523SM   C3S 9844   0.921   5.314   6.661  0.0262 -0.6477 -0.1429
   7523SM   H3S 9845   0.815   5.284   6.674 -0.1965 -0.3979 -1.2880
   7523SM    O3 9846   1.010   5.226   6.739  0.0313  0.5859  0.7078
   7523SM   HO3 9847   1.042   5.275   6.815  1.8218 -0.2577  0.5463
   7523SM   C4S 9848   0.948   5.302   6.507  0.6164  0.3647  0.6163
   7523SM   H4S 9849   0.866   5.271   6.441  1.6957 -2.3971  0.4143
   7523SM   C5S 9850   1.063   5.327   6.436 -0.3954 -0.1233 -0.6948
   7523SM   H5S 9851   1.147   5.369   6.493 -0.2076 -2.1162  0.6203
   7523SM   C6S 9852   1.077   5.318   6.289  0.1707 -0.0163 -0.0639
   7523SM   H6S 9853   1.165   5.258   6.256  0.2800 -0.2419  0.6123
   7523SM   H6T 9854   1.086   5.421   6.249  1.0323  0.4567  1.2572
   7523SM   C7S 9855   0.958   5.263   6.200  0.0014 -0.1879 -0.3400
   7523SM   H7S 9856   0.862   5.304   6.239  0.2942  0.5120 -0.3451
   7523SM   H7T 9857   0.953   5.154   6.221  0.9827 -0.1295  0.2486
   7523SM   C8S 9858   0.990   5.296   6.051  0.2003 -0.2970  0.0125
   7523SM   H8S 9859   1.090   5.248   6.040 -0.3162 -1.7498  1.2282
   7523SM   H8T 9860   0.994   5.405   6.030  1.0443 -0.6749 -1.9464
   7523SM   C9S 9861   0.894   5.236   5.949  0.6155  0.2532 -0.3422
   7523SM   H9S 9862   0.799   5.292   5.961  0.0601 -0.3858 -1.6761
   7523SM   H9T 9863   0.869   5.130   5.972  0.7805  0.5555  1.3648
   7523SM  C10S 9864   0.939   5.249   5.804  0.1907  0.2030  0.8600
   7523SM  H10S 9865   1.042   5.208   5.791  0.3295  0.2642  1.6966
   7523SM  H10T 9866   0.958   5.352   5.767  0.0044  0.4837  1.5320
   7523SM  C11S 9867   0.850   5.170   5.699  0.2396  0.6977 -0.4237
   7523SM  H11S 9868   0.745   5.184   5.734 -0.4297 -2.0920 -1.0385
   7523SM  H11T 9869   0.862   5.061   5.687 -0.6050  0.6901 -1.3399
   7523SM  C12S 9870   0.851   5.237   5.563  0.4304  0.0050  0.0379
   7523SM  H12S 9871   0.957   5.242   5.530 -0.2084  3.2686 -1.8931
   7523SM  H12T 9872   0.818   5.342   5.574  0.3427 -0.0596  0.4350
   7523SM  C13S 9873   0.763   5.174   5.447  0.5651  0.3381 -0.9384
   7523SM  H13S 9874   0.660   5.214   5.464 -0.6203 -2.5501 -0.6750
   7523SM  H13T 9875   0.755   5.064   5.464 -2.2757  0.3749 -1.5030
   7523SM  C14S 9876   0.816   5.214   5.315  0.0353 -0.3085  0.1142
   7523SM  H14S 9877   0.926   5.197   5.321 -0.0114 -0.1504  1.5730
   7523SM  H14T 9878   0.799   5.321   5.293 -1.1054 -0.3239  0.8411
   7523SM  C15S 9879   0.763   5.126   5.200 -0.2660  0.6811  0.2500
   7523SM  H15S 9880   0.653   5.131   5.184 -0.4370 -2.0890  0.1030
   7523SM  H15T 9881   0.788   5.018   5.207 -1.0642  0.3254 -1.7050
   7523SM  C16S 9882   0.821   5.171   5.063  0.4498  0.6177  0.6496
   7523SM  H16S 9883   0.784   5.275   5.050  1.1929  0.7883 -0.2131
   7523SM  H16T 9884   0.783   5.108   4.981 -0.4144 -1.1105  2.3065
   7523SM  C17S 9885   0.971   5.152   5.051  0.0708  0.4643  0.3880
   7523SM  H17S 9886   1.021   5.213   5.130  0.2132  0.1376  0.5542
   7523SM  H17T 9887   0.986   5.200   4.952 -0.0942 -0.3174 -0.0257
   7523SM  C18S 9888   1.022   5.006   5.039  0.3156  0.5107  0.0744
   7523SM  H18S 9889   1.023   4.965   5.143  0.8129 -0.6624 -0.3751
   7523SM  H18T 9890   1.122   4.999   4.991 -0.3982 -1.6117 -1.2403
   7523SM  H18U 9891   0.949   4.948   4.979 -0.1787  1.8762 -0.6749
   7523SM   C1F 9892   0.838   5.676   6.638  0.7616 -0.0625 -0.0449
   7523SM    OF 9893   0.940   5.733   6.682 -0.2195  0.2304  0.5701
   7523SM   C2F 9894   0.718   5.757   6.601 -0.7510 -0.7774  0.4888
   7523SM   H2F 9895   0.700   5.832   6.681 -1.1233  0.0214 -0.3214
   7523SM   H2G 9896   0.629   5.691   6.600 -0.7474 -0.7936 -1.0343
   7523SM   C3F 9897   0.748   5.829   6.469 -0.4026 -0.5240  0.0518
   7523SM   H3F 9898   0.804   5.773   6.391  0.8362  0.0170  0.5328
   7523SM   H3G 9899   0.788   5.930   6.489 -1.6271 -0.0005 -0.0312
   7523SM   C4F 9900   0.619   5.872   6.393 -0.0336 -0.5534  0.4732
   7523SM   H4F 9901   0.559   5.935   6.462  1.0250  0.6879  0.3044
   7523SM   H4G 9902   0.562   5.780   6.367 -0.0904 -0.2926 -0.3676
   7523SM   C5F 9903   0.655   5.939   6.256 -0.5448  0.2227 -0.1796
   7523SM   H5F 9904   0.694   5.858   6.192 -0.9780 -0.1122 -0.0266
   7523SM   H5G 9905   0.739   6.011   6.269 -0.3635  0.1013 -0.6756
   7523SM   C6F 9906   0.539   5.999   6.183  0.1130  0.2071 -0.1705
   7523SM   H6F 9907   0.459   6.030   6.253  2.2237  1.4292  1.8479
   7523SM   H6G 9908   0.500   5.922   6.113  0.1142 -0.0947  0.1580
   7523SM   C7F 9909   0.569   6.120   6.093  0.7528 -0.1397 -0.1357
   7523SM   H7F 9910   0.657   6.093   6.031  0.7854 -1.6210  0.5128
   7523SM   H7G 9911   0.587   6.204   6.163 -0.9869  0.3069 -0.1854
   7523SM   C8F 9912   0.445   6.155   6.002 -0.5931  0.4079  0.3846
   7523SM   H8F 9913   0.424   6.063   5.944 -0.7876  0.3576  0.5344
   7523SM   H8G 9914   0.475   6.238   5.934 -2.1203  1.7385  1.2577
   7523SM   C9F 9915   0.322   6.195   6.086  0.2486  0.0565 -0.1273
   7523SM   H9F 9916   0.330   6.297   6.129  0.1760  0.4620 -1.0408
   7523SM   H9G 9917   0.308   6.131   6.176 -1.6464  0.1069 -0.3449
   7523SM  C10F 9918   0.193   6.193   5.999 -0.0788  0.3605 -0.4500
   7523SM  H10F 9919   0.113   6.220   6.071 -0.6130  1.2519 -1.3577
   7523SM  H10G 9920   0.189   6.092   5.953 -1.3270  0.9454 -1.6555
   7523SM  C11F 9921   0.184   6.294   5.892 -0.7576 -0.4896  0.7291
   7523SM  H11F 9922   0.280   6.274   5.839 -1.3886 -1.1173 -0.1992
   7523SM  H11G 9923   0.188   6.403   5.918 -4.0646  0.2313 -1.2496
   7523SM  C12F 9924   0.064   6.287   5.807  0.1605  0.5508  0.4769
   7523SM  H12F 9925  -0.019   6.343   5.854 -1.1342 -1.8261  1.1417
   7523SM  H12G 9926   0.040   6.179   5.798  0.2435  0.7124 -3.1839
   7523SM  C13F 9927   0.081   6.343   5.669  0.2348 -0.0781 -0.6587
   7523SM  H13F 9928   0.169   6.298   5.618 -0.2927 -1.1721 -0.6501
   7523SM  H13G 9929   0.089   6.453   5.676  1.4063 -0.2380  1.2254
   7523SM  C14F 9930  -0.044   6.298   5.580 -0.0888  0.1740 -0.0109
   7523SM  H14F 9931  -0.133   6.337   5.633 -0.4324 -0.3582 -0.1965
   7523SM  H14G 9932  -0.060   6.191   5.607 -1.2756  0.9593  2.8331
   7523SM  C15F 9933  -0.043   6.329   5.429 -0.3907  0.2005  0.2485
   7523SM  H15F 9934   0.054   6.299   5.385 -0.4050 -0.3328  0.5742
   7523SM  H15G 9935  -0.047   6.436   5.401 -0.5651  0.4720  1.2664
   7523SM  C16F 9936  -0.168   6.266   5.364 -0.4768  0.1340 -0.5865
   7523SM  H16F 9937  -0.256   6.330   5.385 -1.0674  0.1213 -2.8005
   7523SM  H16G 9938  -0.194   6.173   5.419  0.3181  1.2669  1.8659
   7523SM  C17F 9939  -0.150   6.244   5.213  0.6604 -0.2959 -0.4729
   7523SM  H17F 9940  -0.050   6.199   5.201  1.8658  1.7750  1.1314
   7523SM  H17G 9941  -0.138   6.346   5.170  0.1140  0.5421  1.2513
   7523SM  C18F 9942  -0.271   6.170   5.151  0.7999 -0.0459 -0.7431
   7523SM  H18F 9943  -0.276   6.067   5.191 -0.6394 -1.0980 -3.3950
   7523SM  H18G 9944  -0.249   6.156   5.043  0.6569 -1.4589 -0.6084
   7523SM  C19F 9945  -0.402   6.242   5.157  0.1967 -0.2833  0.0820
   7523SM  H19F 9946  -0.421   6.286   5.258 -0.2724  1.9931 -0.9254
   7523SM  H19G 9947  -0.480   6.164   5.146  0.4346 -1.1961  3.6394
   7523SM  C20F 9948  -0.402   6.361   5.060 -0.7213  0.1214  0.2274
   7523SM  H20F 9949  -0.349   6.335   4.965 -1.3215 -2.0175  0.4375
   7523SM  H20G 9950  -0.366   6.455   5.107  1.7443 -0.5244 -0.1994
   7523SM  C21F 9951  -0.549   6.396   5.009  0.1645  0.2109 -0.7005
   7523SM  H21F 9952  -0.610   6.417   5.099  1.8168  0.5772  0.3737
   7523SM  H21G 9953  -0.602   6.310   4.962  1.8715 -1.2149 -0.1345
   7523SM  C22F 9954  -0.563   6.521   4.918  0.0484  0.1268 -0.2465
   7523SM  H22F 9955  -0.488   6.514   4.836  1.9580  1.0336  1.3444
   7523SM  H22G 9956  -0.520   6.606   4.974  0.2136  1.3281 -2.1098
   7523SM  C23F 9957  -0.698   6.545   4.860  0.3102 -0.2801  0.6908
   7523SM  H23F 9958  -0.697   6.653   4.834  1.8256 -0.1593  1.1263
   7523SM  H23G 9959  -0.781   6.523   4.929 -0.3081  1.0078  0.3915
   7523SM  H23H 9960  -0.721   6.481   4.772 -1.7306  0.4060  0.6795
   7623SM     N 9961   0.970   6.947   7.286 -0.3631  0.0067 -0.4428
   7623SM   C15 9962   0.839   6.905   7.327 -0.5300  0.3639  0.4089
   7623SM  H15A 9963   0.790   6.857   7.244  3.0718 -0.9103 -1.1968
   7623SM  H15B 9964   0.776   6.983   7.366  0.5352  1.5908 -0.2591
   7623SM  H15C 9965   0.841   6.821   7.396 -2.1080 -0.6529 -0.7022
   7623SM   C14 9966   0.975   7.086   7.226  0.0124  0.1573  0.8374
   7623SM  H14A 9967   0.941   7.162   7.295 -0.5885 -0.3410  1.1039
   7623SM  H14B 9968   0.919   7.083   7.133  2.6236 -3.3125 -0.8541
   7623SM  H14C 9969   1.076   7.103   7.191 -0.7155  0.6774 -1.1847
   7623SM   C13 9970   1.056   6.955   7.409  0.5760 -0.6489  0.6617
   7623SM  H13A 9971   1.018   7.028   7.478  3.4607  3.1032 -1.3601
   7623SM  H13B 9972   1.155   6.995   7.392 -0.0679  1.2018  1.0831
   7623SM  H13C 9973   1.064   6.864   7.467  1.4595 -0.1281  1.3855
   7623SM   C12 9974   1.031   6.848   7.188 -0.0760  0.1303 -0.8305
   7623SM  H12A 9975   1.122   6.888   7.145  1.0919 -0.8764  0.6021
   7623SM  H12B 9976   0.971   6.828   7.101  1.4087 -1.9393 -1.4364
   7623SM   C11 9977   1.056   6.702   7.232 -0.4040  0.2674  0.1686
   7623SM  H11A 9978   1.123   6.688   7.319  2.0260 -0.3685 -1.6956
   7623SM  H11B 9979   1.123   6.658   7.155  1.4132  1.8347  0.7829
   7623SM     P 9980   0.885   6.539   7.120  0.1173  0.4148  0.1744
   7623SM   O13 9981   0.768   6.457   7.167  0.1766  0.0541 -0.3914
   7623SM   O14 9982   0.880   6.610   6.991 -0.3694  0.0123  0.2322
   7623SM   O11 9983   1.012   6.441   7.118 -0.7907 -0.2701  0.2117
   7623SM   O12 9984   0.933   6.631   7.240  0.0570 -0.2625  0.3818
   7623SM   C1S 9985   1.023   6.323   7.045 -0.5208 -0.2792  0.1243
   7623SM   H1S 9986   0.925   6.283   7.010  0.6575 -1.4309 -2.1278
   7623SM   H1T 9987   1.078   6.245   7.102 -0.2282 -0.1638  0.0048
   7623SM    NF 9988   1.086   6.229   6.822  0.4391  0.4595 -0.7151
   7623SM   HNF 9989   1.148   6.151   6.823 -0.3038 -0.1987  1.7541
   7623SM   C2S 9990   1.102   6.340   6.918 -0.4265  0.2151  0.3682
   7623SM   H2S 9991   1.046   6.425   6.873 -0.0137  0.0955 -0.4016
   7623SM   C3S 9992   1.251   6.363   6.951  0.0824  0.0165  0.4521
   7623SM   H3S 9993   1.302   6.268   6.977  2.8182  0.8129 -1.5366
   7623SM    O3 9994   1.278   6.448   7.059  0.2023 -0.5210  0.2805
   7623SM   HO3 9995   1.192   6.474   7.094  0.9659 -1.4785  3.1458
   7623SM   C4S 9996   1.317   6.420   6.831  0.4299 -0.4713  0.0082
   7623SM   H4S 9997   1.278   6.520   6.807 -0.5738 -0.8739 -0.1241
   7623SM   C5S 9998   1.419   6.366   6.760 -0.2042 -0.2664  0.0676
   7623SM   H5S 9999   1.462   6.268   6.783  0.7361  0.1199  0.0077
   7623SM   C6S10000   1.478   6.437   6.644  0.3320 -0.0983  0.2945
   7623SM   H6S10001   1.578   6.476   6.675 -0.3672  0.1815  2.3404
   7623SM   H6T10002   1.409   6.518   6.613  0.5531 -0.2586 -0.6554
   7623SM   C7S10003   1.523   6.338   6.530  0.2702 -0.0289 -0.1745
   7623SM   H7S10004   1.601   6.272   6.575 -0.5189 -1.4963 -0.8863
   7623SM   H7T10005   1.562   6.414   6.459  0.4003 -0.2649 -0.3575
   7623SM   C8S10006   1.400   6.254   6.477 -0.4106 -0.5683 -0.4360
   7623SM   H8S10007   1.313   6.323   6.474 -0.5302 -0.5212  2.1564
   7623SM   H8T10008   1.380   6.167   6.543  1.3787 -0.9192 -0.3021
   7623SM   C9S10009   1.431   6.187   6.346 -0.0070  0.1554  0.7339
   7623SM   H9S10010   1.349   6.120   6.311 -1.5156  1.9702  0.5937
   7623SM   H9T10011   1.524   6.128   6.355 -0.6701 -1.1092 -0.4820
   7623SM  C10S10012   1.452   6.291   6.233 -0.0311  0.3097  0.2628
   7623SM  H10S10013   1.530   6.368   6.250 -1.0690  1.1550  1.3317
   7623SM  H10T10014   1.354   6.342   6.220 -0.6801 -0.8042  0.6796
   7623SM  C11S10015   1.480   6.230   6.090 -0.2339 -0.1930  0.2631
   7623SM  H11S10016   1.489   6.314   6.018  0.1642 -1.1246 -0.8182
   7623SM  H11T10017   1.394   6.171   6.053 -0.8016  1.7778 -1.7466
   7623SM  C12S10018   1.611   6.152   6.068  0.9209 -0.6943  0.2597
   7623SM  H12S10019   1.590   6.054   6.116 -0.9777 -1.5574 -2.1365
   7623SM  H12T10020   1.696   6.214   6.104  0.4307  0.0719  0.1061
   7623SM  C13S10021   1.645   6.120   5.917 -0.1368 -0.2391 -0.4462
   7623SM  H13S10022   1.747   6.077   5.905  0.0365  0.0557 -0.0338
   7623SM  H13T10023   1.647   6.219   5.868  0.2017 -1.2595 -2.6314
   7623SM  C14S10024   1.543   6.036   5.840 -0.0740 -0.0158  0.0406
   7623SM  H14S10025   1.442   6.079   5.858 -0.3503 -1.6793  3.1486
   7623SM  H14T10026   1.556   5.932   5.879  1.1738 -0.0188 -0.3396
   7623SM  C15S10027   1.574   6.011   5.692  0.2306 -0.3243 -0.0142
   7623SM  H15S10028   1.679   5.976   5.683  0.2443 -0.4410  0.5348
   7623SM  H15T10029   1.567   6.112   5.646 -3.0700 -0.5954 -0.3615
   7623SM  C16S10030   1.479   5.917   5.615 -0.0165  0.0557 -0.2676
   7623SM  H16S10031   1.376   5.939   5.649 -0.0159 -0.3548  0.0154
   7623SM  H16T10032   1.501   5.815   5.654  0.9581  1.0538  2.0005
   7623SM  C17S10033   1.510   5.930   5.467 -0.0562 -0.4246 -0.5932
   7623SM  H17S10034   1.619   5.924   5.442 -0.2215 -1.6066 -1.0838
   7623SM  H17T10035   1.489   6.037   5.445  0.6699  0.2614  1.7711
   7623SM  C18S10036   1.427   5.835   5.383  0.2806 -0.3927  0.4352
   7623SM  H18S10037   1.412   5.735   5.428 -2.0159 -0.1140  0.3977
   7623SM  H18T10038   1.461   5.833   5.277 -3.8875 -0.7633 -1.0967
   7623SM  H18U10039   1.329   5.887   5.378 -0.0788 -1.1621 -1.7117
   7623SM   C1F10040   0.982   6.208   6.749  0.6434 -0.4543 -0.5750
   7623SM    OF10041   0.885   6.277   6.761  0.2833  0.0330  0.2639
   7623SM   C2F10042   0.980   6.099   6.654 -0.3135 -0.2055  0.1725
   7623SM   H2F10043   0.874   6.084   6.626  0.0058  0.0835 -1.2445
   7623SM   H2G10044   1.012   6.009   6.712  0.1349  0.0305  0.2934
   7623SM   C3F10045   1.072   6.088   6.526 -0.7177 -0.7092  0.2956
   7623SM   H3F10046   1.050   5.988   6.482 -2.7912 -0.5318  0.8353
   7623SM   H3G10047   1.175   6.109   6.561 -0.3495 -4.5054  2.0502
   7623SM   C4F10048   1.011   6.185   6.425 -0.3107  0.3103 -0.0073
   7623SM   H4F10049   1.050   6.289   6.440 -3.9474  2.2760 -2.5548
   7623SM   H4G10050   0.901   6.189   6.435 -0.4009 -1.9514  0.2500
   7623SM   C5F10051   1.037   6.160   6.272 -0.1195 -1.0062 -0.1163
   7623SM   H5F10052   1.046   6.051   6.253 -0.8853 -1.2945  1.0332
   7623SM   H5G10053   1.131   6.197   6.227 -0.9457 -0.6028 -1.5950
   7623SM   C6F10054   0.925   6.228   6.189  0.2273  0.5350 -0.8831
   7623SM   H6F10055   0.936   6.339   6.196  1.6577  0.5487 -2.6881
   7623SM   H6G10056   0.830   6.202   6.239 -0.1105  1.9863 -0.7053
   7623SM   C7F10057   0.917   6.175   6.044 -0.8314 -0.7817  0.8330
   7623SM   H7F10058   0.834   6.233   5.999 -1.1346 -1.5701  0.3645
   7623SM   H7G10059   0.909   6.064   6.035  1.4190 -0.8924 -0.5232
   7623SM   C8F10060   1.048   6.204   5.960 -0.0331 -0.5491  0.8102
   7623SM   H8F10061   1.022   6.174   5.857  0.2063 -3.3406  1.4890
   7623SM   H8G10062   1.133   6.146   6.002  1.5232  0.1432 -1.2641
   7623SM   C9F10063   1.079   6.349   5.954 -0.6793  0.8868  0.2542
   7623SM   H9F10064   1.145   6.367   6.042  1.8297 -1.9329 -0.8792
   7623SM   H9G10065   0.982   6.403   5.956 -0.5852  1.0672  0.0649
   7623SM  C10F10066   1.153   6.391   5.824 -0.2301  1.2137  0.1006
   7623SM  H10F10067   1.179   6.496   5.848  0.5662  0.9793  0.2783
   7623SM  H10G10068   1.085   6.391   5.736  2.0968 -0.6577 -1.8365
   7623SM  C11F10069   1.276   6.309   5.789 -0.5039 -0.3045  0.5982
   7623SM  H11F10070   1.245   6.206   5.764 -1.2324  0.2017 -0.6749
   7623SM  H11G10071   1.340   6.309   5.880  1.6343  0.3536 -0.8521
   7623SM  C12F10072   1.360   6.356   5.674  0.1984 -0.2238  0.2857
   7623SM  H12F10073   1.460   6.307   5.673 -0.5032 -1.7238  0.7315
   7623SM  H12G10074   1.366   6.467   5.671 -1.1385 -0.1608 -1.1343
   7623SM  C13F10075   1.304   6.292   5.548  0.2359 -1.4781  0.3791
   7623SM  H13F10076   1.201   6.335   5.550  1.2137  1.0197  0.8711
   7623SM  H13G10077   1.308   6.182   5.558  0.9707 -1.6166 -1.1798
   7623SM  C14F10078   1.378   6.309   5.409  0.2398 -0.1506 -0.8258
   7623SM  H14F10079   1.484   6.284   5.427 -0.4371 -2.0701  0.8671
   7623SM  H14G10080   1.366   6.416   5.381 -2.2587  0.2781  1.4495
   7623SM  C15F10081   1.318   6.218   5.298  0.6936  0.3080  0.6477
   7623SM  H15F10082   1.346   6.114   5.322 -0.8752  0.0946  1.7252
   7623SM  H15G10083   1.373   6.242   5.205  3.1099 -1.3493  1.5518
   7623SM  C16F10084   1.164   6.229   5.280  0.3787 -0.0060 -0.5740
   7623SM  H16F10085   1.149   6.336   5.256  2.4624  0.7408  1.1182
   7623SM  H16G10086   1.109   6.206   5.374 -1.6359 -1.6391 -2.0582
   7623SM  C17F10087   1.101   6.136   5.173  0.1878  0.6095  0.2995
   7623SM  H17F10088   1.112   6.026   5.191 -1.4853  0.0453 -1.7291
   7623SM  H17G10089   1.160   6.164   5.082  1.3807 -4.2382 -0.7229
   7623SM  C18F10090   0.952   6.165   5.140 -0.3541 -0.4533  0.0921
   7623SM  H18F10091   0.896   6.186   5.233  0.7538 -1.6452  1.0694
   7623SM  H18G10092   0.905   6.078   5.089 -0.8606  0.2610 -0.6970
   7623SM  C19F10093   0.933   6.284   5.039  0.0021  0.3849 -0.1253
   7623SM  H19F10094   0.988   6.249   4.948 -0.7266  0.7627 -0.7229
   7623SM  H19G10095   0.970   6.379   5.083  1.8205 -0.7778  0.9794
   7623SM  C20F10096   0.797   6.288   4.984  0.5638  0.0970  0.0583
   7623SM  H20F10097   0.718   6.298   5.062 -1.1742  1.6105 -1.7911
   7623SM  H20G10098   0.767   6.199   4.923  1.8578  0.4793 -1.1916
   7623SM  C21F10099   0.782   6.416   4.893 -0.2020 -0.2574 -0.1201
   7623SM  H21F10100   0.874   6.414   4.832  0.7245 -0.7433  1.2449
   7623SM  H21G10101   0.770   6.508   4.955 -1.0703  1.6549 -2.8975
   7623SM  C22F10102   0.660   6.421   4.802  0.7314  0.3621 -0.4674
   7623SM  H22F10103   0.609   6.520   4.815 -1.0167 -0.6852  1.2633
   7623SM  H22G10104   0.575   6.355   4.829  1.8369 -0.6402  0.6488
   7623SM  C23F10105   0.691   6.400   4.650 -0.1343 -0.3277 -0.1882
   7623SM  H23F10106   0.761   6.315   4.640 -2.9292 -2.6532 -1.2998
   7623SM  H23G10107   0.740   6.493   4.614  1.2003  0.1667  2.6246
   7623SM  H23H10108   0.600   6.369   4.594 -0.1682  0.3270 -0.5021
   7723SM     N10109   1.571   3.474   7.628  0.0879  0.2718  1.1262
   7723SM   C1510110   1.674   3.559   7.696  0.3350  0.7090  0.2680
   7723SM  H15A10111   1.755   3.491   7.717 -0.4353 -1.5333 -3.1975
   7723SM  H15B10112   1.650   3.601   7.792 -1.7935 -0.0467  0.1153
   7723SM  H15C10113   1.706   3.646   7.640  1.3280  1.3099  1.7013
   7723SM   C1410114   1.546   3.351   7.717  0.2420 -0.5349  0.0314
   7723SM  H14A10115   1.511   3.273   7.651 -3.6602 -0.1913  1.4354
   7723SM  H14B10116   1.479   3.374   7.798  1.6992 -2.3106  1.8480
   7723SM  H14C10117   1.634   3.315   7.769  1.2422 -0.4577 -1.5420
   7723SM   C1310118   1.446   3.563   7.615  0.3959 -0.7082 -0.4161
   7723SM  H13A10119   1.408   3.594   7.711  1.7330  0.9620 -0.3696
   7723SM  H13B10120   1.363   3.523   7.558  2.4642 -3.3533 -1.7962
   7723SM  H13C10121   1.469   3.659   7.571 -0.3734  0.9166  2.5160
   7723SM   C1210122   1.625   3.430   7.486 -0.0282  0.4009 -0.2258
   7723SM  H12A10123   1.707   3.361   7.501  0.0661  0.6577  0.4822
   7723SM  H12B10124   1.659   3.519   7.435 -1.5062  1.0826 -0.0770
   7723SM   C1110125   1.531   3.349   7.397 -0.2756 -0.2972  0.0760
   7723SM  H11A10126   1.507   3.252   7.444  0.2129 -0.4325  0.0537
   7723SM  H11B10127   1.594   3.316   7.311 -0.3492 -0.9717  0.2778
   7723SM     P10128   1.412   3.536   7.245  0.1788  0.1552  0.0726
   7723SM   O1310129   1.288   3.616   7.273 -0.4155  0.0567 -0.0604
   7723SM   O1410130   1.544   3.606   7.257  0.5269 -0.1143 -0.1381
   7723SM   O1110131   1.402   3.468   7.109 -0.4132  0.2750  0.6992
   7723SM   O1210132   1.407   3.415   7.348 -0.0303 -0.4176  0.1352
   7723SM   C1S10133   1.432   3.330   7.075 -0.3265  0.0584 -0.2374
   7723SM   H1S10134   1.362   3.253   7.115  0.1552 -0.0510  0.3961
   7723SM   H1T10135   1.534   3.297   7.100 -0.4726  0.1727  0.5233
   7723SM    NF10136   1.438   3.169   6.877 -0.0563  0.2953 -0.0770
   7723SM   HNF10137   1.528   3.127   6.872  0.3260  1.1650 -1.0932
   7723SM   C2S10138   1.440   3.310   6.918 -0.3797  0.1418 -0.0515
   7723SM   H2S10139   1.341   3.348   6.885  0.6433  2.2047 -0.8927
   7723SM   C3S10140   1.554   3.390   6.858 -0.1743  0.4913  0.1221
   7723SM   H3S10141   1.651   3.354   6.900 -0.0857  0.0405 -0.4548
   7723SM    O310142   1.561   3.530   6.886  0.2502 -0.3810  0.4092
   7723SM   HO310143   1.499   3.534   6.960  0.2048 -2.7561  0.5658
   7723SM   C4S10144   1.558   3.360   6.708 -1.2738 -0.7531  0.2631
   7723SM   H4S10145   1.607   3.266   6.680  0.6496 -0.2987  1.8818
   7723SM   C5S10146   1.501   3.433   6.615 -0.1338 -0.2069  0.8575
   7723SM   H5S10147   1.460   3.532   6.641  2.4647  0.8416  1.3655
   7723SM   C6S10148   1.514   3.395   6.469 -0.4144 -0.2173 -0.1168
   7723SM   H6S10149   1.589   3.452   6.411  0.3242 -0.2799  0.7460
   7723SM   H6T10150   1.425   3.441   6.420  1.2456  2.6668 -0.7055
   7723SM   C7S10151   1.516   3.251   6.431 -0.1214  0.6377 -0.3195
   7723SM   H7S10152   1.603   3.204   6.482 -0.6067 -1.4840 -1.3135
   7723SM   H7T10153   1.520   3.243   6.320 -1.3251 -0.1581 -0.3193
   7723SM   C8S10154   1.382   3.188   6.474  0.3726 -0.2586  0.4146
   7723SM   H8S10155   1.294   3.249   6.442 -0.1491 -0.9908  0.4327
   7723SM   H8T10156   1.366   3.186   6.584 -0.9874  0.6673  0.2638
   7723SM   C9S10157   1.380   3.042   6.433  0.2145 -0.8842 -0.1692
   7723SM   H9S10158   1.442   2.985   6.506  0.9272  2.1523  1.7592
   7723SM   H9T10159   1.408   3.038   6.326 -1.7290  4.4051 -1.1479
   7723SM  C10S10160   1.236   2.978   6.435 -0.6858 -0.6729  0.1582
   7723SM  H10S10161   1.193   2.961   6.536 -1.6404  1.1731  0.1013
   7723SM  H10T10162   1.253   2.872   6.405  0.5317 -0.8511  1.3820
   7723SM  C11S10163   1.123   3.030   6.349 -0.3185 -0.1721 -0.4920
   7723SM  H11S10164   1.096   3.135   6.372  1.0887  0.0938  0.0173
   7723SM  H11T10165   1.035   2.962   6.352 -0.5998  0.1435 -1.1885
   7723SM  C12S10166   1.154   3.031   6.200 -0.1933 -0.0420  0.2039
   7723SM  H12S10167   1.178   2.927   6.168  0.0720  0.1143 -0.1126
   7723SM  H12T10168   1.254   3.079   6.190  0.1612 -0.2974  2.1377
   7723SM  C13S10169   1.060   3.108   6.110  0.5765  0.0027  0.0416
   7723SM  H13S10170   1.038   3.213   6.140 -2.2149 -0.5796  0.4013
   7723SM  H13T10171   0.961   3.058   6.118  1.6019 -2.0987  0.2489
   7723SM  C14S10172   1.107   3.104   5.963  0.3360  0.5142  0.2378
   7723SM  H14S10173   1.123   3.000   5.928  2.7101  0.8892  0.0598
   7723SM  H14T10174   1.200   3.162   5.944 -0.3251  0.6485 -3.1334
   7723SM  C15S10175   1.003   3.168   5.879  0.3255  0.3927  0.4522
   7723SM  H15S10176   1.010   3.279   5.885 -0.4549  0.5760 -1.5091
   7723SM  H15T10177   0.902   3.141   5.916 -0.6237  2.0139 -0.8405
   7723SM  C16S10178   1.015   3.143   5.728  0.7236 -0.1957 -0.1613
   7723SM  H16S10179   0.928   3.179   5.668  1.2834 -0.1485 -0.9570
   7723SM  H16T10180   1.008   3.032   5.716 -3.1738 -0.0118 -0.9754
   7723SM  C17S10181   1.151   3.195   5.674 -0.2621 -0.1065 -0.4259
   7723SM  H17S10182   1.230   3.138   5.727 -1.5391 -1.1280  0.4386
   7723SM  H17T10183   1.155   3.302   5.706 -0.1187  0.1222 -1.1765
   7723SM  C18S10184   1.166   3.187   5.520 -0.5134  0.5734  0.1696
   7723SM  H18S10185   1.075   3.229   5.472 -0.5311  0.1023 -0.2117
   7723SM  H18T10186   1.191   3.087   5.479 -1.0303  0.5521 -0.1100
   7723SM  H18U10187   1.251   3.254   5.495  0.5478 -0.3227  1.2915
   7723SM   C1F10188   1.337   3.087   6.904 -0.3326  0.4703 -0.3272
   7723SM    OF10189   1.226   3.124   6.923  0.7172 -0.6956 -0.1920
   7723SM   C2F10190   1.366   2.935   6.912 -0.5494 -0.6788 -0.3593
   7723SM   H2F10191   1.291   2.916   6.992 -1.1607  3.7460  0.3932
   7723SM   H2G10192   1.467   2.923   6.957 -0.4444  1.4631  0.1091
   7723SM   C3F10193   1.344   2.857   6.786  0.2637  0.2479  0.3152
   7723SM   H3F10194   1.382   2.906   6.693 -2.5686 -0.6049 -1.4058
   7723SM   H3G10195   1.235   2.868   6.765  0.4914 -0.3579 -1.3403
   7723SM   C4F10196   1.386   2.711   6.797  0.3007  0.2623 -0.2919
   7723SM   H4F10197   1.369   2.687   6.904 -0.4499 -1.4514 -0.7707
   7723SM   H4G10198   1.494   2.704   6.775  0.6952 -0.4739  1.6853
   7723SM   C5F10199   1.313   2.611   6.711  0.7401  0.3967 -0.9109
   7723SM   H5F10200   1.202   2.612   6.716  0.7518 -0.3656 -0.3545
   7723SM   H5G10201   1.344   2.510   6.746 -0.4211  0.4461  0.3445
   7723SM   C6F10202   1.359   2.616   6.569 -0.3251 -0.4250  0.5506
   7723SM   H6F10203   1.469   2.627   6.566 -0.3034 -0.5366 -2.1820
   7723SM   H6G10204   1.322   2.714   6.530 -0.1215 -0.9211 -0.9632
   7723SM   C7F10205   1.336   2.489   6.491  0.2789 -0.3142  0.3328
   7723SM   H7F10206   1.396   2.407   6.536 -0.5760 -0.8385  0.5548
   7723SM   H7G10207   1.375   2.509   6.389 -0.7795 -0.2483 -0.0690
   7723SM   C8F10208   1.182   2.459   6.481 -0.3141  0.8118  0.3638
   7723SM   H8F10209   1.128   2.547   6.439 -0.7202  0.1784 -0.4646
   7723SM   H8G10210   1.143   2.444   6.584 -1.4284 -1.0481 -0.2843
   7723SM   C9F10211   1.151   2.328   6.401  0.3471  0.5548 -0.4883
   7723SM   H9F10212   1.204   2.239   6.441  3.5499  2.7935  0.6336
   7723SM   H9G10213   1.187   2.349   6.298 -0.9695  0.2246 -1.0306
   7723SM  C10F10214   0.998   2.289   6.402 -0.7797  0.2050 -0.4124
   7723SM  H10F10215   0.940   2.380   6.374 -3.9698 -1.3987  0.5277
   7723SM  H10G10216   0.966   2.245   6.499  1.3533  0.7280  0.5878
   7723SM  C11F10217   0.956   2.181   6.305  0.3183  0.2681  0.3685
   7723SM  H11F10218   0.849   2.151   6.303  0.4231 -0.0762 -0.3621
   7723SM  H11G10219   1.012   2.090   6.333  1.4683  0.8495 -0.0015
   7723SM  C12F10220   0.985   2.231   6.159  1.0806 -0.5353  0.4653
   7723SM  H12F10221   1.096   2.234   6.147  0.8731 -1.1145 -2.0409
   7723SM  H12G10222   0.950   2.335   6.143 -1.8570 -1.5284 -0.1620
   7723SM  C13F10223   0.923   2.150   6.046 -0.1267  0.5309  0.1399
   7723SM  H13F10224   0.813   2.138   6.057  0.1380 -2.0844  0.4222
   7723SM  H13G10225   0.969   2.049   6.048  0.1100  0.5746 -1.6954
   7723SM  C14F10226   0.960   2.214   5.911  0.2790  1.1837 -0.7837
   7723SM  H14F10227   1.071   2.216   5.908  0.2821  0.3467 -1.8239
   7723SM  H14G10228   0.921   2.317   5.901 -0.6293  1.0433  0.9037
   7723SM  C15F10229   0.913   2.121   5.798  0.2998 -0.4924  0.3225
   7723SM  H15F10230   0.944   2.017   5.821 -1.3431 -0.6731  1.9695
   7723SM  H15G10231   0.963   2.151   5.703 -1.3763  0.8328 -0.1925
   7723SM  C16F10232   0.759   2.139   5.784 -0.1143  0.1946 -0.3303
   7723SM  H16F10233   0.737   2.243   5.814  0.6863 -0.2586  2.0008
   7723SM  H16G10234   0.712   2.076   5.863  2.3450  0.1618  1.1945
   7723SM  C17F10235   0.711   2.096   5.644  0.3336 -0.8811  0.1201
   7723SM  H17F10236   0.604   2.066   5.649 -0.1649  0.5678 -1.1918
   7723SM  H17G10237   0.768   2.003   5.619 -1.1095 -2.0954  1.1904
   7723SM  C18F10238   0.726   2.219   5.548  0.1261 -0.0451 -0.3640
   7723SM  H18F10239   0.810   2.285   5.578  0.4541  0.2498 -1.8691
   7723SM  H18G10240   0.637   2.280   5.574  0.4085  0.5871 -0.8533
   7723SM  C19F10241   0.720   2.192   5.398 -0.6477 -0.3419 -1.5288
   7723SM  H19F10242   0.814   2.144   5.362  0.3170  1.8667 -2.1267
   7723SM  H19G10243   0.718   2.293   5.351  0.7563 -0.0992 -1.1190
   7723SM  C20F10244   0.604   2.112   5.358 -0.1242 -0.1798  0.3273
   7723SM  H20F10245   0.594   2.017   5.414 -0.4268  0.6029  1.6572
   7723SM  H20G10246   0.628   2.086   5.253  2.7289  3.0712 -0.0052
   7723SM  C21F10247   0.481   2.198   5.369  0.1976  0.2148 -0.2645
   7723SM  H21F10248   0.490   2.292   5.309 -0.4055  1.0156  0.8557
   7723SM  H21G10249   0.467   2.218   5.477 -0.9137  1.1895 -0.5569
   7723SM  C22F10250   0.355   2.122   5.312  0.4352  0.3210 -0.2099
   7723SM  H22F10251   0.261   2.172   5.343 -0.1656  0.9644 -2.8232
   7723SM  H22G10252   0.352   2.026   5.367  0.4548  0.2863 -0.2684
   7723SM  C23F10253   0.347   2.113   5.163  0.7677  0.5634  0.6861
   7723SM  H23F10254   0.381   2.208   5.116  1.2707  0.3253  0.5601
   7723SM  H23G10255   0.245   2.085   5.129  2.4063 -3.3209 -1.7757
   7723SM  H23H10256   0.417   2.032   5.133  0.9116  0.5502  1.0468
   7823SM     N10257   2.487   0.246   7.600 -0.3316  0.1798  0.4840
   7823SM   C1510258   2.501   0.108   7.666  0.8233 -0.1221 -0.0814
   7823SM  H15A10259   2.598   0.070   7.637  1.0059  2.6086 -3.6178
   7823SM  H15B10260   2.424   0.039   7.633  0.1661  0.3752  0.3763
   7823SM  H15C10261   2.497   0.132   7.771  2.3273  1.3502 -0.3251
   7823SM   C1410262   2.349   0.297   7.626 -0.0365  0.2605 -0.5158
   7823SM  H14A10263   2.278   0.217   7.615  0.4641 -0.3910  0.7199
   7823SM  H14B10264   2.329   0.373   7.552  0.0413 -0.1747 -0.9873
   7823SM  H14C10265   2.334   0.346   7.721 -1.4162  0.3120 -0.7400
   7823SM   C1310266   2.591   0.337   7.670  0.1809 -0.2221  0.5045
   7823SM  H13A10267   2.564   0.440   7.648 -1.6903 -0.4489  1.4929
   7823SM  H13B10268   2.692   0.320   7.635 -0.8784  0.2800 -3.2790
   7823SM  H13C10269   2.586   0.339   7.778  0.7168  0.1458  0.5304
   7823SM   C1210270   2.526   0.243   7.446 -0.2771 -0.4585 -0.4369
   7823SM  H12A10271   2.464   0.176   7.389  0.9713 -1.1064 -1.0863
   7823SM  H12B10272   2.628   0.208   7.448  0.2600  0.9564  2.1760
   7823SM   C1110273   2.510   0.377   7.377  0.2592 -0.4378 -0.1208
   7823SM  H11A10274   2.562   0.377   7.279 -0.0696 -0.4470 -0.2971
   7823SM  H11B10275   2.566   0.451   7.438  0.1311  1.5616 -2.3328
   7823SM     P10276   2.287   0.346   7.261  0.0928 -0.0421  0.0703
   7823SM   O1310277   2.273   0.201   7.296  0.1335 -0.3559  0.3247
   7823SM   O1410278   2.163   0.423   7.253  0.3223  0.0675 -0.5345
   7823SM   O1110279   2.373   0.360   7.130  0.2265  0.2001 -0.2946
   7823SM   O1210280   2.375   0.427   7.369  0.1261  0.0615  0.9804
   7823SM   C1S10281   2.394   0.489   7.061 -0.3192  0.5136  0.0300
   7823SM   H1S10282   2.471   0.553   7.109 -0.2535  1.4341 -1.2247
   7823SM   H1T10283   2.299   0.547   7.059  0.3046  1.6039  0.9016
   7823SM    NF10284   2.473   0.608   6.866 -0.2305 -0.5337 -0.1830
   7823SM   HNF10285   2.403   0.660   6.816 -3.1430 -1.7393  2.3111
   7823SM   C2S10286   2.427   0.477   6.911  0.6190  0.3134  0.2221
   7823SM   H2S10287   2.510   0.406   6.891 -0.1213  0.4190 -4.1049
   7823SM   C3S10288   2.295   0.430   6.842  0.1814 -0.3034 -0.3788
   7823SM   H3S10289   2.208   0.493   6.872  0.8325 -0.3628  1.8284
   7823SM    O310290   2.271   0.293   6.883  0.4199 -0.1945  0.0875
   7823SM   HO310291   2.307   0.293   6.972 -1.3832  1.5736  0.9129
   7823SM   C4S10292   2.313   0.438   6.687  0.2621  0.2269 -0.3098
   7823SM   H4S10293   2.273   0.536   6.656  0.0779  0.7164  1.3778
   7823SM   C5S10294   2.366   0.348   6.598  0.4855  0.0656  0.1950
   7823SM   H5S10295   2.411   0.250   6.619 -0.3244 -0.3141  0.1767
   7823SM   C6S10296   2.366   0.389   6.453  0.0299  0.1181 -0.5057
   7823SM   H6S10297   2.293   0.472   6.442 -0.9400 -0.3541  1.7240
   7823SM   H6T10298   2.334   0.301   6.394 -0.4118 -0.2047  0.1947
   7823SM   C7S10299   2.507   0.432   6.413 -0.0410  0.8249 -0.2779
   7823SM   H7S10300   2.582   0.351   6.424 -1.2321 -0.6650 -2.3110
   7823SM   H7T10301   2.534   0.515   6.481  0.4787 -0.4129  1.0762
   7823SM   C8S10302   2.512   0.498   6.271  0.3546 -0.2828 -0.2409
   7823SM   H8S10303   2.429   0.572   6.265  0.4900 -0.1059  0.0977
   7823SM   H8T10304   2.486   0.412   6.205  2.3855 -0.3643 -1.0151
   7823SM   C9S10305   2.643   0.571   6.231  0.7366  0.5782  0.1525
   7823SM   H9S10306   2.726   0.499   6.217 -0.0294 -0.1116 -1.1053
   7823SM   H9T10307   2.680   0.619   6.324  0.7809 -0.7410  0.8362
   7823SM  C10S10308   2.627   0.670   6.113 -0.7757 -0.5169 -0.3195
   7823SM  H10S10309   2.723   0.721   6.089  0.1362 -1.9496  0.1699
   7823SM  H10T10310   2.549   0.742   6.145 -0.7609 -0.9710  0.8104
   7823SM  C11S10311   2.602   0.606   5.980 -0.4315  0.3175  0.7301
   7823SM  H11S10312   2.520   0.532   5.995  0.4596 -0.6971  0.7515
   7823SM  H11T10313   2.690   0.552   5.940  0.3907  1.9851  0.1935
   7823SM  C12S10314   2.573   0.712   5.866 -0.5039  0.9807 -0.4367
   7823SM  H12S10315   2.659   0.781   5.879  1.5644 -1.3780 -0.8776
   7823SM  H12T10316   2.487   0.773   5.900  2.0368  3.0131  2.9968
   7823SM  C13S10317   2.569   0.663   5.722  0.4002 -0.2280 -0.1209
   7823SM  H13S10318   2.503   0.574   5.713 -1.0062  0.8742 -1.1947
   7823SM  H13T10319   2.672   0.636   5.689 -0.0765 -1.3087 -0.7715
   7823SM  C14S10320   2.512   0.766   5.623 -0.4264  0.4021  0.0617
   7823SM  H14S10321   2.547   0.868   5.649 -0.3866  0.3004  0.4096
   7823SM  H14T10322   2.404   0.770   5.645  0.0142  3.0086  2.2615
   7823SM  C15S10323   2.540   0.731   5.472 -0.9965  0.5475 -0.2629
   7823SM  H15S10324   2.472   0.652   5.434  0.5812  0.2803 -2.7370
   7823SM  H15T10325   2.644   0.698   5.453 -1.1316  1.2100 -2.4684
   7823SM  C16S10326   2.511   0.857   5.382  0.3714 -0.2193  0.2205
   7823SM  H16S10327   2.599   0.925   5.388 -0.8863  1.3602  1.8412
   7823SM  H16T10328   2.425   0.911   5.426  0.3761  1.8096 -2.0752
   7823SM  C17S10329   2.477   0.824   5.233 -0.4485 -0.2849  0.2897
   7823SM  H17S10330   2.387   0.761   5.240 -0.8820  0.4903  2.4246
   7823SM  H17T10331   2.560   0.766   5.186  0.4487  1.7667 -0.8200
   7823SM  C18S10332   2.447   0.955   5.167  0.0233  0.6002  0.0914
   7823SM  H18S10333   2.400   0.961   5.066 -0.5760  0.6612  0.3735
   7823SM  H18T10334   2.537   1.020   5.169 -0.4336  1.2582 -0.2009
   7823SM  H18U10335   2.373   1.003   5.234 -0.6367 -2.3371  1.6295
   7823SM   C1F10336   2.589   0.658   6.900 -0.1105  0.6974 -0.3896
   7823SM    OF10337   2.671   0.590   6.958  0.2755 -0.1099 -0.4826
   7823SM   C2F10338   2.622   0.800   6.870 -0.2537 -0.6385 -0.6952
   7823SM   H2F10339   2.690   0.825   6.955 -1.5090 -0.9186  0.4341
   7823SM   H2G10340   2.526   0.856   6.873 -0.4039 -0.9215  0.7456
   7823SM   C3F10341   2.695   0.817   6.741 -0.2208  1.0503  0.2153
   7823SM   H3F10342   2.639   0.758   6.665  0.4959  1.3148 -0.5304
   7823SM   H3G10343   2.794   0.767   6.744 -1.4403 -1.5005  1.7844
   7823SM   C4F10344   2.716   0.963   6.694 -0.4547 -0.1289  0.3417
   7823SM   H4F10345   2.781   1.016   6.767  1.1155  0.7309 -1.5874
   7823SM   H4G10346   2.617   1.015   6.690  0.0896  0.8606 -0.7418
   7823SM   C5F10347   2.784   0.989   6.562 -0.3514 -0.5195  0.0676
   7823SM   H5F10348   2.846   0.899   6.549  0.8894  0.0542  1.6466
   7823SM   H5G10349   2.858   1.072   6.557 -2.9229  1.8721 -2.7962
   7823SM   C6F10350   2.680   1.011   6.451  0.1081  0.2755  0.5290
   7823SM   H6F10351   2.624   1.091   6.504  2.0138 -0.3985  3.8101
   7823SM   H6G10352   2.616   0.922   6.432  0.7988 -0.1588  0.1892
   7823SM   C7F10353   2.747   1.047   6.313  0.3146 -0.0108 -0.4359
   7823SM   H7F10354   2.798   0.953   6.285 -0.6491 -0.8679  0.5977
   7823SM   H7G10355   2.824   1.127   6.325  2.0220 -1.8685  1.7512
   7823SM   C8F10356   2.631   1.069   6.210  0.4199 -0.0435  0.4755
   7823SM   H8F10357   2.572   1.158   6.241 -1.0631 -0.5369 -0.7664
   7823SM   H8G10358   2.553   0.991   6.220  0.2253  0.3102  1.9093
   7823SM   C9F10359   2.683   1.081   6.068  0.3590 -0.5120 -0.0373
   7823SM   H9F10360   2.730   0.983   6.046 -0.3632 -0.4990 -1.7781
   7823SM   H9G10361   2.758   1.164   6.065  0.6618 -0.7887 -0.2964
   7823SM  C10F10362   2.577   1.101   5.962 -0.6143  0.0677  0.2861
   7823SM  H10F10363   2.530   1.201   5.976 -2.0023 -0.5736  0.3996
   7823SM  H10G10364   2.501   1.019   5.963  0.4060 -0.9214 -0.6560
   7823SM  C11F10365   2.650   1.100   5.832  0.0182 -0.2186 -0.2619
   7823SM  H11F10366   2.684   1.005   5.786  0.6852  0.6787 -1.7101
   7823SM  H11G10367   2.746   1.156   5.835 -0.2026  0.1550  0.0088
   7823SM  C12F10368   2.561   1.165   5.727 -0.2131  0.3131  0.9246
   7823SM  H12F10369   2.527   1.267   5.752 -0.8236  0.5428 -0.7277
   7823SM  H12G10370   2.468   1.105   5.724 -0.7029  1.0778  0.5415
   7823SM  C13F10371   2.630   1.175   5.584  0.7224 -0.0013 -0.1123
   7823SM  H13F10372   2.681   1.080   5.556  1.1998  0.2996 -0.2669
   7823SM  H13G10373   2.708   1.253   5.594 -1.4986  2.3396 -0.0799
   7823SM  C14F10374   2.532   1.230   5.483 -0.2975 -0.1928  0.2080
   7823SM  H14F10375   2.492   1.327   5.519 -0.7395 -0.3033  0.0211
   7823SM  H14G10376   2.445   1.163   5.470  0.1314 -0.6551 -0.3502
   7823SM  C15F10377   2.603   1.237   5.340 -0.3373  0.1615 -0.1544
   7823SM  H15F10378   2.514   1.245   5.273 -1.5976  3.5063  1.6724
   7823SM  H15G10379   2.651   1.140   5.316 -1.3652  0.1220 -2.3696
   7823SM  C16F10380   2.700   1.349   5.333  0.8703 -0.1953  0.0885
   7823SM  H16F10381   2.788   1.316   5.392  1.3723 -0.1757 -0.6457
   7823SM  H16G10382   2.662   1.444   5.378  0.7254 -1.2568  2.3563
   7823SM  C17F10383   2.754   1.384   5.193 -0.0033  0.1890  0.0886
   7823SM  H17F10384   2.762   1.494   5.201 -1.8602  0.3534 -0.0282
   7823SM  H17G10385   2.664   1.358   5.134 -0.4581 -1.8850  1.5512
   7823SM  C18F10386   2.889   1.323   5.150 -0.0209 -0.2281 -0.0310
   7823SM  H18F10387   2.887   1.212   5.159  0.0772 -0.0640  3.0358
   7823SM  H18G10388   2.960   1.361   5.227 -0.0376  1.8606 -0.9752
   7823SM  C19F10389   2.958   1.377   5.019  0.3472  0.0381 -0.1888
   7823SM  H19F10390   2.940   1.486   5.005  0.8633  0.1417 -0.0888
   7823SM  H19G10391   2.915   1.332   4.927  1.8355 -1.2657 -0.3006
   7823SM  C20F10392   3.111   1.342   5.014 -0.0854 -0.3127  0.6260
   7823SM  H20F10393   3.140   1.376   4.913 -1.1038 -1.8176 -0.2048
   7823SM  H20G10394   3.132   1.233   5.010  3.9440  0.2442  2.1187
   7823SM  C21F10395   3.192   1.418   5.112  0.0055 -0.6362 -0.0610
   7823SM  H21F10396   3.184   1.369   5.211 -0.6059 -2.1743 -0.8539
   7823SM  H21G10397   3.158   1.524   5.103 -2.3722 -1.4935 -2.0942
   7823SM  C22F10398   3.344   1.399   5.071  0.4080 -0.3801  0.4322
   7823SM  H22F10399   3.356   1.464   4.981 -1.0307 -0.8454 -0.1219
   7823SM  H22G10400   3.359   1.294   5.038 -0.6992 -0.1276 -0.9625
   7823SM  C23F10401   3.435   1.452   5.181 -0.0523 -0.2290 -0.0891
   7823SM  H23F10402   3.540   1.430   5.153  0.3746  1.4393  0.0963
   7823SM  H23G10403   3.431   1.396   5.277 -0.2153  0.1128  0.1022
   7823SM  H23H10404   3.432   1.561   5.202 -1.1351 -0.4244  0.8430
   7923SM     N10405   1.115   0.347   7.236  0.1801 -0.1777 -0.5830
   7923SM   C1510406   1.191   0.439   7.322 -0.4850  0.0089  0.7499
   7923SM  H15A10407   1.194   0.406   7.425  0.7810 -0.7733  0.4891
   7923SM  H15B10408   1.150   0.537   7.301 -0.2214 -0.0884 -0.2609
   7923SM  H15C10409   1.294   0.435   7.289 -0.6394 -3.7989  0.2763
   7923SM   C1410410   1.186   0.216   7.243  0.3250  0.7503  0.0889
   7923SM  H14A10411   1.259   0.206   7.163  0.7946  0.7113  0.5183
   7923SM  H14B10412   1.121   0.133   7.222  0.5159  0.5520  0.2713
   7923SM  H14C10413   1.226   0.204   7.342 -1.6659  1.1556  0.9884
   7923SM   C1310414   0.981   0.343   7.299 -0.4864 -0.2432  1.1892
   7923SM  H13A10415   0.928   0.437   7.307  1.4034  0.8350  1.4817
   7923SM  H13B10416   0.981   0.294   7.395  0.2023  1.8708  2.3297
   7923SM  H13C10417   0.919   0.278   7.240  2.5478 -0.3572 -2.2213
   7923SM   C1210418   1.103   0.407   7.098  0.1694 -0.3165 -0.2535
   7923SM  H12A10419   1.207   0.408   7.071  1.5677 -0.7255  4.3324
   7923SM  H12B10420   1.067   0.508   7.103 -0.6761 -0.6697  1.5887
   7923SM   C1110421   1.016   0.321   7.005  0.3845 -0.3340 -0.2453
   7923SM  H11A10422   1.058   0.218   7.012  1.1606 -0.1658 -1.9859
   7923SM  H11B10423   1.040   0.361   6.904  0.6559  0.5658  0.1636
   7923SM     P10424   0.809   0.469   7.001  0.1043 -0.0041 -0.0469
   7923SM   O1310425   0.660   0.455   7.006 -0.0953  0.2262  0.7157
   7923SM   O1410426   0.875   0.570   7.080 -0.0225  0.0649  0.2258
   7923SM   O1110427   0.855   0.495   6.856 -0.3581 -0.2192  0.4837
   7923SM   O1210428   0.871   0.328   7.038 -0.4825 -0.1840  0.1268
   7923SM   C1S10429   0.812   0.392   6.758 -0.3893 -0.5824 -0.6642
   7923SM   H1S10430   0.711   0.357   6.785 -0.3203 -1.4938 -1.5411
   7923SM   H1T10431   0.889   0.312   6.760  1.5729  1.1987  1.4915
   7923SM    NF10432   0.713   0.380   6.528 -0.3317 -0.1698  0.7024
   7923SM   HNF10433   0.763   0.329   6.459 -0.0561  2.6246 -1.3359
   7923SM   C2S10434   0.796   0.463   6.614 -0.0113  0.2163 -0.1762
   7923SM   H2S10435   0.750   0.563   6.632 -0.2714  0.4242 -1.8367
   7923SM   C3S10436   0.939   0.488   6.556  0.0253 -0.3782  0.6228
   7923SM   H3S10437   0.991   0.390   6.550  0.3661 -0.1201 -1.4550
   7923SM    O310438   1.000   0.575   6.644 -0.4066  0.5314 -0.3849
   7923SM   HO310439   0.946   0.575   6.724 -0.9225 -0.7389 -0.7087
   7923SM   C4S10440   0.937   0.553   6.422 -0.1394 -0.1869 -0.9183
   7923SM   H4S10441   0.869   0.513   6.346 -1.1504 -0.1826 -0.0437
   7923SM   C5S10442   1.003   0.663   6.384 -0.1241  0.2413  0.5946
   7923SM   H5S10443   1.068   0.716   6.455 -0.9962  1.5413  0.4466
   7923SM   C6S10444   0.990   0.725   6.244  0.1107 -0.0072 -0.1998
   7923SM   H6S10445   0.902   0.681   6.191 -0.5552  1.4583 -0.3421
   7923SM   H6T10446   1.082   0.691   6.191 -1.5622 -4.0943 -0.9061
   7923SM   C7S10447   0.991   0.879   6.263  0.0737 -0.1065 -0.6665
   7923SM   H7S10448   1.093   0.918   6.282 -0.7222  1.3192  0.9537
   7923SM   H7T10449   0.928   0.906   6.350 -1.2207 -0.6673 -1.4003
   7923SM   C8S10450   0.945   0.957   6.139  0.2912  0.1221 -0.0158
   7923SM   H8S10451   0.872   0.883   6.102  0.0530 -0.9869  2.4526
   7923SM   H8T10452   1.028   0.977   6.069  0.5828 -0.3814  0.1835
   7923SM   C9S10453   0.865   1.092   6.166  0.5898  0.3228  0.2379
   7923SM   H9S10454   0.934   1.174   6.197 -0.1056  2.5283 -3.3676
   7923SM   H9T10455   0.794   1.068   6.248 -1.7448  0.6118 -1.5813
   7923SM  C10S10456   0.789   1.138   6.041  0.2014  0.2236 -0.2964
   7923SM  H10S10457   0.743   1.046   6.000  0.6215 -1.0735  2.0205
   7923SM  H10T10458   0.857   1.159   5.955  0.3383  1.5134  0.1013
   7923SM  C11S10459   0.690   1.255   6.062  0.0544 -0.1465 -0.5893
   7923SM  H11S10460   0.683   1.308   5.965 -0.2981  2.5745  0.8044
   7923SM  H11T10461   0.737   1.328   6.132  0.1023 -0.1179 -0.6516
   7923SM  C12S10462   0.553   1.226   6.127 -0.1495 -0.2940 -0.7042
   7923SM  H12S10463   0.506   1.325   6.148  0.5727 -0.4439  2.0617
   7923SM  H12T10464   0.571   1.165   6.219  0.5475 -1.2038 -1.4295
   7923SM  C13S10465   0.460   1.139   6.038 -0.5552 -0.0797  0.3980
   7923SM  H13S10466   0.526   1.084   5.968 -0.1552  0.3392  0.4385
   7923SM  H13T10467   0.402   1.209   5.974 -2.3138 -0.0280  1.9667
   7923SM  C14S10468   0.362   1.056   6.117  0.0588 -0.1088  0.6835
   7923SM  H14S10469   0.423   0.986   6.179 -1.8846 -0.9438  1.7196
   7923SM  H14T10470   0.303   0.997   6.044  0.3868 -0.7614  0.9340
   7923SM  C15S10471   0.280   1.148   6.208  0.1420 -0.5127  0.5954
   7923SM  H15S10472   0.233   1.232   6.152 -0.4423  1.7564  4.1629
   7923SM  H15T10473   0.355   1.191   6.277  0.5362 -1.0389  0.4955
   7923SM  C16S10474   0.167   1.076   6.283  0.3289  0.1933 -0.2248
   7923SM  H16S10475   0.192   0.968   6.273 -1.0502  0.0764 -3.6603
   7923SM  H16T10476   0.077   1.094   6.220 -0.9167 -2.1611  0.7500
   7923SM  C17S10477   0.142   1.120   6.426 -0.5836  0.0698 -0.5586
   7923SM  H17S10478   0.233   1.081   6.476 -0.7616 -2.6448 -2.1804
   7923SM  H17T10479   0.059   1.067   6.477 -0.8656 -0.1949 -1.2816
   7923SM  C18S10480   0.139   1.268   6.455  0.3054  0.0485 -0.4980
   7923SM  H18S10481   0.125   1.295   6.562  1.7498  2.8220 -0.8952
   7923SM  H18T10482   0.060   1.317   6.394  1.8737  0.4796 -2.2712
   7923SM  H18U10483   0.228   1.321   6.414  0.1353 -0.8229 -2.0686
   7923SM   C1F10484   0.584   0.359   6.542  0.0296 -0.0780  0.4589
   7923SM    OF10485   0.518   0.384   6.638  0.3334 -0.1846  0.2330
   7923SM   C2F10486   0.526   0.281   6.420 -0.2990 -0.5370  0.2464
   7923SM   H2F10487   0.553   0.173   6.416  1.9376 -0.0754  1.1633
   7923SM   H2G10488   0.560   0.327   6.325 -1.4278 -1.3098 -0.5522
   7923SM   C3F10489   0.371   0.299   6.407  0.2973 -0.7982  0.0101
   7923SM   H3F10490   0.340   0.405   6.404  0.4298 -0.7814 -2.5588
   7923SM   H3G10491   0.329   0.245   6.495  1.0789  0.7129  1.3597
   7923SM   C4F10492   0.320   0.209   6.295  0.0458  0.1835 -0.8360
   7923SM   H4F10493   0.213   0.188   6.319  0.6832 -1.2641  0.9792
   7923SM   H4G10494   0.360   0.105   6.288  0.8083  0.4989 -1.2549
   7923SM   C5F10495   0.328   0.260   6.153  0.1336  0.1166 -0.3783
   7923SM   H5F10496   0.426   0.284   6.108 -0.0625 -0.2699 -1.0279
   7923SM   H5G10497   0.273   0.355   6.168  2.0331  1.0046  1.4441
   7923SM   C6F10498   0.242   0.169   6.058  0.4024 -0.0248 -0.8116
   7923SM   H6F10499   0.156   0.146   6.124  1.8157  0.7926  1.4539
   7923SM   H6G10500   0.291   0.073   6.032 -1.1871 -1.4465  1.1323
   7923SM   C7F10501   0.206   0.253   5.942  0.6442  0.0974  0.2240
   7923SM   H7F10502   0.159   0.350   5.970  0.7853 -0.0430  0.9652
   7923SM   H7G10503   0.121   0.201   5.893  0.5214 -0.3580  0.9170
   7923SM   C8F10504   0.320   0.280   5.844  0.5160 -0.0827 -0.0178
   7923SM   H8F10505   0.387   0.359   5.885  1.0839 -0.2790 -0.5499
   7923SM   H8G10506   0.272   0.309   5.748 -1.4405  0.4367  1.0523
   7923SM   C9F10507   0.421   0.172   5.834 -0.5911  0.6812  0.0124
   7923SM   H9F10508   0.380   0.073   5.803  1.6969 -0.0436 -0.9176
   7923SM   H9G10509   0.480   0.149   5.925 -1.1088  0.9800  0.4224
   7923SM  C10F10510   0.516   0.215   5.718  0.2016  0.3989  0.2001
   7923SM  H10F10511   0.569   0.308   5.749  1.0826  0.5839 -1.7315
   7923SM  H10G10512   0.448   0.233   5.632  0.2552  0.1110  0.0975
   7923SM  C11F10513   0.627   0.114   5.692 -1.2164  0.1900  0.3531
   7923SM  H11F10514   0.585   0.012   5.706  0.7441 -0.6779  0.1646
   7923SM  H11G10515   0.701   0.128   5.773 -0.9712 -0.1695  0.1918
   7923SM  C12F10516   0.694   0.123   5.554  0.3743 -0.4176  0.3512
   7923SM  H12F10517   0.750   0.219   5.544 -2.2482  1.2739  0.6927
   7923SM  H12G10518   0.617   0.119   5.474  0.4598 -2.4454  0.3395
   7923SM  C13F10519   0.786   0.003   5.515  0.2090  0.1607  0.8301
   7923SM  H13F10520   0.751  -0.085   5.573 -2.5666  0.8144  0.3032
   7923SM  H13G10521   0.885   0.039   5.550 -0.2641  1.8743  0.5216
   7923SM  C14F10522   0.790  -0.028   5.363 -0.5672  0.6600 -0.0548
   7923SM  H14F10523   0.834   0.060   5.310 -2.8435  2.1565  0.3711
   7923SM  H14G10524   0.686  -0.048   5.329  0.1112 -1.7181 -0.9231
   7923SM  C15F10525   0.887  -0.151   5.330  0.5711 -0.3179  0.1141
   7923SM  H15F10526   0.833  -0.244   5.356  0.7390 -0.2800  0.6060
   7923SM  H15G10527   0.974  -0.149   5.399 -0.8659  1.7290  2.0118
   7923SM  C16F10528   0.945  -0.144   5.184  0.2069  0.1508  0.4038
   7923SM  H16F10529   0.944  -0.037   5.154  0.1071  0.1955  0.5641
   7923SM  H16G10530   0.870  -0.199   5.125  0.4802 -0.0288  0.2208
   7923SM  C17F10531   1.092  -0.195   5.167  0.3249 -0.2213 -0.4294
   7923SM  H17F10532   1.106  -0.304   5.179  1.8321 -0.1053 -0.9350
   7923SM  H17G10533   1.147  -0.134   5.242 -0.9881  1.7024 -0.9489
   7923SM  C18F10534   1.135  -0.160   5.023 -0.9428 -0.4316  0.0687
   7923SM  H18F10535   1.245  -0.177   5.016 -0.7719  0.8440 -0.6120
   7923SM  H18G10536   1.118  -0.053   4.995  2.0539 -0.2800 -1.5608
   7923SM  C19F10537   1.081  -0.257   4.924 -0.1901 -0.3956  0.1600
   7923SM  H19F10538   0.972  -0.244   4.913 -0.0983  0.0905 -0.2331
   7923SM  H19G10539   1.091  -0.363   4.955 -0.7307 -0.4309  0.2225
   7923SM  C20F10540   1.166  -0.242   4.793 -0.1223  0.1807  0.7217
   7923SM  H20F10541   1.262  -0.190   4.810 -0.7428  2.1683 -1.4826
   7923SM  H20G10542   1.096  -0.183   4.730 -2.0614 -1.6164  1.0849
   7923SM  C21F10543   1.192  -0.373   4.721  0.0452  0.0967 -1.1148
   7923SM  H21F10544   1.231  -0.348   4.621  1.4905  1.3498 -0.2745
   7923SM  H21G10545   1.095  -0.427   4.712  0.3433 -1.8680  3.8257
   7923SM  C22F10546   1.303  -0.460   4.782  0.7890 -0.5927  0.1028
   7923SM  H22F10547   1.280  -0.474   4.890  0.1644 -1.1401 -0.0888
   7923SM  H22G10548   1.400  -0.407   4.786  0.7804 -0.5281 -0.4907
   7923SM  C23F10549   1.327  -0.595   4.712 -0.0665  0.3082  0.5965
   7923SM  H23F10550   1.409  -0.663   4.746 -0.1582  0.9768  2.2390
   7923SM  H23G10551   1.359  -0.581   4.606 -2.7917 -1.1889 -0.5390
   7923SM  H23H10552   1.235  -0.657   4.704  0.6776 -0.7915  0.2698
   8023SM     N10553   2.259   1.046   7.446 -0.0773 -0.5089  0.2392
   8023SM   C1510554   2.254   1.118   7.576 -0.0480 -0.3543 -0.2902
   8023SM  H15A10555   2.322   1.202   7.580 -2.1283  1.3572  2.6441
   8023SM  H15B10556   2.277   1.052   7.658  1.4871 -0.4517 -0.7643
   8023SM  H15C10557   2.157   1.157   7.605 -0.0758 -0.1026 -0.6955
   8023SM   C1410558   2.387   0.986   7.434 -0.0664  0.2183  0.0629
   8023SM  H14A10559   2.388   0.901   7.367  0.5117 -0.6739  1.1795
   8023SM  H14B10560   2.426   0.953   7.529 -1.8035 -3.6670 -0.3752
   8023SM  H14C10561   2.453   1.055   7.383 -3.1242  1.6237 -2.3569
   8023SM   C1310562   2.156   0.938   7.463 -0.2587  0.5606 -0.2013
   8023SM  H13A10563   2.123   0.894   7.371 -0.8190 -0.1929  0.3531
   8023SM  H13B10564   2.067   0.990   7.496  0.0650 -0.8930  3.3535
   8023SM  H13C10565   2.182   0.858   7.531 -2.2370  0.3850  0.4092
   8023SM   C1210566   2.215   1.134   7.333  0.4417 -0.6384  0.2148
   8023SM  H12A10567   2.265   1.230   7.335 -2.1863  0.8204  0.7168
   8023SM  H12B10568   2.108   1.147   7.341  0.4158 -1.0850  0.6558
   8023SM   C1110569   2.231   1.087   7.190  0.3390  0.5728 -0.2885
   8023SM  H11A10570   2.341   1.088   7.172  0.1023  1.4181 -1.8807
   8023SM  H11B10571   2.194   1.166   7.121 -2.7475 -0.3209  0.1951
   8023SM     P10572   2.221   0.856   7.069 -0.1529 -0.0565  0.1736
   8023SM   O1310573   2.356   0.811   7.121 -0.1142  0.2499  0.2755
   8023SM   O1410574   2.119   0.753   7.040 -0.1552 -0.7891  0.1626
   8023SM   O1110575   2.247   0.932   6.933 -0.1420 -0.2633  0.2136
   8023SM   O1210576   2.164   0.962   7.167  0.5643  0.1114 -0.5648
   8023SM   C1S10577   2.149   1.010   6.863  0.2564 -0.8278 -0.6969
   8023SM   H1S10578   2.174   1.116   6.881 -0.1663 -1.0960  1.8708
   8023SM   H1T10579   2.047   1.003   6.907 -0.8630  1.9376 -2.5953
   8023SM    NF10580   2.016   1.032   6.644 -0.4887 -0.0475  0.1522
   8023SM   HNF10581   1.940   0.976   6.612 -0.0851 -0.2683 -0.4189
   8023SM   C2S10582   2.140   0.985   6.707 -0.0515  0.0225 -0.2319
   8023SM   H2S10583   2.226   1.044   6.668  0.4199 -0.5987 -0.1438
   8023SM   C3S10584   2.177   0.835   6.669 -0.2319  0.1421  0.1086
   8023SM   H3S10585   2.100   0.773   6.720 -1.9742  2.0460 -0.0998
   8023SM    O310586   2.309   0.800   6.719 -0.3079 -0.0347  0.0760
   8023SM   HO310587   2.327   0.867   6.786  0.5249 -1.8742  1.8035
   8023SM   C4S10588   2.161   0.819   6.516 -0.0819  0.5420 -0.3418
   8023SM   H4S10589   2.085   0.748   6.480  2.0999 -2.2406  0.2683
   8023SM   C5S10590   2.259   0.858   6.431  0.2177  0.1850 -0.2787
   8023SM   H5S10591   2.351   0.902   6.473 -0.4947  0.2053  1.3602
   8023SM   C6S10592   2.246   0.851   6.282  0.7928  0.1972 -0.4782
   8023SM   H6S10593   2.150   0.799   6.262  1.0168 -0.0601 -0.8864
   8023SM   H6T10594   2.328   0.782   6.252 -1.1681 -3.0140  0.8731
   8023SM   C7S10595   2.251   0.985   6.203 -0.7945  0.5824 -0.7930
   8023SM   H7S10596   2.344   1.045   6.216 -1.8797  2.1118  0.3117
   8023SM   H7T10597   2.169   1.056   6.229 -2.4574 -1.7679  0.7309
   8023SM   C8S10598   2.228   0.958   6.056  0.0465  0.8476  0.4320
   8023SM   H8S10599   2.136   0.895   6.059 -0.2343  1.2482  0.3019
   8023SM   H8T10600   2.312   0.901   6.010 -1.2503 -0.5794 -0.2747
   8023SM   C9S10601   2.210   1.088   5.975 -0.7925 -0.3062 -0.6738
   8023SM   H9S10602   2.250   1.062   5.875  1.0501 -0.4842  0.0755
   8023SM   H9T10603   2.259   1.182   6.008 -2.3100  0.7973 -1.4658
   8023SM  C10S10604   2.058   1.122   5.947 -0.3333 -0.1712 -0.1629
   8023SM  H10S10605   2.011   1.144   6.045  1.3038  1.6066  0.2886
   8023SM  H10T10606   2.017   1.033   5.895 -0.6490  0.3449 -0.8151
   8023SM  C11S10607   2.027   1.239   5.854 -0.2236 -0.2027  0.2027
   8023SM  H11S10608   2.090   1.316   5.902  0.2335  0.7881 -1.8881
   8023SM  H11T10609   1.920   1.270   5.861 -0.4951 -1.3813  2.2362
   8023SM  C12S10610   2.060   1.209   5.712  0.4802 -0.0401 -0.7482
   8023SM  H12S10611   2.154   1.156   5.686 -0.2441 -1.8944  0.2163
   8023SM  H12T10612   2.075   1.310   5.668  2.9706  1.7514  3.6093
   8023SM  C13S10613   1.945   1.141   5.639 -0.0511 -0.3172 -0.3897
   8023SM  H13S10614   1.857   1.207   5.655  0.3566  0.2347 -0.4278
   8023SM  H13T10615   1.928   1.035   5.668  0.6914 -0.5531 -0.8006
   8023SM  C14S10616   1.966   1.136   5.485  0.1631  0.0038 -0.2268
   8023SM  H14S10617   2.069   1.111   5.449  0.2805  1.6629 -1.1472
   8023SM  H14T10618   1.962   1.240   5.445 -0.6030  0.1810  0.3019
   8023SM  C15S10619   1.864   1.037   5.423 -0.3903 -0.3956 -1.2950
   8023SM  H15S10620   1.774   1.083   5.470  1.1698  2.2587 -0.6969
   8023SM  H15T10621   1.879   0.930   5.448 -1.3235 -0.0590  0.9356
   8023SM  C16S10622   1.828   1.078   5.281  0.3285  0.3363  0.3139
   8023SM  H16S10623   1.908   1.026   5.223  0.0349  0.7428 -0.4624
   8023SM  H16T10624   1.849   1.185   5.263 -0.1368  0.0600 -2.2649
   8023SM  C17S10625   1.690   1.056   5.229  0.1853  0.3309  0.2972
   8023SM  H17S10626   1.613   1.099   5.297 -2.4409 -1.4821 -1.3419
   8023SM  H17T10627   1.671   0.947   5.220 -0.1712  0.3751  0.4871
   8023SM  C18S10628   1.674   1.127   5.089  0.1930  0.5462  0.1200
   8023SM  H18S10629   1.571   1.121   5.049  0.2842  0.2589 -0.0762
   8023SM  H18T10630   1.746   1.088   5.013 -1.0968 -0.9838 -0.3608
   8023SM  H18U10631   1.697   1.235   5.102 -1.0060  0.7270  0.8738
   8023SM   C1F10632   1.979   1.162   6.664  0.1782 -0.0499  0.3955
   8023SM    OF10633   2.041   1.247   6.729  0.3150  0.6258  0.1580
   8023SM   C2F10634   1.850   1.199   6.602  0.6208  0.1898  0.4017
   8023SM   H2F10635   1.777   1.144   6.663 -0.4599  1.4843  0.3141
   8023SM   H2G10636   1.852   1.156   6.499 -0.2794  0.9617  0.0564
   8023SM   C3F10637   1.827   1.343   6.594 -0.3931  0.4524  0.8422
   8023SM   H3F10638   1.905   1.385   6.527 -2.2481 -0.2988 -1.9435
   8023SM   H3G10639   1.828   1.399   6.690  1.9238  1.8262  0.1207
   8023SM   C4F10640   1.702   1.382   6.503  0.1264 -0.4222 -0.8217
   8023SM   H4F10641   1.696   1.492   6.489 -0.1735 -0.2903  0.2312
   8023SM   H4G10642   1.616   1.349   6.565  0.9235  1.0168  1.1921
   8023SM   C5F10643   1.699   1.320   6.366 -0.4099  0.4754  0.2855
   8023SM   H5F10644   1.616   1.246   6.361  0.0859 -0.0256 -3.2587
   8023SM   H5G10645   1.782   1.250   6.342  0.1264  0.4533  2.0946
   8023SM   C6F10646   1.705   1.435   6.257  0.4736  0.1240 -0.7166
   8023SM   H6F10647   1.789   1.504   6.279 -0.2981  0.9078 -0.1182
   8023SM   H6G10648   1.608   1.488   6.273  0.5728 -0.0687  0.5956
   8023SM   C7F10649   1.704   1.377   6.112 -0.1047  0.7955 -0.0510
   8023SM   H7F10650   1.636   1.289   6.106 -0.9179  1.5044 -2.8842
   8023SM   H7G10651   1.807   1.336   6.104 -0.1138  0.6644  0.5190
   8023SM   C8F10652   1.668   1.471   6.004 -0.2882  0.2515  0.6427
   8023SM   H8F10653   1.720   1.566   6.030  0.2676  0.0005  0.4716
   8023SM   H8G10654   1.558   1.488   6.009 -0.7569 -2.4466  0.6151
   8023SM   C9F10655   1.698   1.423   5.851 -0.1006  0.7513 -0.4244
   8023SM   H9F10656   1.684   1.314   5.841  2.1396  0.3459  0.2974
   8023SM   H9G10657   1.806   1.433   5.824  0.0815 -0.5559 -0.2504
   8023SM  C10F10658   1.598   1.483   5.746 -0.7293  0.0187 -0.3084
   8023SM  H10F10659   1.603   1.594   5.747  4.5931  0.0493 -1.2759
   8023SM  H10G10660   1.501   1.446   5.785 -0.2148 -0.1524  0.8552
   8023SM  C11F10661   1.641   1.443   5.611 -0.0604 -0.4241  0.3408
   8023SM  H11F10662   1.636   1.333   5.604  1.0828 -0.4415 -0.5886
   8023SM  H11G10663   1.748   1.471   5.597  0.6698 -3.8253 -2.0320
   8023SM  C12F10664   1.549   1.498   5.497 -0.2244  0.2831 -0.7817
   8023SM  H12F10665   1.571   1.607   5.504  0.4003  0.1037  0.3413
   8023SM  H12G10666   1.440   1.486   5.518  0.0787  0.0953  0.8583
   8023SM  C13F10667   1.581   1.449   5.360 -0.4581 -0.6028  0.5883
   8023SM  H13F10668   1.549   1.344   5.339 -0.2479 -0.6004  0.2297
   8023SM  H13G10669   1.688   1.459   5.332 -0.8859 -2.0321 -1.8600
   8023SM  C14F10670   1.507   1.534   5.257  0.3837 -0.1725  0.5422
   8023SM  H14F10671   1.515   1.643   5.275  3.8885  0.2008 -2.2108
   8023SM  H14G10672   1.399   1.509   5.267  0.2182 -0.6217 -1.8342
   8023SM  C15F10673   1.560   1.508   5.115 -0.0565 -0.4923  0.4511
   8023SM  H15F10674   1.505   1.570   5.041 -0.3110 -1.5136 -0.2434
   8023SM  H15G10675   1.523   1.406   5.088  1.0145 -0.2066 -2.4329
   8023SM  C16F10676   1.710   1.549   5.082  0.7577 -0.4252 -0.1701
   8023SM  H16F10677   1.765   1.460   5.120 -0.5581 -0.1978  2.5441
   8023SM  H16G10678   1.730   1.645   5.133  1.7737  0.6386 -2.4362
   8023SM  C17F10679   1.723   1.559   4.933  0.3616  0.1888  0.5954
   8023SM  H17F10680   1.667   1.641   4.882  3.6483  0.5887 -2.8735
   8023SM  H17G10681   1.701   1.457   4.896 -1.4973  0.4564  0.9086
   8023SM  C18F10682   1.873   1.590   4.903  0.7288  0.2637  0.0029
   8023SM  H18F10683   1.939   1.520   4.959  1.6073 -0.0850 -1.4245
   8023SM  H18G10684   1.909   1.692   4.931  2.8005 -0.2874 -0.4759
   8023SM  C19F10685   1.906   1.570   4.758 -0.2300 -0.2437  0.3070
   8023SM  H19F10686   1.837   1.631   4.695  0.8101  1.7054  0.9424
   8023SM  H19G10687   1.896   1.463   4.732 -0.6463 -0.2831  0.6229
   8023SM  C20F10688   2.053   1.627   4.733  0.2170 -0.0916 -0.0261
   8023SM  H20F10689   2.115   1.558   4.795  0.6092  0.4839  0.2241
   8023SM  H20G10690   2.067   1.730   4.771  0.4277 -0.4649  0.9323
   8023SM  C21F10691   2.094   1.610   4.581 -0.4396 -0.7948 -0.7816
   8023SM  H21F10692   2.029   1.678   4.521  0.7840  0.6307 -0.5592
   8023SM  H21G10693   2.091   1.502   4.554  0.9391 -1.0201 -0.0960
   8023SM  C22F10694   2.238   1.657   4.552  0.1307 -0.1342 -0.0205
   8023SM  H22F10695   2.242   1.755   4.605 -0.4728  1.2909 -2.4488
   8023SM  H22G10696   2.247   1.673   4.442  1.8370 -0.0320  0.1100
   8023SM  C23F10697   2.347   1.554   4.584 -0.6113  0.3279  0.4592
   8023SM  H23F10698   2.350   1.541   4.694  3.3069 -1.1502  0.3316
   8023SM  H23G10699   2.444   1.590   4.542  0.2191 -2.0055  0.2199
   8023SM  H23H10700   2.330   1.456   4.533  0.8204  0.1479  0.2643
   8123SM     N10701   3.519   2.464   3.624  0.3302  0.5818 -0.3096
   8123SM   C1510702   3.565   2.598   3.666 -0.2381 -0.2059  0.2783
   8123SM  H15A10703   3.533   2.624   3.766  0.1457 -1.0261  0.6254
   8123SM  H15B10704   3.516   2.672   3.604 -0.0433  0.8777  1.3894
   8123SM  H15C10705   3.667   2.618   3.640 -0.9020  2.0970 -0.7977
   8123SM   C1410706   3.596   2.370   3.710 -0.5005  0.4639 -0.1838
   8123SM  H14A10707   3.703   2.390   3.708 -0.3406  0.1600  2.1791
   8123SM  H14B10708   3.576   2.265   3.695  2.5345 -0.0193 -1.7607
   8123SM  H14C10709   3.571   2.383   3.814  0.9394 -1.1489  0.3997
   8123SM   C1310710   3.374   2.465   3.663  0.1538 -0.5369 -0.1569
   8123SM  H13A10711   3.306   2.514   3.595 -1.0704 -2.5025 -0.4272
   8123SM  H13B10712   3.370   2.520   3.755 -0.6597 -1.1374  0.1732
   8123SM  H13C10713   3.343   2.362   3.676  1.4901 -0.8234  0.9817
   8123SM   C1210714   3.528   2.427   3.470  0.1145  0.0727  0.6719
   8123SM  H12A10715   3.476   2.334   3.453  0.5068  0.3342 -2.6171
   8123SM  H12B10716   3.631   2.411   3.444 -0.6969 -2.4895 -1.4591
   8123SM   C1110717   3.469   2.533   3.368 -0.4883  0.2152  0.0526
   8123SM  H11A10718   3.488   2.491   3.267  0.8268 -0.5713  0.6031
   8123SM  H11B10719   3.526   2.626   3.390 -0.5375  0.1818  0.3309
   8123SM     P10720   3.272   2.699   3.358 -0.1402 -0.0450 -0.1664
   8123SM   O1310721   3.311   2.743   3.225 -0.3751  0.0668 -0.2189
   8123SM   O1410722   3.127   2.694   3.393 -0.1831 -0.4163  0.4550
   8123SM   O1110723   3.353   2.784   3.468 -0.3807  0.1307 -0.6320
   8123SM   O1210724   3.325   2.557   3.381 -0.4742  0.2340  0.3409
   8123SM   C1S10725   3.277   2.855   3.572  0.3090 -0.8402  0.7046
   8123SM   H1S10726   3.222   2.788   3.641 -1.5172 -0.9289 -0.7406
   8123SM   H1T10727   3.190   2.909   3.528  0.4833 -2.5762 -1.9814
   8123SM    NF10728   3.332   2.969   3.786 -0.5024  0.2008  0.2542
   8123SM   HNF10729   3.290   3.057   3.806 -1.8646 -0.0593 -1.2519
   8123SM   C2S10730   3.373   2.955   3.646  0.1123  0.6307  0.5848
   8123SM   H2S10731   3.472   2.906   3.661  0.4990  0.9569 -0.7280
   8123SM   C3S10732   3.391   3.084   3.577 -0.5455 -0.1013  0.0833
   8123SM   H3S10733   3.295   3.138   3.570 -0.8522 -0.6651 -0.1282
   8123SM    O310734   3.444   3.073   3.444 -0.1719  0.1025  0.1100
   8123SM   HO310735   3.439   2.977   3.435  0.6608 -0.1024  1.5348
   8123SM   C4S10736   3.480   3.173   3.657 -0.5157  0.2592 -0.6749
   8123SM   H4S10737   3.583   3.179   3.618 -0.9674 -0.0604 -1.9653
   8123SM   C5S10738   3.456   3.258   3.762  0.6332  0.3777  0.3567
   8123SM   H5S10739   3.354   3.282   3.793  0.5923  0.8252 -0.1094
   8123SM   C6S10740   3.560   3.339   3.833 -0.2823  0.0788 -0.0440
   8123SM   H6S10741   3.526   3.445   3.834  0.4527  0.3327  1.8013
   8123SM   H6T10742   3.656   3.338   3.777  0.1621  1.3778  0.6539
   8123SM   C7S10743   3.590   3.282   3.976 -0.0099  0.5106 -0.6732
   8123SM   H7S10744   3.682   3.316   4.027 -0.9200 -0.2724  1.5997
   8123SM   H7T10745   3.609   3.173   3.967  2.1132  0.8048 -0.1193
   8123SM   C8S10746   3.484   3.313   4.079 -1.2119  0.4521 -0.7635
   8123SM   H8S10747   3.507   3.238   4.158 -0.3769  2.0778  0.6056
   8123SM   H8T10748   3.384   3.292   4.036  0.2171  0.2275 -4.3218
   8123SM   C9S10749   3.503   3.448   4.152 -0.0536 -0.6305 -0.3227
   8123SM   H9S10750   3.477   3.530   4.081  0.6595  0.6628  0.8619
   8123SM   H9T10751   3.608   3.466   4.183 -0.1118 -2.9071  1.4133
   8123SM  C10S10752   3.418   3.449   4.271  0.3381 -0.2819  0.4591
   8123SM  H10S10753   3.458   3.371   4.339  2.2815  0.6801  0.4659
   8123SM  H10T10754   3.310   3.431   4.252 -0.0407  1.2194  1.1009
   8123SM  C11S10755   3.419   3.592   4.344  0.8279 -0.7766 -0.4890
   8123SM  H11S10756   3.371   3.670   4.282  0.1434 -0.2340  0.6958
   8123SM  H11T10757   3.528   3.615   4.354  1.1887 -1.2458 -2.7720
   8123SM  C12S10758   3.355   3.583   4.477  0.1313  0.3957  0.0324
   8123SM  H12S10759   3.420   3.530   4.550 -0.7473  0.1111  0.6285
   8123SM  H12T10760   3.260   3.526   4.488  0.6419 -0.5087 -0.1605
   8123SM  C13S10761   3.328   3.724   4.544 -0.2505  0.1690 -0.0195
   8123SM  H13S10762   3.277   3.795   4.476 -0.3832  1.4317  1.3317
   8123SM  H13T10763   3.424   3.776   4.566 -1.5745  2.7482 -0.0355
   8123SM  C14S10764   3.240   3.699   4.664 -0.6098 -0.3856 -0.0894
   8123SM  H14S10765   3.318   3.678   4.740 -0.6052  1.6530  0.5169
   8123SM  H14T10766   3.172   3.611   4.662 -0.7186 -0.2957 -0.4766
   8123SM  C15S10767   3.158   3.813   4.724 -0.0482  0.8988  0.2687
   8123SM  H15S10768   3.070   3.833   4.659 -1.1553 -0.9357  1.1190
   8123SM  H15T10769   3.223   3.902   4.732  0.5328  0.3910  1.3959
   8123SM  C16S10770   3.113   3.764   4.862  0.2982 -1.1351  0.2636
   8123SM  H16S10771   3.197   3.737   4.930 -0.7989 -0.3993  1.9742
   8123SM  H16T10772   3.064   3.665   4.850 -0.1103 -1.0907  1.4169
   8123SM  C17S10773   3.009   3.856   4.927  0.3535  0.0161 -0.1164
   8123SM  H17S10774   3.046   3.960   4.943  0.1017  0.1243 -0.2441
   8123SM  H17T10775   2.974   3.814   5.024 -1.7865 -0.0689 -0.8895
   8123SM  C18S10776   2.879   3.875   4.849  0.2696  0.1708 -0.3746
   8123SM  H18S10777   2.830   3.778   4.823  0.9185  0.3889 -2.6458
   8123SM  H18T10778   2.899   3.915   4.748  0.3579  1.3296  0.0888
   8123SM  H18U10779   2.800   3.937   4.897 -1.1424 -0.1341 -2.1809
   8123SM   C1F10780   3.318   2.870   3.873  0.8920 -0.0559 -0.7586
   8123SM    OF10781   3.358   2.760   3.854 -0.2628  0.9593 -0.2702
   8123SM   C2F10782   3.246   2.906   4.002 -0.1684 -0.2111  0.3521
   8123SM   H2F10783   3.187   2.822   4.043 -0.2676 -0.2381  0.1554
   8123SM   H2G10784   3.186   2.997   3.985  1.2052  1.2851  2.9077
   8123SM   C3F10785   3.336   2.943   4.120  0.0925 -0.1523  0.4732
   8123SM   H3F10786   3.390   3.034   4.090 -1.8716  0.6372 -0.8396
   8123SM   H3G10787   3.405   2.862   4.155  1.0319  0.2495 -0.4097
   8123SM   C4F10788   3.258   2.984   4.248  0.0361  0.0886  0.0826
   8123SM   H4F10789   3.209   2.897   4.297  1.1989  0.1335  1.3751
   8123SM   H4G10790   3.186   3.059   4.209  0.4297  0.4640  0.0643
   8123SM   C5F10791   3.331   3.059   4.351 -0.4759  0.6005 -0.0664
   8123SM   H5F10792   3.390   3.142   4.306  2.6440 -1.5294 -0.2215
   8123SM   H5G10793   3.408   2.994   4.397 -2.9648 -3.1262 -0.6749
   8123SM   C6F10794   3.245   3.103   4.473  0.8599 -0.1415  0.2248
   8123SM   H6F10795   3.208   3.010   4.519 -2.6315 -0.4469 -2.7469
   8123SM   H6G10796   3.156   3.155   4.431  0.7640 -0.3612  0.1575
   8123SM   C7F10797   3.313   3.206   4.569  0.3070  0.0416 -0.9862
   8123SM   H7F10798   3.338   3.305   4.526 -1.3472  1.2139  0.5685
   8123SM   H7G10799   3.407   3.160   4.606 -0.4489 -1.0521 -0.3503
   8123SM   C8F10800   3.223   3.233   4.691 -0.1460 -0.0263  0.3679
   8123SM   H8F10801   3.169   3.139   4.714 -1.7436  0.6243 -0.5425
   8123SM   H8G10802   3.146   3.304   4.654  0.4167 -0.1968 -1.2299
   8123SM   C9F10803   3.305   3.295   4.810 -0.2908  0.2163 -0.3006
   8123SM   H9F10804   3.361   3.382   4.770 -1.2619  1.8518  1.6494
   8123SM   H9G10805   3.374   3.220   4.855 -0.4135  1.1612  1.6059
   8123SM  C10F10806   3.221   3.342   4.923 -0.2285  0.0223  0.2511
   8123SM  H10F10807   3.196   3.249   4.978 -0.5198 -1.7240 -2.6102
   8123SM  H10G10808   3.122   3.382   4.893  0.4653  1.5800 -0.0927
   8123SM  C11F10809   3.297   3.442   5.015  0.1354  0.2778  0.8685
   8123SM  H11F10810   3.314   3.533   4.954 -2.0480  0.4561  0.4551
   8123SM  H11G10811   3.401   3.406   5.031  0.1508 -1.8040 -2.8195
   8123SM  C12F10812   3.228   3.485   5.148 -0.4238 -0.0055 -0.5191
   8123SM  H12F10813   3.222   3.390   5.206 -1.0058 -1.9270 -3.5038
   8123SM  H12G10814   3.131   3.535   5.129  0.2411  2.0183  1.0201
   8123SM  C13F10815   3.319   3.588   5.227 -0.1542 -0.0174  0.5797
   8123SM  H13F10816   3.317   3.686   5.173 -0.6536 -1.4016 -2.0915
   8123SM  H13G10817   3.421   3.547   5.236 -1.1285 -2.4372  1.3707
   8123SM  C14F10818   3.279   3.605   5.375 -0.2229  0.3940  0.2213
   8123SM  H14F10819   3.287   3.505   5.423  2.4983  1.1096  1.4531
   8123SM  H14G10820   3.177   3.649   5.374  0.2725  1.5871  0.1495
   8123SM  C15F10821   3.385   3.686   5.450 -0.4973  0.1795 -0.3954
   8123SM  H15F10822   3.400   3.784   5.400  0.1676  0.6539  0.7210
   8123SM  H15G10823   3.478   3.627   5.439 -1.9738 -1.8634 -3.1490
   8123SM  C16F10824   3.347   3.702   5.596 -0.1994  0.1624  0.0991
   8123SM  H16F10825   3.327   3.608   5.650  2.3708  0.2864  1.3920
   8123SM  H16G10826   3.254   3.761   5.584  0.4715  0.9392 -1.6269
   8123SM  C17F10827   3.444   3.778   5.684  0.5375  0.0325 -0.1138
   8123SM  H17F10828   3.399   3.820   5.776  1.8628  0.1370  0.5198
   8123SM  H17G10829   3.482   3.864   5.625  0.5156  1.1536  1.4675
   8123SM  C18F10830   3.567   3.696   5.722 -0.4421  0.2501 -0.2774
   8123SM  H18F10831   3.646   3.774   5.731 -1.1397  0.9854 -0.4055
   8123SM  H18G10832   3.607   3.635   5.639  1.4204  1.8919 -0.6551
   8123SM  C19F10833   3.555   3.623   5.861 -0.2356 -0.4435 -0.4823
   8123SM  H19F10834   3.657   3.580   5.867  0.1962 -0.0823 -3.5281
   8123SM  H19G10835   3.485   3.540   5.839  1.3397 -1.2583 -2.7298
   8123SM  C20F10836   3.519   3.711   5.987 -0.8658 -0.3154 -0.6667
   8123SM  H20F10837   3.410   3.732   5.985 -1.4395 -2.9152 -2.0046
   8123SM  H20G10838   3.588   3.797   5.977 -1.3447  0.2336  0.5459
   8123SM  C21F10839   3.553   3.646   6.125 -0.4845  0.0741 -0.4777
   8123SM  H21F10840   3.544   3.723   6.205 -0.8965 -0.3518 -0.1024
   8123SM  H21G10841   3.661   3.619   6.119 -0.3577  0.8657 -2.6201
   8123SM  C22F10842   3.471   3.520   6.152  0.4415  0.3649  0.0739
   8123SM  H22F10843   3.485   3.443   6.074  0.3307 -0.3285  0.7304
   8123SM  H22G10844   3.362   3.541   6.158 -0.3884 -3.4887  0.7735
   8123SM  C23F10845   3.518   3.456   6.282  0.5131  0.1108 -0.5761
   8123SM  H23F10846   3.452   3.372   6.313 -2.2663  1.5367 -2.1903
   8123SM  H23G10847   3.519   3.531   6.364 -1.4412 -1.8886  1.4251
   8123SM  H23H10848   3.625   3.426   6.278  0.6610  0.4943  0.1768
   8223SM     N10849   3.842   3.628   2.975 -0.3484 -0.1928  0.4114
   8223SM   C1510850   3.714   3.704   2.980 -0.1173  0.4933  0.2991
   8223SM  H15A10851   3.653   3.671   3.063  0.9302 -0.7495  0.6079
   8223SM  H15B10852   3.661   3.695   2.886  0.6297  1.0099 -0.1812
   8223SM  H15C10853   3.722   3.808   3.006 -1.6209  0.5638  0.5574
   8223SM   C1410854   3.813   3.482   2.983 -0.3022 -0.5193 -0.3162
   8223SM  H14A10855   3.755   3.453   3.069  1.7047 -2.8773  0.3457
   8223SM  H14B10856   3.901   3.422   2.961 -0.5204 -0.7589 -0.5453
   8223SM  H14C10857   3.749   3.454   2.901 -1.6863 -1.2663  0.9658
   8223SM   C1310858   3.909   3.661   2.850 -0.0408 -0.4004 -0.2536
   8223SM  H13A10859   3.902   3.767   2.829  1.2996  0.8955  4.5304
   8223SM  H13B10860   3.872   3.600   2.769  0.0308 -0.1525 -0.4770
   8223SM  H13C10861   4.016   3.648   2.856  0.0046  0.2348  0.4870
   8223SM   C1210862   3.932   3.659   3.095 -0.5066  0.6348  0.8147
   8223SM  H12A10863   4.027   3.616   3.067 -0.2803  1.2926  0.5694
   8223SM  H12B10864   3.887   3.616   3.184  0.8270  0.2828  1.3516
   8223SM   C1110865   3.961   3.809   3.132  0.5163  0.0551 -0.4582
   8223SM  H11A10866   4.016   3.810   3.228 -0.8541 -3.1138  0.5230
   8223SM  H11B10867   3.859   3.852   3.147  0.0959 -0.4213 -1.7657
   8223SM     P10868   4.174   3.859   2.995  0.3317 -0.0197  0.0351
   8223SM   O1310869   4.201   3.715   2.958  0.7113  0.5881 -0.0676
   8223SM   O1410870   4.208   3.966   2.895 -0.3854  0.0219  0.3248
   8223SM   O1110871   4.243   3.886   3.133 -0.2245 -0.9059 -0.2867
   8223SM   O1210872   4.024   3.879   3.031  0.4555 -0.1284  0.1736
   8223SM   C1S10873   4.212   4.002   3.210 -0.3217  0.0891 -0.1332
   8223SM   H1S10874   4.106   4.006   3.242 -0.7260 -0.4195 -1.3323
   8223SM   H1T10875   4.246   4.093   3.157  0.7369 -0.1747  0.0678
   8223SM    NF10876   4.236   4.077   3.441 -0.4186  0.7229  0.2290
   8223SM   HNF10877   4.274   4.169   3.443  0.3669  0.4277 -0.5221
   8223SM   C2S10878   4.295   3.991   3.338 -0.2278 -0.1413  0.2863
   8223SM   H2S10879   4.299   3.884   3.370  1.3699 -0.0070  0.6401
   8223SM   C3S10880   4.444   4.028   3.295  0.9871  0.5146  0.6395
   8223SM   H3S10881   4.455   4.133   3.261  2.1708  0.2759  0.2375
   8223SM    O310882   4.493   3.950   3.189 -0.1381 -0.7223  0.3436
   8223SM   HO310883   4.414   3.911   3.151  0.6698 -0.4899 -1.7061
   8223SM   C4S10884   4.527   4.014   3.415 -0.0957  0.3033  0.2415
   8223SM   H4S10885   4.511   3.922   3.473 -1.0088  0.6237  0.5055
   8223SM   C5S10886   4.634   4.091   3.448 -0.7326  0.0116  0.3078
   8223SM   H5S10887   4.660   4.177   3.385 -3.2586  0.3780 -0.3450
   8223SM   C6S10888   4.726   4.074   3.568  0.3615 -0.4204  0.5812
   8223SM   H6S10889   4.756   4.178   3.596 -0.9036  0.0826  0.1601
   8223SM   H6T10890   4.812   4.016   3.530 -1.0210 -2.3597  0.2538
   8223SM   C7S10891   4.655   4.007   3.684 -0.2161  0.0055  0.6278
   8223SM   H7S10892   4.642   3.898   3.671 -0.1456  0.0120  0.5064
   8223SM   H7T10893   4.557   4.057   3.703 -1.0251 -0.6852 -1.4823
   8223SM   C8S10894   4.731   4.020   3.818  0.3936  0.4121 -0.0382
   8223SM   H8S10895   4.777   4.120   3.829  1.9810 -0.0833 -1.6612
   8223SM   H8T10896   4.821   3.956   3.802  0.1735  0.2620 -0.7364
   8223SM   C9S10897   4.662   3.977   3.945  0.1207  0.0620  0.3574
   8223SM   H9S10898   4.633   3.870   3.942 -1.8157  0.5656 -0.4662
   8223SM   H9T10899   4.562   4.025   3.941  0.6437  1.1297 -0.5820
   8223SM  C10S10900   4.747   4.016   4.067  0.2964  0.6834  0.5944
   8223SM  H10S10901   4.752   4.127   4.070  0.6059  0.7441 -1.0895
   8223SM  H10T10902   4.843   3.963   4.047 -0.8003 -1.3180  0.3459
   8223SM  C11S10903   4.685   3.964   4.201 -0.4554 -0.4958  0.5098
   8223SM  H11S10904   4.716   3.858   4.207 -1.6363 -0.8388  0.7638
   8223SM  H11T10905   4.575   3.958   4.191 -0.3120 -1.7527 -0.4380
   8223SM  C12S10906   4.727   4.032   4.335  0.6074 -0.1971  0.5077
   8223SM  H12S10907   4.815   4.096   4.314  0.6235 -0.6847 -1.0125
   8223SM  H12T10908   4.751   3.944   4.400 -0.2486 -0.3619  0.6108
   8223SM  C13S10909   4.630   4.129   4.399 -0.0416 -0.1938 -0.6139
   8223SM  H13S10910   4.548   4.076   4.451  0.3761  1.0239  1.3676
   8223SM  H13T10911   4.586   4.184   4.313  0.8423 -0.0236 -0.9721
   8223SM  C14S10912   4.699   4.237   4.488  0.3187  0.2229  0.3557
   8223SM  H14S10913   4.626   4.313   4.522 -1.1871 -0.2854 -1.5573
   8223SM  H14T10914   4.775   4.294   4.430 -0.3256  1.0798  0.3371
   8223SM  C15S10915   4.775   4.185   4.614 -0.2976  0.1884 -0.0889
   8223SM  H15S10916   4.839   4.102   4.577  1.3168  1.9114 -1.3791
   8223SM  H15T10917   4.701   4.141   4.684 -1.2844  0.5994 -0.8519
   8223SM  C16S10918   4.875   4.293   4.660  0.2524  0.2613  0.3109
   8223SM  H16S10919   4.804   4.371   4.695 -2.7019 -1.5186 -1.3244
   8223SM  H16T10920   4.948   4.327   4.584 -0.5188  0.5668 -0.3110
   8223SM  C17S10921   4.950   4.245   4.787 -0.4158 -0.6650  0.4991
   8223SM  H17S10922   5.004   4.148   4.778 -1.2169 -1.4097  2.8568
   8223SM  H17T10923   4.860   4.236   4.852  0.0208 -0.2291  1.1807
   8223SM  C18S10924   5.043   4.347   4.853  0.6420  0.3777 -0.0293
   8223SM  H18S10925   4.989   4.438   4.888 -3.0390 -2.3207  2.0834
   8223SM  H18T10926   5.122   4.376   4.781  1.8333  1.2869  1.6030
   8223SM  H18U10927   5.103   4.300   4.934 -0.4146 -0.2046  0.4376
   8223SM   C1F10928   4.130   4.035   3.509 -0.3391  0.0005  0.5283
   8223SM    OF10929   4.074   3.928   3.485  0.6933 -0.0680  0.0983
   8223SM   C2F10930   4.073   4.145   3.598 -0.1442  0.3567  0.4894
   8223SM   H2F10931   3.970   4.176   3.570 -1.6209 -0.5310  4.3339
   8223SM   H2G10932   4.137   4.235   3.585  0.1731  0.0825  0.1251
   8223SM   C3F10933   4.065   4.095   3.738  0.6904 -0.4245  0.0256
   8223SM   H3F10934   4.058   3.985   3.745 -0.6873 -0.3496  0.0764
   8223SM   H3G10935   3.965   4.127   3.775  1.1087 -2.3047  3.0836
   8223SM   C4F10936   4.175   4.158   3.831  0.2070  0.0584  0.3327
   8223SM   H4F10937   4.173   4.268   3.817  0.0331 -0.1743 -1.7752
   8223SM   H4G10938   4.271   4.113   3.797  0.9266 -0.0777  2.4061
   8223SM   C5F10939   4.144   4.130   3.980 -0.5104 -0.2936 -0.2131
   8223SM   H5F10940   4.173   4.022   3.988 -0.3649 -0.1602  1.7118
   8223SM   H5G10941   4.037   4.138   4.006 -0.3160 -0.9540  0.8851
   8223SM   C6F10942   4.231   4.199   4.084  0.1822 -0.3037 -0.7522
   8223SM   H6F10943   4.217   4.309   4.074 -2.8428 -0.6507 -1.3694
   8223SM   H6G10944   4.338   4.177   4.067  0.3051  0.2917 -0.7620
   8223SM   C7F10945   4.196   4.167   4.232  0.4739 -0.0101 -0.3108
   8223SM   H7F10946   4.238   4.068   4.258 -1.2392 -0.6276  0.2623
   8223SM   H7G10947   4.086   4.170   4.250  0.5502  0.7947  0.0788
   8223SM   C8F10948   4.261   4.255   4.345 -0.1623 -0.0023  0.4272
   8223SM   H8F10949   4.220   4.358   4.343  0.7021  0.4484  2.5006
   8223SM   H8G10950   4.368   4.275   4.320 -0.1377 -2.4008 -1.7460
   8223SM   C9F10951   4.254   4.185   4.479  0.2598  0.1017 -0.6021
   8223SM   H9F10952   4.309   4.089   4.480  2.1603  1.1593 -0.3122
   8223SM   H9G10953   4.149   4.160   4.508  0.5653 -0.1528  0.3318
   8223SM  C10F10954   4.323   4.262   4.582 -0.5629 -0.1646 -0.2610
   8223SM  H10F10955   4.278   4.363   4.592  1.0126  0.6893 -1.2334
   8223SM  H10G10956   4.430   4.275   4.553 -0.1163 -1.9360  0.4673
   8223SM  C11F10957   4.319   4.195   4.719  0.2230 -0.5201  0.0594
   8223SM  H11F10958   4.356   4.091   4.703  1.7636  0.2119 -1.4085
   8223SM  H11G10959   4.213   4.182   4.752 -0.5558  1.3373 -1.5090
   8223SM  C12F10960   4.397   4.265   4.830 -0.1263 -0.9008 -0.2398
   8223SM  H12F10961   4.506   4.274   4.814 -0.4357  3.1661 -1.1054
   8223SM  H12G10962   4.374   4.209   4.924  2.1175  2.5686  2.6460
   8223SM  C13F10963   4.336   4.403   4.860  1.1410 -0.2236  0.0724
   8223SM  H13F10964   4.229   4.407   4.828  1.7757  0.7614 -2.1112
   8223SM  H13G10965   4.381   4.479   4.792  0.3182  1.3709  1.2290
   8223SM  C14F10966   4.342   4.437   5.014  0.3776  0.6434  0.0946
   8223SM  H14F10967   4.450   4.447   5.038  0.5020 -1.2388  0.4406
   8223SM  H14G10968   4.308   4.355   5.081  1.8683  1.2869  1.7500
   8223SM  C15F10969   4.272   4.568   5.037 -0.1355 -0.3044  0.2572
   8223SM  H15F10970   4.172   4.551   4.990  1.0646 -0.9971 -2.2476
   8223SM  H15G10971   4.312   4.642   4.965 -1.0391  1.7228  1.7556
   8223SM  C16F10972   4.261   4.627   5.177 -0.4657  0.5023 -0.0757
   8223SM  H16F10973   4.213   4.549   5.239  0.6460  0.0347  0.2229
   8223SM  H16G10974   4.200   4.720   5.175  0.0873  0.8655 -0.3478
   8223SM  C17F10975   4.399   4.657   5.236  0.4536 -0.0386  0.6217
   8223SM  H17F10976   4.457   4.730   5.175 -0.7839  0.5343  0.0790
   8223SM  H17G10977   4.461   4.565   5.229  2.7355  1.4785 -0.3109
   8223SM  C18F10978   4.392   4.713   5.382  0.1670 -0.3429 -0.1765
   8223SM  H18F10979   4.378   4.624   5.446  0.0200 -0.8305 -0.8759
   8223SM  H18G10980   4.297   4.771   5.388  0.3011 -0.0427 -0.8403
   8223SM  C19F10981   4.501   4.809   5.422 -0.2064  0.0768 -0.2878
   8223SM  H19F10982   4.469   4.854   5.519 -1.9568 -0.2261 -0.6981
   8223SM  H19G10983   4.503   4.904   5.364 -1.6184 -0.3245 -1.0249
   8223SM  C20F10984   4.646   4.749   5.441  0.3349 -0.1512  0.4922
   8223SM  H20F10985   4.667   4.684   5.354 -1.0021 -1.2069  0.9186
   8223SM  H20G10986   4.633   4.669   5.517 -0.9140 -1.1668 -0.7375
   8223SM  C21F10987   4.746   4.857   5.479 -0.3198  0.4928  0.2289
   8223SM  H21F10988   4.711   4.919   5.565 -0.6814  0.6969 -0.0636
   8223SM  H21G10989   4.766   4.929   5.397  4.5639 -0.2382  0.4766
   8223SM  C22F10990   4.879   4.798   5.535  0.2584 -0.7547  0.3460
   8223SM  H22F10991   4.907   4.705   5.482  0.4716 -0.2843 -0.3942
   8223SM  H22G10992   4.851   4.764   5.637 -2.3788 -3.3027 -1.0814
   8223SM  C23F10993   4.991   4.907   5.540  0.4063 -0.5423 -0.2634
   8223SM  H23F10994   5.001   4.961   5.443  0.1534  0.6254  0.3475
   8223SM  H23G10995   5.082   4.857   5.582  0.8310 -0.1881 -0.7497
   8223SM  H23H10996   4.957   4.995   5.598  1.5093 -0.0377 -0.3573
   8323SM     N10997   4.098   4.290   2.789  0.2977  0.1248  0.1059
   8323SM   C1510998   4.200   4.293   2.682 -0.4035  0.1962 -0.1000
   8323SM  H15A10999   4.162   4.311   2.582  1.8865  1.0977 -0.8729
   8323SM  H15B11000   4.252   4.199   2.677 -2.4518 -0.9849 -0.0591
   8323SM  H15C11001   4.268   4.374   2.702 -1.3153  1.1294 -0.6564
   8323SM   C1411002   4.023   4.425   2.802 -0.0956 -0.9100 -0.1411
   8323SM  H14A11003   3.947   4.421   2.878  0.4981  1.3474  0.6484
   8323SM  H14B11004   3.991   4.457   2.704 -1.7879 -0.9979  0.3428
   8323SM  H14C11005   4.096   4.499   2.833 -0.2569  0.1769 -2.1266
   8323SM   C1311006   3.998   4.184   2.746  0.5174  0.1329 -0.1326
   8323SM  H13A11007   3.952   4.210   2.652  0.0172 -1.7096 -0.4315
   8323SM  H13B11008   3.918   4.173   2.818 -2.6773  1.0842 -3.2487
   8323SM  H13C11009   4.057   4.095   2.727  0.5596 -0.0197  0.6953
   8323SM   C1211010   4.156   4.258   2.928 -0.5590 -0.3775 -0.1187
   8323SM  H12A11011   4.191   4.157   2.939 -0.6661 -0.3468  0.5190
   8323SM  H12B11012   4.085   4.285   3.005  1.3568  1.5894  1.0974
   8323SM   C1111013   4.281   4.340   2.982  0.3756 -0.9431 -0.4756
   8323SM  H11A11014   4.357   4.310   2.907  0.2877 -2.8109  0.1246
   8323SM  H11B11015   4.305   4.290   3.078 -0.3355 -1.0942 -0.3661
   8323SM     P11016   4.198   4.555   3.096  0.5097 -0.2938 -0.1739
   8323SM   O1311017   4.199   4.695   3.057  0.1748 -0.1892 -0.0287
   8323SM   O1411018   4.065   4.489   3.118 -0.7229 -0.3770 -0.1016
   8323SM   O1111019   4.282   4.541   3.221  0.8063  0.2426  0.3946
   8323SM   O1211020   4.266   4.482   2.982 -0.5225  0.2662  0.1543
   8323SM   C1S11021   4.410   4.598   3.258  0.2326  0.0351 -0.0870
   8323SM   H1S11022   4.404   4.706   3.233 -1.7054 -0.0731 -0.2347
   8323SM   H1T11023   4.490   4.547   3.199  0.5298 -1.5752  1.6169
   8323SM    NF11024   4.562   4.633   3.453  0.2975  0.1955 -0.4158
   8323SM   HNF11025   4.637   4.575   3.483 -0.3680 -0.6646 -0.3900
   8323SM   C2S11026   4.437   4.583   3.411  0.7452  0.2379  0.2405
   8323SM   H2S11027   4.359   4.641   3.465  1.2713  0.2257  1.0390
   8323SM   C3S11028   4.420   4.434   3.458  0.7844  0.0306  0.1281
   8323SM   H3S11029   4.513   4.379   3.432 -0.7513 -3.4337  1.3807
   8323SM    O311030   4.313   4.358   3.401  0.4773  0.1829  0.6110
   8323SM   HO311031   4.272   4.409   3.330 -1.5333 -1.7237  0.2836
   8323SM   C4S11032   4.413   4.432   3.610 -0.4130 -0.0092  0.1218
   8323SM   H4S11033   4.350   4.510   3.656 -1.2451 -0.3089 -0.4967
   8323SM   C5S11034   4.473   4.342   3.698  0.2064 -0.4895  0.2334
   8323SM   H5S11035   4.526   4.252   3.662 -0.1304 -0.0131 -1.5523
   8323SM   C6S11036   4.459   4.351   3.846 -0.0568  0.4557 -0.4334
   8323SM   H6S11037   4.458   4.249   3.890  1.2857  0.0730 -1.2224
   8323SM   H6T11038   4.367   4.411   3.864 -0.3124  0.2782 -1.1200
   8323SM   C7S11039   4.574   4.443   3.907 -0.3349 -0.2543 -0.4606
   8323SM   H7S11040   4.573   4.542   3.858  1.0675  0.7915  1.4796
   8323SM   H7T11041   4.670   4.397   3.877 -0.0966  1.7377 -3.0849
   8323SM   C8S11042   4.561   4.460   4.063 -0.6658  0.1355  0.0289
   8323SM   H8S11043   4.578   4.357   4.101 -0.0242  0.2359  0.0253
   8323SM   H8T11044   4.457   4.491   4.088 -1.0630  1.8052 -3.0934
   8323SM   C9S11045   4.662   4.566   4.120  0.0808 -0.1697  0.4017
   8323SM   H9S11046   4.630   4.665   4.081 -0.2607 -1.2059 -2.1955
   8323SM   H9T11047   4.763   4.542   4.082  0.3670 -0.1351  1.1449
   8323SM  C10S11048   4.668   4.572   4.270 -0.0782  0.3848  0.8819
   8323SM  H10S11049   4.664   4.464   4.296 -3.6074 -0.1105 -1.1095
   8323SM  H10T11050   4.577   4.629   4.298 -0.3304 -0.1721  1.2064
   8323SM  C11S11051   4.788   4.661   4.329 -0.0078  0.0189  0.5634
   8323SM  H11S11052   4.771   4.771   4.319 -1.9263 -0.4403 -2.4107
   8323SM  H11T11053   4.881   4.632   4.275 -0.9944 -3.0106  0.3392
   8323SM  C12S11054   4.828   4.628   4.475 -0.3801  0.3922 -0.0077
   8323SM  H12S11055   4.920   4.689   4.492 -0.8072  1.5041 -1.4738
   8323SM  H12T11056   4.850   4.519   4.469 -0.2181  0.3798  0.7415
   8323SM  C13S11057   4.727   4.666   4.579 -0.6594  0.2811 -0.4394
   8323SM  H13S11058   4.640   4.598   4.575 -0.9297  0.6899 -2.0511
   8323SM  H13T11059   4.672   4.762   4.564 -1.4821 -0.0540  0.3190
   8323SM  C14S11060   4.777   4.664   4.728  0.0715 -0.1060 -0.4427
   8323SM  H14S11061   4.841   4.575   4.746 -1.5702 -1.2170  0.0229
   8323SM  H14T11062   4.686   4.647   4.788  0.9814  2.2086  1.7622
   8323SM  C15S11063   4.841   4.798   4.773  0.0286 -0.3654 -0.0773
   8323SM  H15S11064   4.778   4.875   4.722  1.0001  0.2409 -0.3884
   8323SM  H15T11065   4.945   4.802   4.735 -0.7793 -1.2649 -2.6452
   8323SM  C16S11066   4.842   4.825   4.923 -0.1858  0.0369  0.4275
   8323SM  H16S11067   4.737   4.831   4.958  0.3323  0.2386  2.0428
   8323SM  H16T11068   4.889   4.921   4.953 -1.2620  0.3107  1.3085
   8323SM  C17S11069   4.906   4.698   4.998 -0.1598  0.1766  0.4668
   8323SM  H17S11070   5.009   4.682   4.959  0.7423  3.6206  1.1252
   8323SM  H17T11071   4.841   4.612   4.970 -0.8386  1.6180 -2.8769
   8323SM  C18S11072   4.908   4.716   5.147 -0.5663  0.4485 -0.4100
   8323SM  H18S11073   4.808   4.733   5.194  0.2646  1.3248  1.1461
   8323SM  H18T11074   4.979   4.793   5.186  0.0650 -1.1450  1.8227
   8323SM  H18U11075   4.961   4.627   5.187 -0.4503 -0.0231 -1.5919
   8323SM   C1F11076   4.595   4.763   3.451 -0.0139 -0.6276 -0.0058
   8323SM    OF11077   4.516   4.849   3.413 -0.0528 -0.6881 -0.7740
   8323SM   C2F11078   4.735   4.794   3.497  1.0223  0.1814  0.1671
   8323SM   H2F11079   4.751   4.901   3.474  0.7508 -0.0341 -1.1141
   8323SM   H2G11080   4.818   4.735   3.450  0.0815 -0.5665 -0.6068
   8323SM   C3F11081   4.756   4.765   3.648  0.8668 -0.8166  0.0398
   8323SM   H3F11082   4.722   4.661   3.667  0.3363 -0.6350  0.0866
   8323SM   H3G11083   4.685   4.830   3.703  1.0705  0.6559 -1.3570
   8323SM   C4F11084   4.895   4.785   3.709 -0.5196  0.5506  0.6295
   8323SM   H4F11085   4.925   4.891   3.699 -2.5117  1.0239 -1.3959
   8323SM   H4G11086   4.960   4.718   3.649 -0.9072  1.7369 -1.1921
   8323SM   C5F11087   4.916   4.740   3.861 -0.0776 -0.9843 -1.1164
   8323SM   H5F11088   4.896   4.633   3.883 -0.2668 -0.8107 -0.4264
   8323SM   H5G11089   4.839   4.785   3.927  0.2160 -2.7048  0.4582
   8323SM   C6F11090   5.055   4.790   3.919 -0.3141  0.2020  0.2699
   8323SM   H6F11091   5.061   4.900   3.902  1.4980  0.1679  0.5598
   8323SM   H6G11092   5.142   4.744   3.868  1.1787  2.0658  0.9976
   8323SM   C7F11093   5.067   4.760   4.071  0.2295  0.0961 -0.3138
   8323SM   H7F11094   5.058   4.651   4.086 -0.9402  0.5085  2.6906
   8323SM   H7G11095   4.977   4.798   4.123 -0.4312 -2.2939  0.3768
   8323SM   C8F11096   5.193   4.808   4.131  0.1049  0.1612  0.5934
   8323SM   H8F11097   5.207   4.911   4.093 -2.2758  0.8865  1.4990
   8323SM   H8G11098   5.286   4.754   4.101  1.1475  0.9831  2.2275
   8323SM   C9F11099   5.177   4.797   4.285 -0.3028  0.2921 -0.3349
   8323SM   H9F11100   5.169   4.687   4.296  0.2392  0.2372 -0.4724
   8323SM   H9G11101   5.080   4.840   4.319 -1.2066  0.4556 -2.8935
   8323SM  C10F11102   5.282   4.862   4.373 -0.0646 -0.6156  0.0166
   8323SM  H10F11103   5.273   4.970   4.349 -0.4889 -0.6270  0.1154
   8323SM  H10G11104   5.380   4.831   4.332 -0.0152  1.2421 -1.4048
   8323SM  C11F11105   5.267   4.846   4.524 -0.1492  0.4189  0.7919
   8323SM  H11F11106   5.230   4.744   4.549 -0.2963  0.0769 -0.7523
   8323SM  H11G11107   5.177   4.906   4.547  0.3664  1.6287 -0.2611
   8323SM  C12F11108   5.389   4.885   4.606  0.0024  0.4941  0.4349
   8323SM  H12F11109   5.417   4.988   4.577 -0.0978  0.2890 -0.3980
   8323SM  H12G11110   5.474   4.820   4.574 -0.0640  0.8893 -0.5617
   8323SM  C13F11111   5.359   4.866   4.754  0.6563  0.1910 -0.2469
   8323SM  H13F11112   5.454   4.902   4.800  0.5953  0.6738 -0.4938
   8323SM  H13G11113   5.343   4.761   4.787  0.1138  0.3816  0.1087
   8323SM  C14F11114   5.250   4.950   4.817  0.4412  0.1161 -0.0035
   8323SM  H14F11115   5.147   4.921   4.787  0.5615 -1.1816  0.7809
   8323SM  H14G11116   5.257   5.052   4.773  0.1964 -0.0586 -0.4638
   8323SM  C15F11117   5.263   4.965   4.966  0.0131  0.6047 -0.0148
   8323SM  H15F11118   5.368   4.983   5.000 -0.0344  1.9893 -0.5475
   8323SM  H15G11119   5.239   4.866   5.011 -0.7073  0.5847 -0.4288
   8323SM  C16F11120   5.171   5.069   5.031 -0.8375 -0.7107  0.0127
   8323SM  H16F11121   5.063   5.045   5.018 -0.8277 -0.0092 -1.6025
   8323SM  H16G11122   5.195   5.169   4.990  0.0471 -0.4246  1.1860
   8323SM  C17F11123   5.211   5.079   5.178 -0.4975  0.2154 -0.0373
   8323SM  H17F11124   5.318   5.107   5.190 -0.4883  0.5218 -0.7802
   8323SM  H17G11125   5.205   4.978   5.223 -0.4433  0.4417  0.4919
   8323SM  C18F11126   5.141   5.180   5.272  1.2822  0.5727 -0.6575
   8323SM  H18F11127   5.043   5.140   5.306  0.1561  1.4058 -2.7162
   8323SM  H18G11128   5.116   5.274   5.218 -1.3143  1.1241  1.2929
   8323SM  C19F11129   5.225   5.227   5.396  0.4165  0.3416  0.3195
   8323SM  H19F11130   5.316   5.278   5.358  1.1669 -1.1383  0.0578
   8323SM  H19G11131   5.260   5.134   5.447 -1.3349 -0.2696  0.4687
   8323SM  C20F11132   5.147   5.308   5.494  0.6081  0.9570  0.2432
   8323SM  H20F11133   5.043   5.270   5.498  1.2698 -1.4156 -2.1172
   8323SM  H20G11134   5.136   5.404   5.439 -1.1525  0.5119 -0.2463
   8323SM  C21F11135   5.206   5.328   5.637 -0.5122  1.3220 -0.2546
   8323SM  H21F11136   5.307   5.374   5.628  0.0137  0.2530  0.0360
   8323SM  H21G11137   5.214   5.224   5.675 -0.4068  0.9552 -1.2502
   8323SM  C22F11138   5.117   5.396   5.733  0.4374  0.1094  0.3238
   8323SM  H22F11139   5.091   5.487   5.674 -0.7161 -0.5179 -0.1808
   8323SM  H22G11140   5.169   5.415   5.829 -2.1738 -0.1284  1.8891
   8323SM  C23F11141   4.983   5.320   5.748 -0.8285  0.3347 -0.1341
   8323SM  H23F11142   4.921   5.310   5.656  0.2973  0.5085 -0.9313
   8323SM  H23G11143   4.915   5.355   5.830 -1.4231  0.4537 -0.6685
   8323SM  H23H11144   5.013   5.215   5.771  0.0046  0.0234 -2.4145
   8423SM     N11145   5.398   3.380   2.629 -0.5412 -0.3056  0.2262
   8423SM   C1511146   5.458   3.301   2.523 -0.0503 -0.0876  0.6813
   8423SM  H15A11147   5.446   3.346   2.426  2.5833  1.2966  0.9211
   8423SM  H15B11148   5.430   3.196   2.518 -0.6076  0.0160  1.3947
   8423SM  H15C11149   5.565   3.296   2.528  0.0912 -0.5000 -1.5488
   8423SM   C1411150   5.471   3.340   2.752 -0.2887  0.5847 -0.7149
   8423SM  H14A11151   5.428   3.393   2.836 -1.9752 -2.3302  0.4186
   8423SM  H14B11152   5.574   3.369   2.738 -0.1281  0.3229 -0.0896
   8423SM  H14C11153   5.477   3.234   2.768  0.8819  0.4924 -1.5889
   8423SM   C1311154   5.428   3.524   2.599  0.7919  0.4812  0.2965
   8423SM  H13A11155   5.376   3.555   2.510 -0.3255 -1.5380  0.1936
   8423SM  H13B11156   5.534   3.545   2.604  0.8027  0.1298  2.1722
   8423SM  H13C11157   5.391   3.583   2.681 -0.9024  0.3858 -0.3631
   8423SM   C1211158   5.242   3.363   2.626 -0.0002 -0.5121  0.2170
   8423SM  H12A11159   5.214   3.380   2.523  1.7986 -0.9715 -0.3904
   8423SM  H12B11160   5.200   3.442   2.685  1.0494  0.0302  0.2484
   8423SM   C1111161   5.178   3.241   2.684  0.3608 -0.1381  0.4763
   8423SM  H11A11162   5.070   3.266   2.682  0.2947 -0.3929 -2.1499
   8423SM  H11B11163   5.212   3.218   2.788 -0.7197  1.6085  1.2530
   8423SM     P11164   5.097   3.043   2.537  0.1442 -0.2115 -0.1673
   8423SM   O1311165   5.012   3.128   2.451  0.0675 -0.0957  0.6912
   8423SM   O1411166   5.162   2.924   2.470  0.1849 -0.5867  0.5713
   8423SM   O1111167   5.017   2.997   2.656 -0.6091 -0.5362 -0.1927
   8423SM   O1211168   5.213   3.130   2.602 -0.0997 -0.0327 -0.1120
   8423SM   C1S11169   5.076   2.914   2.757 -0.3915 -0.3824  0.2199
   8423SM   H1S11170   5.175   2.874   2.726 -1.8796 -3.1331 -1.3958
   8423SM   H1T11171   5.009   2.825   2.758 -0.1769 -0.6184  3.3688
   8423SM    NF11172   5.151   2.863   2.994  0.7067  0.4301  0.4521
   8423SM   HNF11173   5.091   2.785   3.012  0.5813  0.5976  0.7569
   8423SM   C2S11174   5.082   2.965   2.909 -0.5830 -0.0330  0.0530
   8423SM   H2S11175   5.146   3.056   2.917  1.3284 -1.2062 -1.0705
   8423SM   C3S11176   4.936   2.993   2.954 -0.5504  0.4821 -0.7742
   8423SM   H3S11177   4.884   2.898   2.929  1.3388 -0.1624 -2.6730
   8423SM    O311178   4.885   3.100   2.873 -0.3319 -0.3160 -0.1472
   8423SM   HO311179   4.908   3.074   2.784 -1.7239 -2.6437  0.0884
   8423SM   C4S11180   4.934   3.024   3.103 -0.1814 -0.2575  0.0962
   8423SM   H4S11181   5.004   3.105   3.127 -0.8214  0.0443  1.0264
   8423SM   C5S11182   4.861   2.975   3.209 -0.6727 -0.2833  0.1571
   8423SM   H5S11183   4.788   2.898   3.180  0.3742 -0.6945 -1.5619
   8423SM   C6S11184   4.868   3.010   3.354  0.0965 -0.2818 -0.1339
   8423SM   H6S11185   4.776   3.068   3.378 -0.4331 -1.3032  0.3971
   8423SM   H6T11186   4.961   3.066   3.378 -0.2104 -0.2792  1.1288
   8423SM   C7S11187   4.857   2.885   3.438  0.0678 -0.1051  0.0067
   8423SM   H7S11188   4.951   2.826   3.436 -0.1575 -0.5139  0.8413
   8423SM   H7T11189   4.780   2.818   3.394  1.5786 -0.9657 -1.4580
   8423SM   C8S11190   4.822   2.921   3.587 -0.4959 -0.3213 -0.0652
   8423SM   H8S11191   4.738   2.993   3.600 -0.0500  0.2054 -0.0392
   8423SM   H8T11192   4.909   2.975   3.630 -1.2695  0.5741  0.4128
   8423SM   C9S11193   4.787   2.806   3.683  0.6231 -1.0803 -0.0029
   8423SM   H9S11194   4.849   2.720   3.650 -0.0797 -0.6432 -2.7200
   8423SM   H9T11195   4.679   2.782   3.675  0.4928 -0.0182 -2.6130
   8423SM  C10S11196   4.814   2.836   3.827  0.6153 -0.7500 -0.5993
   8423SM  H10S11197   4.922   2.864   3.820  0.8202 -1.6653 -1.1549
   8423SM  H10T11198   4.803   2.756   3.903  0.2180  0.6805  0.9071
   8423SM  C11S11199   4.726   2.956   3.875  0.2327 -0.4648 -0.1754
   8423SM  H11S11200   4.621   2.921   3.886  0.6952 -2.1497 -0.7973
   8423SM  H11T11201   4.728   3.034   3.796 -0.0780 -0.8833 -0.6020
   8423SM  C12S11202   4.761   3.029   4.006  1.2400  0.8616 -0.3303
   8423SM  H12S11203   4.688   3.110   4.029 -0.7803 -1.0982  0.5584
   8423SM  H12T11204   4.863   3.072   3.997  1.3892  0.7964  0.9319
   8423SM  C13S11205   4.766   2.928   4.121  0.3892  0.1701 -0.3303
   8423SM  H13S11206   4.826   2.842   4.086 -0.1401  0.6888 -2.7017
   8423SM  H13T11207   4.669   2.878   4.145  1.2648 -0.5922  1.8826
   8423SM  C14S11208   4.820   2.992   4.253 -0.9257  0.5203  0.0487
   8423SM  H14S11209   4.761   3.083   4.278 -3.0409 -1.0443  0.9416
   8423SM  H14T11210   4.917   3.035   4.218 -0.7951 -0.4974 -0.9034
   8423SM  C15S11211   4.852   2.891   4.362 -0.4219 -0.3742 -0.3250
   8423SM  H15S11212   4.956   2.850   4.359  0.0278  0.6901  0.1522
   8423SM  H15T11213   4.765   2.822   4.363 -1.8370  1.3287  1.3831
   8423SM  C16S11214   4.855   2.953   4.512  0.0828  0.2879 -0.2307
   8423SM  H16S11215   4.757   2.990   4.548 -0.0139 -1.4740  1.4742
   8423SM  H16T11216   4.923   3.041   4.511  0.8580 -0.2052  2.0736
   8423SM  C17S11217   4.903   2.850   4.615  0.6720  0.4645  0.1063
   8423SM  H17S11218   5.001   2.814   4.578 -0.1402 -0.4909 -1.2025
   8423SM  H17T11219   4.840   2.758   4.625 -1.3667  1.2368 -3.6172
   8423SM  C18S11220   4.920   2.908   4.758 -0.1492  0.3487  0.3857
   8423SM  H18S11221   5.012   2.971   4.751 -0.1323  0.1391 -2.6581
   8423SM  H18T11222   4.937   2.832   4.837 -0.1218 -0.7109 -0.6119
   8423SM  H18U11223   4.837   2.972   4.796 -0.4297  1.5205 -2.0371
   8423SM   C1F11224   5.278   2.848   2.994  0.2909 -0.0685 -0.8851
   8423SM    OF11225   5.342   2.925   2.922  0.1264  0.3055 -0.1325
   8423SM   C2F11226   5.332   2.733   3.073  0.2903 -0.2677  0.0044
   8423SM   H2F11227   5.273   2.642   3.048  0.1232 -0.0267 -0.4809
   8423SM   H2G11228   5.329   2.763   3.180  2.1579 -1.6031  0.4941
   8423SM   C3F11229   5.481   2.707   3.040  0.4399 -0.3857 -0.0078
   8423SM   H3F11230   5.541   2.789   3.084 -1.1358  0.1066  1.3503
   8423SM   H3G11231   5.493   2.704   2.929  0.0022 -0.1247 -0.0642
   8423SM   C4F11232   5.510   2.560   3.087 -0.3444 -0.0831 -0.1277
   8423SM   H4F11233   5.619   2.537   3.082 -0.4449 -0.9773  1.3185
   8423SM   H4G11234   5.456   2.488   3.023 -1.0247 -0.6524  1.0513
   8423SM   C5F11235   5.482   2.528   3.239  0.0923 -0.0392 -0.0618
   8423SM   H5F11236   5.380   2.484   3.250 -0.0630  0.8230  2.6818
   8423SM   H5G11237   5.492   2.619   3.303  1.7962 -0.5329  0.4197
   8423SM   C6F11238   5.583   2.431   3.296 -0.1468 -0.0323  0.1521
   8423SM   H6F11239   5.684   2.476   3.304 -0.8600  1.4673  1.3409
   8423SM   H6G11240   5.587   2.339   3.235 -0.6499 -1.9460  2.8080
   8423SM   C7F11241   5.554   2.387   3.448 -0.0965 -0.5073 -0.0076
   8423SM   H7F11242   5.619   2.300   3.470 -0.7012 -1.3303 -1.3835
   8423SM   H7G11243   5.455   2.338   3.442  0.3802 -1.6726  1.1993
   8423SM   C8F11244   5.542   2.504   3.551 -0.3827  0.2531 -0.0879
   8423SM   H8F11245   5.444   2.556   3.545  0.6509  2.1574 -1.6635
   8423SM   H8G11246   5.614   2.587   3.537  0.6812 -0.6979 -0.4329
   8423SM   C9F11247   5.564   2.461   3.697 -0.2973  0.3790 -0.3728
   8423SM   H9F11248   5.665   2.418   3.715 -0.5586 -0.3229 -0.5506
   8423SM   H9G11249   5.499   2.371   3.709  0.0180  0.3400  1.3596
   8423SM  C10F11250   5.544   2.571   3.802 -0.1710 -0.1670  0.1878
   8423SM  H10F11251   5.434   2.583   3.791  0.0298  0.6524 -1.1996
   8423SM  H10G11252   5.600   2.656   3.758  0.1191 -0.2106  0.4628
   8423SM  C11F11253   5.581   2.513   3.938 -0.9818  0.5801 -0.2706
   8423SM  H11F11254   5.690   2.498   3.949 -0.5887  1.5017 -2.4085
   8423SM  H11G11255   5.536   2.412   3.950 -0.2370  0.2726 -0.0558
   8423SM  C12F11256   5.539   2.603   4.052 -0.6582 -0.3446 -0.0677
   8423SM  H12F11257   5.428   2.610   4.061 -0.8100 -1.8925 -0.3765
   8423SM  H12G11258   5.580   2.705   4.036  0.5785 -1.0019 -1.2860
   8423SM  C13F11259   5.579   2.550   4.196  0.1728 -0.0424  0.2200
   8423SM  H13F11260   5.689   2.532   4.197  0.3533  0.8279 -1.2175
   8423SM  H13G11261   5.525   2.456   4.217  0.3479 -0.3242 -0.5479
   8423SM  C14F11262   5.536   2.652   4.299 -1.3006 -0.0655  0.5268
   8423SM  H14F11263   5.430   2.670   4.274 -0.9641 -0.1522 -1.0920
   8423SM  H14G11264   5.592   2.746   4.278 -0.2536 -0.6190  0.7663
   8423SM  C15F11265   5.549   2.603   4.443  0.2563  0.1647 -0.2303
   8423SM  H15F11266   5.653   2.571   4.467 -0.2377 -1.0843  0.3163
   8423SM  H15G11267   5.493   2.510   4.464  1.5848 -0.1954  2.1319
   8423SM  C16F11268   5.494   2.718   4.538  0.1785  0.6032  0.2656
   8423SM  H16F11269   5.393   2.748   4.503 -0.3927  0.3612  1.6692
   8423SM  H16G11270   5.565   2.803   4.526  0.8872  0.0066  0.2172
   8423SM  C17F11271   5.496   2.677   4.685  0.5613 -0.7780  0.9437
   8423SM  H17F11272   5.598   2.638   4.708  0.3969 -0.6376  1.9860
   8423SM  H17G11273   5.432   2.587   4.689  1.2456 -1.2628  1.2211
   8423SM  C18F11274   5.438   2.779   4.784 -0.6536  0.3516  0.1870
   8423SM  H18F11275   5.335   2.809   4.754 -0.5581 -0.0470 -0.5669
   8423SM  H18G11276   5.500   2.871   4.785 -2.3000  1.5070  1.0757
   8423SM  C19F11277   5.446   2.722   4.927  0.2137 -0.2773 -0.9203
   8423SM  H19F11278   5.546   2.684   4.955  0.4119  0.2114 -0.9666
   8423SM  H19G11279   5.370   2.642   4.943 -1.8827  2.0366  1.8102
   8423SM  C20F11280   5.415   2.828   5.039 -0.3953 -0.0685 -0.1660
   8423SM  H20F11281   5.454   2.929   5.017 -0.7111  0.3253  1.0151
   8423SM  H20G11282   5.457   2.805   5.140 -2.7430 -0.6858  0.7269
   8423SM  C21F11283   5.265   2.847   5.063  0.3510 -0.0313  0.2668
   8423SM  H21F11284   5.217   2.749   5.087  0.8399 -0.1388  0.8556
   8423SM  H21G11285   5.222   2.895   4.973 -3.5676  0.6818  2.3029
   8423SM  C22F11286   5.240   2.937   5.184 -0.4598  0.3506  0.1042
   8423SM  H22F11287   5.296   3.033   5.175  1.1856 -0.6356 -0.8595
   8423SM  H22G11288   5.290   2.895   5.274  1.6394  0.0073 -1.1251
   8423SM  C23F11289   5.089   2.948   5.203  0.0246  0.4091  0.2153
   8423SM  H23F11290   5.046   2.845   5.205 -1.1709  0.8781 -0.5153
   8423SM  H23G11291   5.031   3.002   5.126  0.0206 -1.5617 -1.2294
   8423SM  H23H11292   5.067   3.005   5.296 -0.0626  3.4407 -1.5589
   8523SM     N11293   1.036   4.516   2.740 -0.6406 -0.2162 -0.5104
   8523SM   C1511294   1.040   4.513   2.591 -0.2351 -0.4327  0.1690
   8523SM  H15A11295   0.972   4.586   2.550 -0.6820 -1.1497 -0.3949
   8523SM  H15B11296   1.008   4.419   2.549 -0.0740 -1.0750  1.4275
   8523SM  H15C11297   1.136   4.530   2.545  0.3884  1.7816  2.1060
   8523SM   C1411298   1.155   4.433   2.785 -0.5199  0.6443  0.4244
   8523SM  H14A11299   1.251   4.482   2.777 -0.5171  0.5023 -0.4752
   8523SM  H14B11300   1.156   4.343   2.727  2.2082  0.1134  1.1567
   8523SM  H14C11301   1.149   4.401   2.888  0.0978  0.6929  0.4795
   8523SM   C1311302   1.055   4.654   2.788  0.5713 -0.1724 -0.9459
   8523SM  H13A11303   0.987   4.727   2.746  2.0364  1.8527 -0.0317
   8523SM  H13B11304   1.157   4.681   2.766  1.4494 -2.5127 -0.0031
   8523SM  H13C11305   1.054   4.659   2.896  0.7152 -2.1177 -0.8326
   8523SM   C1211306   0.908   4.456   2.785 -0.4392  0.5409 -0.4550
   8523SM  H12A11307   0.914   4.349   2.773 -0.7221  0.5880 -1.0665
   8523SM  H12B11308   0.829   4.494   2.722  1.5475  3.1749 -1.5368
   8523SM   C1111309   0.866   4.472   2.930  0.8326 -0.0626 -0.0198
   8523SM  H11A11310   0.763   4.430   2.930 -0.3363  2.5856  0.9652
   8523SM  H11B11311   0.865   4.578   2.964  3.3525 -0.6702  2.2752
   8523SM     P11312   0.941   4.240   3.039  0.2045 -0.0607  0.5396
   8523SM   O1311313   0.890   4.173   2.915  0.1252  0.3343 -0.6174
   8523SM   O1411314   1.072   4.199   3.093  0.5494 -0.1641  0.3253
   8523SM   O1111315   0.833   4.240   3.158 -0.0657  0.6246 -0.6028
   8523SM   O1211316   0.947   4.393   3.016 -0.0283 -0.5756 -0.5348
   8523SM   C1S11317   0.824   4.138   3.255  0.0586  0.8894 -0.9045
   8523SM   H1S11318   0.923   4.094   3.280  0.1667  1.9465  0.7306
   8523SM   H1T11319   0.755   4.063   3.210 -0.5975  0.5857  0.5186
   8523SM    NF11320   0.760   4.085   3.481 -0.1352  0.5044 -0.3152
   8523SM   HNF11321   0.674   4.035   3.493  1.4803 -1.8549  2.9240
   8523SM   C2S11322   0.761   4.193   3.385  0.0261  0.2807 -0.6159
   8523SM   H2S11323   0.819   4.280   3.422  2.2343 -1.2073 -0.3498
   8523SM   C3S11324   0.618   4.255   3.361  0.0018 -0.0811 -0.0158
   8523SM   H3S11325   0.542   4.180   3.332  0.4069  0.0673 -1.6045
   8523SM    O311326   0.616   4.359   3.262 -0.3530  0.0525  0.7131
   8523SM   HO311327   0.696   4.347   3.210  0.5650  1.1614  1.8046
   8523SM   C4S11328   0.563   4.321   3.491 -0.4912 -0.0900 -0.3715
   8523SM   H4S11329   0.523   4.247   3.561  1.8852 -0.7784  0.3620
   8523SM   C5S11330   0.564   4.454   3.519  0.3069 -0.2071 -0.4341
   8523SM   H5S11331   0.594   4.534   3.449  0.0813  0.8148  0.6116
   8523SM   C6S11332   0.513   4.524   3.642  0.2496  0.3943  0.3223
   8523SM   H6S11333   0.453   4.459   3.709  2.6632 -2.9878 -0.5500
   8523SM   H6T11334   0.448   4.605   3.602  1.9539  1.0658 -1.2030
   8523SM   C7S11335   0.634   4.591   3.723 -0.0419  0.2502  0.3903
   8523SM   H7S11336   0.695   4.664   3.666  0.4695 -0.2504  0.2846
   8523SM   H7T11337   0.712   4.514   3.740  1.0217  0.5102 -2.6514
   8523SM   C8S11338   0.583   4.670   3.843  0.0770 -0.4512 -0.6679
   8523SM   H8S11339   0.490   4.618   3.874 -2.0006  3.5343  0.3737
   8523SM   H8T11340   0.564   4.773   3.805  0.4732  0.2713  1.0069
   8523SM   C9S11341   0.687   4.685   3.951 -0.4278  0.1658 -1.1698
   8523SM   H9S11342   0.771   4.731   3.895  0.1540 -1.2794 -1.5289
   8523SM   H9T11343   0.714   4.582   3.982 -0.4871 -0.1691 -2.1964
   8523SM  C10S11344   0.651   4.771   4.070  0.1831 -0.1750 -0.5093
   8523SM  H10S11345   0.644   4.879   4.042 -2.7093  0.2521  1.4174
   8523SM  H10T11346   0.736   4.771   4.140  0.0937  0.7278 -0.3867
   8523SM  C11S11347   0.521   4.736   4.142  0.1917 -0.1782 -0.0422
   8523SM  H11S11348   0.520   4.627   4.164  0.3574  0.4035  3.4265
   8523SM  H11T11349   0.432   4.751   4.077 -0.9523 -2.5580  0.8474
   8523SM  C12S11350   0.519   4.802   4.281 -0.3660  0.2715  0.3936
   8523SM  H12S11351   0.501   4.909   4.257 -0.6277 -0.2405 -1.9021
   8523SM  H12T11352   0.626   4.800   4.311 -0.0367 -1.7666 -0.7323
   8523SM  C13S11353   0.426   4.747   4.385 -0.0831 -0.0708  0.1271
   8523SM  H13S11354   0.432   4.637   4.397 -4.0202 -0.6437 -1.5268
   8523SM  H13T11355   0.325   4.758   4.340 -0.0761  1.7454  0.5024
   8523SM  C14S11356   0.412   4.823   4.515  0.3205 -0.1000 -0.2013
   8523SM  H14S11357   0.322   4.776   4.558  0.9353 -1.0185  0.0941
   8523SM  H14T11358   0.399   4.931   4.492 -0.0574 -0.2170 -0.5524
   8523SM  C15S11359   0.534   4.791   4.605  0.0647  0.0459  0.4440
   8523SM  H15S11360   0.537   4.859   4.693 -1.0759  0.6777  0.0259
   8523SM  H15T11361   0.624   4.803   4.542  0.6502 -0.0099  1.2485
   8523SM  C16S11362   0.520   4.648   4.658 -0.7847 -0.1121  0.6452
   8523SM  H16S11363   0.531   4.566   4.585  0.3038  1.2823 -0.8347
   8523SM  H16T11364   0.417   4.631   4.698 -1.4006 -0.1329 -0.8892
   8523SM  C17S11365   0.631   4.626   4.760  0.5732 -0.2833  0.1588
   8523SM  H17S11366   0.597   4.689   4.845 -0.0453 -0.4993  0.0772
   8523SM  H17T11367   0.729   4.669   4.731  2.0793 -0.6980  3.9925
   8523SM  C18S11368   0.653   4.476   4.793 -0.4414  0.0807  0.0886
   8523SM  H18S11369   0.567   4.428   4.845 -1.9381  0.7218 -1.6712
   8523SM  H18T11370   0.745   4.461   4.853  0.5797 -0.7312 -1.6274
   8523SM  H18U11371   0.675   4.426   4.697 -1.0223  1.2328 -0.6617
   8523SM   C1F11372   0.869   4.028   3.538 -0.1445  0.9769  0.2973
   8523SM    OF11373   0.981   4.072   3.526 -0.0062  0.0227 -0.0388
   8523SM   C2F11374   0.835   3.897   3.613  0.3175 -0.9151  0.1022
   8523SM   H2F11375   0.896   3.822   3.559  1.2112  1.0142 -1.7120
   8523SM   H2G11376   0.726   3.876   3.606  0.1272  0.1484 -0.3543
   8523SM   C3F11377   0.891   3.889   3.757  0.4306 -0.4981 -0.4509
   8523SM   H3F11378   1.001   3.908   3.761  0.3322 -0.0687  1.6703
   8523SM   H3G11379   0.875   3.784   3.792  1.7421 -0.6660 -0.2794
   8523SM   C4F11380   0.826   3.986   3.855 -0.4190 -0.2072  0.3755
   8523SM   H4F11381   0.719   3.981   3.825 -0.5799  2.1410  0.3449
   8523SM   H4G11382   0.869   4.086   3.833 -0.4134  0.1959  2.0999
   8523SM   C5F11383   0.841   3.961   4.001  0.4529 -0.4953 -0.3757
   8523SM   H5F11384   0.766   3.887   4.038  1.2981 -0.3095  1.8695
   8523SM   H5G11385   0.805   4.049   4.059 -0.7522  1.1237 -3.3787
   8523SM   C6F11386   0.981   3.922   4.051  0.6066  1.0309 -0.8148
   8523SM   H6F11387   1.052   4.001   4.016 -0.4172  1.8004 -1.1865
   8523SM   H6G11388   1.012   3.824   4.008 -0.4392 -0.4261  1.5364
   8523SM   C7F11389   0.988   3.906   4.204  0.6943  0.7432  0.6892
   8523SM   H7F11390   0.935   3.817   4.246  3.2925 -1.9665 -1.3181
   8523SM   H7G11391   0.962   3.996   4.263 -0.6019  0.3605  0.7411
   8523SM   C8F11392   1.141   3.892   4.232 -0.4493 -0.0529  0.6092
   8523SM   H8F11393   1.200   3.983   4.207 -0.4045 -0.7319 -1.9922
   8523SM   H8G11394   1.175   3.810   4.165 -2.7519 -0.3225 -0.3304
   8523SM   C9F11395   1.182   3.876   4.380  0.3333 -0.0051 -0.2901
   8523SM   H9F11396   1.150   3.957   4.449  1.0542  0.8731 -0.9562
   8523SM   H9G11397   1.293   3.883   4.382  0.2968  0.5599  0.1781
   8523SM  C10F11398   1.141   3.739   4.449 -0.1217  0.2274  0.1592
   8523SM  H10F11399   1.233   3.689   4.486  0.6311  0.4970 -1.2623
   8523SM  H10G11400   1.107   3.669   4.370  3.1918 -1.2235 -0.1711
   8523SM  C11F11401   1.041   3.753   4.567  0.5401 -0.2988 -0.7324
   8523SM  H11F11402   0.964   3.825   4.532  0.5557  1.1082  1.8909
   8523SM  H11G11403   1.095   3.798   4.653  2.0310 -3.6757  0.2861
   8523SM  C12F11404   0.967   3.625   4.615  0.3183  0.3027  0.1727
   8523SM  H12F11405   1.035   3.551   4.663 -0.6060 -0.6069  0.0998
   8523SM  H12G11406   0.932   3.584   4.518  0.6607 -0.6708  0.4511
   8523SM  C13F11407   0.851   3.654   4.711  0.1961  0.1299 -0.3738
   8523SM  H13F11408   0.792   3.737   4.666 -0.6640 -0.2157  0.0975
   8523SM  H13G11409   0.898   3.682   4.807 -0.0187  1.3275 -0.6021
   8523SM  C14F11410   0.767   3.530   4.740 -0.3427  0.3697 -0.6060
   8523SM  H14F11411   0.816   3.449   4.797 -0.4475 -0.1973 -1.2982
   8523SM  H14G11412   0.728   3.492   4.642 -4.0421 -0.9064  1.1677
   8523SM  C15F11413   0.632   3.546   4.820 -0.3575 -0.2625  0.6966
   8523SM  H15F11414   0.563   3.462   4.797  0.8509 -0.8207 -1.1804
   8523SM  H15G11415   0.580   3.634   4.777  1.6015 -0.5622 -2.6904
   8523SM  C16F11416   0.648   3.563   4.966  0.9226 -0.3833  0.1217
   8523SM  H16F11417   0.692   3.665   4.974 -1.8272  1.0829 -1.7291
   8523SM  H16G11418   0.728   3.492   4.997  1.0838 -0.3883 -0.2990
   8523SM  C17F11419   0.517   3.545   5.044 -0.0915 -0.1772  0.0915
   8523SM  H17F11420   0.485   3.441   5.021  1.3469 -0.5567 -0.3107
   8523SM  H17G11421   0.442   3.613   4.999  0.7223 -0.0623 -1.1693
   8523SM  C18F11422   0.525   3.569   5.196  0.6316  0.1870  0.0405
   8523SM  H18F11423   0.566   3.478   5.245  0.6386 -0.4741 -1.1711
   8523SM  H18G11424   0.428   3.589   5.246  0.8156  1.3432 -0.0456
   8523SM  C19F11425   0.613   3.685   5.242 -0.2164 -0.3292  0.1349
   8523SM  H19F11426   0.608   3.767   5.167  0.8750 -1.7787 -1.6016
   8523SM  H19G11427   0.719   3.649   5.246  0.9080  2.7628  2.5083
   8523SM  C20F11428   0.565   3.735   5.379  0.5705  0.2548  0.2627
   8523SM  H20F11429   0.590   3.659   5.456 -0.6281 -0.1616  0.2791
   8523SM  H20G11430   0.454   3.743   5.384  0.6105  0.0533  2.1316
   8523SM  C21F11431   0.626   3.865   5.424 -0.3318  0.4624  0.0510
   8523SM  H21F11432   0.614   3.943   5.345 -0.8517  0.6171  0.2826
   8523SM  H21G11433   0.735   3.842   5.422  0.1726  2.5767  0.6366
   8523SM  C22F11434   0.587   3.920   5.562 -0.8556  0.5652  0.2305
   8523SM  H22F11435   0.662   3.999   5.583  2.7710 -2.4098 -0.4392
   8523SM  H22G11436   0.611   3.843   5.640  1.2362 -1.5970 -2.3381
   8523SM  C23F11437   0.448   3.969   5.574 -0.3034  0.0118 -0.1641
   8523SM  H23F11438   0.430   4.005   5.678 -0.5263  0.5325 -0.3768
   8523SM  H23G11439   0.367   3.895   5.559  0.8530 -1.3721  0.1867
   8523SM  H23H11440   0.428   4.054   5.505  0.5373 -0.9865 -1.6634
   8623SM     N11441   4.649   2.925   2.570  0.3167 -0.6371 -0.3237
   8623SM   C1511442   4.613   3.066   2.619 -0.2519  0.0763  0.2533
   8623SM  H15A11443   4.564   3.123   2.542  0.0551 -0.6569 -0.4989
   8623SM  H15B11444   4.703   3.119   2.645  0.9643  0.5870 -4.1266
   8623SM  H15C11445   4.537   3.068   2.696  0.8328 -2.5681  1.5141
   8623SM   C1411446   4.530   2.860   2.509 -0.3788 -0.1152 -0.0922
   8623SM  H14A11447   4.470   2.822   2.591 -0.4116 -1.8756 -0.8891
   8623SM  H14B11448   4.570   2.776   2.455  2.4103  1.2937 -0.3605
   8623SM  H14C11449   4.473   2.925   2.444  2.6504  1.4406 -1.3871
   8623SM   C1311450   4.743   2.934   2.455  0.2634  0.4242  0.5468
   8623SM  H13A11451   4.769   2.841   2.406  0.7746  0.5031  0.6571
   8623SM  H13B11452   4.840   2.970   2.488  1.1905 -1.1643 -0.2929
   8623SM  H13C11453   4.700   2.993   2.376 -0.7687 -1.2554 -0.1975
   8623SM   C1211454   4.711   2.844   2.681 -0.6121  0.5297  0.4184
   8623SM  H12A11455   4.805   2.889   2.709 -0.0215  1.7360 -3.0705
   8623SM  H12B11456   4.749   2.748   2.648 -0.7305  0.7134 -0.2485
   8623SM   C1111457   4.635   2.823   2.815 -0.0887 -0.1254 -0.0212
   8623SM  H11A11458   4.616   2.921   2.864  3.3763 -0.3616  2.1635
   8623SM  H11B11459   4.694   2.758   2.883 -2.8941  0.4865  3.2495
   8623SM     P11460   4.426   2.689   2.896  0.3904  0.1258  0.1623
   8623SM   O1311461   4.298   2.762   2.907  0.3913 -0.4155  0.1888
   8623SM   O1411462   4.417   2.549   2.853 -0.1091  0.7794 -0.9997
   8623SM   O1111463   4.507   2.701   3.040  0.7058 -0.0174 -0.0577
   8623SM   O1211464   4.511   2.761   2.785 -0.4130  0.7724  0.1677
   8623SM   C1S11465   4.455   2.642   3.154 -0.3152 -0.1300  0.0079
   8623SM   H1S11466   4.502   2.542   3.158 -0.8864 -0.5238 -2.0297
   8623SM   H1T11467   4.346   2.623   3.146  0.0742 -1.8017 -3.8821
   8623SM    NF11468   4.474   2.680   3.399 -0.1096 -0.2892 -0.8685
   8623SM   HNF11469   4.395   2.704   3.454  0.1361  3.4025 -1.8858
   8623SM   C2S11470   4.489   2.737   3.270  0.4452 -0.0589  0.3751
   8623SM   H2S11471   4.595   2.770   3.265  0.6132 -0.1404  2.5725
   8623SM   C3S11472   4.400   2.866   3.245  1.0867 -0.3350 -0.7023
   8623SM   H3S11473   4.293   2.842   3.259  0.8344  0.3791 -1.3461
   8623SM    O311474   4.407   2.941   3.122  0.1730 -0.1425  0.4808
   8623SM   HO311475   4.432   2.873   3.059  0.4913 -0.1736  0.6404
   8623SM   C4S11476   4.436   2.967   3.354  0.2215 -0.8089 -0.2962
   8623SM   H4S11477   4.541   2.964   3.387  0.7135  0.5924 -1.6248
   8623SM   C5S11478   4.353   3.055   3.418 -0.0179  0.0535  0.5184
   8623SM   H5S11479   4.247   3.056   3.390  0.6734 -2.6495 -2.9303
   8623SM   C6S11480   4.398   3.154   3.523 -0.2017  0.7011 -0.2292
   8623SM   H6S11481   4.380   3.254   3.478 -1.6445  0.7343  0.3795
   8623SM   H6T11482   4.509   3.154   3.527 -0.2347 -0.7260  2.0486
   8623SM   C7S11483   4.327   3.133   3.658  0.4450 -0.6680 -0.3485
   8623SM   H7S11484   4.319   3.026   3.686  2.4707 -0.6195  0.6250
   8623SM   H7T11485   4.223   3.170   3.648  0.5325  0.7254  2.6270
   8623SM   C8S11486   4.385   3.216   3.768  0.3029 -0.0913 -0.7227
   8623SM   H8S11487   4.349   3.321   3.769 -0.7790 -0.4392 -1.3036
   8623SM   H8T11488   4.496   3.218   3.761  0.3568  1.7534 -0.0646
   8623SM   C9S11489   4.340   3.153   3.898 -0.0402 -0.3114  0.0441
   8623SM   H9S11490   4.394   3.059   3.921  0.3430 -0.1968 -0.3645
   8623SM   H9T11491   4.231   3.131   3.902  0.1185 -0.9064  1.9133
   8623SM  C10S11492   4.372   3.252   4.011  0.3792 -0.0651  0.1048
   8623SM  H10S11493   4.303   3.337   3.996 -0.4514 -0.8874 -0.9288
   8623SM  H10T11494   4.473   3.295   3.994 -0.6157  1.8750 -1.3268
   8623SM  C11S11495   4.366   3.198   4.156 -0.6523  0.4143  0.3534
   8623SM  H11S11496   4.419   3.103   4.174 -1.9255  0.0965  2.9646
   8623SM  H11T11497   4.257   3.180   4.167 -0.8934  0.6857 -1.4125
   8623SM  C12S11498   4.426   3.289   4.265  0.5420  0.0156 -0.1170
   8623SM  H12S11499   4.355   3.374   4.272  1.3839  0.7927 -0.7690
   8623SM  H12T11500   4.520   3.330   4.221  0.0358 -0.3136 -1.5879
   8623SM  C13S11501   4.434   3.219   4.403 -0.6666  0.1383 -0.3750
   8623SM  H13S11502   4.505   3.134   4.398  0.1794  0.8216 -0.2828
   8623SM  H13T11503   4.336   3.173   4.428 -0.3903 -1.3675 -1.8812
   8623SM  C14S11504   4.492   3.315   4.512 -0.0337 -0.0636 -0.0334
   8623SM  H14S11505   4.414   3.386   4.547 -0.1226 -0.7655  1.2280
   8623SM  H14T11506   4.566   3.385   4.466 -0.3453  0.4550  0.2463
   8623SM  C15S11507   4.557   3.243   4.627 -0.1154 -0.4919 -0.4624
   8623SM  H15S11508   4.639   3.178   4.588  1.0916  1.0714 -0.6024
   8623SM  H15T11509   4.473   3.188   4.676 -0.5685  1.3774  0.9531
   8623SM  C16S11510   4.619   3.350   4.719 -0.2765  0.7619 -0.2684
   8623SM  H16S11511   4.532   3.409   4.754 -2.9713 -0.5864 -3.9666
   8623SM  H16T11512   4.681   3.427   4.669 -1.3351  1.2798 -0.8114
   8623SM  C17S11513   4.701   3.282   4.828  0.5611  0.3933 -0.2358
   8623SM  H17S11514   4.749   3.359   4.892 -2.5401  2.1765  0.1342
   8623SM  H17T11515   4.779   3.226   4.772  0.4602 -0.3462  0.3563
   8623SM  C18S11516   4.634   3.186   4.927 -0.2650  0.1416 -0.0602
   8623SM  H18S11517   4.712   3.143   4.993 -0.2703 -0.2540 -0.3051
   8623SM  H18T11518   4.597   3.095   4.873 -0.0330  0.1769 -0.2828
   8623SM  H18U11519   4.556   3.233   4.990  0.8720 -2.6795  3.8560
   8623SM   C1F11520   4.553   2.580   3.436  0.2783  0.2916 -0.4247
   8623SM    OF11521   4.644   2.537   3.367 -0.0559 -0.2085 -0.5315
   8623SM   C2F11522   4.535   2.530   3.578  0.6016 -0.9324  0.3252
   8623SM   H2F11523   4.427   2.508   3.594  0.2442  0.5615  0.2061
   8623SM   H2G11524   4.551   2.622   3.639 -1.6511  0.8694 -1.5532
   8623SM   C3F11525   4.619   2.407   3.620 -0.1255  0.1626  0.0750
   8623SM   H3F11526   4.727   2.434   3.615 -0.0453  0.0718  1.1524
   8623SM   H3G11527   4.599   2.323   3.551 -0.7244  0.7542 -0.4892
   8623SM   C4F11528   4.577   2.366   3.759  0.5278 -0.3089 -0.4370
   8623SM   H4F11529   4.610   2.261   3.772  2.0560  0.0117 -1.4142
   8623SM   H4G11530   4.466   2.358   3.765  0.3910 -2.8066 -3.6453
   8623SM   C5F11531   4.619   2.462   3.875  0.4972 -0.4130  0.0925
   8623SM   H5F11532   4.578   2.565   3.868 -0.2469 -0.6544  0.7027
   8623SM   H5G11533   4.729   2.473   3.882  0.4513 -0.3068  0.7771
   8623SM   C6F11534   4.574   2.406   4.005 -0.1771  0.1562 -0.7084
   8623SM   H6F11535   4.595   2.298   4.018  1.6574  0.5279 -0.3476
   8623SM   H6G11536   4.466   2.431   4.018  0.0521 -0.2445  3.1837
   8623SM   C7F11537   4.642   2.479   4.124  0.0957  1.0422 -0.3246
   8623SM   H7F11538   4.617   2.587   4.127 -1.6299  0.6636  2.0510
   8623SM   H7G11539   4.750   2.457   4.108  0.0649  1.1989 -0.7649
   8623SM   C8F11540   4.603   2.410   4.259  0.3657  0.2612 -0.8369
   8623SM   H8F11541   4.598   2.299   4.247  1.3256  0.2759 -1.5240
   8623SM   H8G11542   4.495   2.433   4.274  0.4036  0.6123 -1.0808
   8623SM   C9F11543   4.688   2.459   4.380  0.0408  0.1982  0.3649
   8623SM   H9F11544   4.741   2.553   4.355  1.9808 -1.1775 -0.9100
   8623SM   H9G11545   4.759   2.375   4.389 -1.7789 -1.8561 -2.6183
   8623SM  C10F11546   4.626   2.470   4.518  0.0493  0.3714  0.2762
   8623SM  H10F11547   4.516   2.480   4.506  0.0560  1.4327  1.0017
   8623SM  H10G11548   4.670   2.560   4.567  1.1764  0.5246 -0.9605
   8623SM  C11F11549   4.654   2.355   4.610  0.4028  0.0465  0.8111
   8623SM  H11F11550   4.612   2.368   4.712 -0.2785  1.5509  0.3667
   8623SM  H11G11551   4.763   2.342   4.620  0.2519 -1.0853  1.0853
   8623SM  C12F11552   4.594   2.222   4.556 -0.1813 -0.2332 -0.3165
   8623SM  H12F11553   4.640   2.218   4.455 -0.1357  1.9390 -0.4379
   8623SM  H12G11554   4.483   2.229   4.556 -0.1466  1.2214 -2.4211
   8623SM  C13F11555   4.639   2.109   4.645 -0.6710  0.6527 -0.6220
   8623SM  H13F11556   4.607   2.130   4.749 -1.1042  1.7612 -0.9631
   8623SM  H13G11557   4.749   2.097   4.645 -0.5544  1.5003 -2.1082
   8623SM  C14F11558   4.581   1.975   4.589  0.3518 -0.7446 -1.2847
   8623SM  H14F11559   4.471   1.988   4.580  0.2818 -0.6118 -0.3388
   8623SM  H14G11560   4.604   1.911   4.677  1.0728  0.8581 -0.2539
   8623SM  C15F11561   4.639   1.924   4.460 -0.1264 -0.2841  0.6408
   8623SM  H15F11562   4.751   1.925   4.457 -0.1359  0.1418 -2.1125
   8623SM  H15G11563   4.612   2.007   4.391  0.3262  0.7054  1.6111
   8623SM  C16F11564   4.583   1.783   4.421 -0.3650 -0.2052  0.3190
   8623SM  H16F11565   4.472   1.779   4.414 -0.3048 -0.0018 -1.0453
   8623SM  H16G11566   4.611   1.706   4.496  0.5726 -0.3304 -0.1473
   8623SM  C17F11567   4.629   1.747   4.277 -0.2168 -0.4158 -0.4540
   8623SM  H17F11568   4.626   1.832   4.205  0.0743  0.3600  0.4358
   8623SM  H17G11569   4.568   1.668   4.228 -0.3686 -0.5044 -0.1253
   8623SM  C18F11570   4.775   1.703   4.275  0.0903  0.1863 -0.0288
   8623SM  H18F11571   4.800   1.655   4.372 -1.7012  1.0285  0.9041
   8623SM  H18G11572   4.837   1.796   4.274  1.0870 -0.4190  1.3587
   8623SM  C19F11573   4.810   1.612   4.157  0.5757  0.2765  0.7294
   8623SM  H19F11574   4.758   1.515   4.153  1.8429 -0.3773 -0.8835
   8623SM  H19G11575   4.919   1.591   4.161  0.7349  0.7402 -0.6056
   8623SM  C20F11576   4.769   1.671   4.019 -0.5162  0.0864 -0.6533
   8623SM  H20F11577   4.815   1.771   4.009  1.1430 -0.7283 -1.4773
   8623SM  H20G11578   4.659   1.688   4.027 -0.1469  1.7371  2.2638
   8623SM  C21F11579   4.804   1.597   3.891 -0.2325 -0.2613  0.2015
   8623SM  H21F11580   4.760   1.495   3.888  0.9302 -0.7645 -0.3188
   8623SM  H21G11581   4.915   1.592   3.886 -0.2814 -0.5394 -2.6321
   8623SM  C22F11582   4.747   1.674   3.777 -0.0991 -0.5054 -0.0539
   8623SM  H22F11583   4.821   1.684   3.695  0.4940 -0.9928  0.4166
   8623SM  H22G11584   4.718   1.779   3.801  0.5265 -0.1301 -0.8852
   8623SM  C23F11585   4.619   1.616   3.734  0.3414 -0.1209  0.0242
   8623SM  H23F11586   4.642   1.542   3.654 -0.1534 -2.5261  1.9733
   8623SM  H23G11587   4.544   1.693   3.707  1.0425  0.8483  0.7732
   8623SM  H23H11588   4.575   1.572   3.825  2.0009  1.7097  1.8119
   8723SM     N11589   5.195   2.271   2.449  0.3766  0.1262  0.4820
   8723SM   C1511590   5.319   2.232   2.519  0.2858  0.0167  0.6950
   8723SM  H15A11591   5.322   2.125   2.537 -0.2358  0.1198  1.4373
   8723SM  H15B11592   5.324   2.285   2.613  0.0614  0.9799  0.1798
   8723SM  H15C11593   5.406   2.246   2.457 -0.3195  1.2001  0.0878
   8723SM   C1411594   5.194   2.419   2.441  0.3757 -0.5570 -0.3223
   8723SM  H14A11595   5.175   2.456   2.540  0.9517  0.2567 -0.5035
   8723SM  H14B11596   5.109   2.460   2.388  0.3202 -0.6510 -0.3071
   8723SM  H14C11597   5.283   2.460   2.396 -0.5043 -0.7888 -2.4043
   8723SM   C1311598   5.185   2.222   2.304 -1.0464  1.0928  0.5048
   8723SM  H13A11599   5.123   2.287   2.244 -1.9693  0.6429  0.9512
   8723SM  H13B11600   5.139   2.125   2.297 -0.3618  0.8327 -0.8941
   8723SM  H13C11601   5.283   2.219   2.259 -1.8528 -2.3138 -1.3642
   8723SM   C1211602   5.068   2.219   2.522  0.0217 -0.8863  0.8323
   8723SM  H12A11603   5.062   2.111   2.517  1.3458 -1.0873  2.5991
   8723SM  H12B11604   4.981   2.268   2.480  0.3384 -0.5097  0.6070
   8723SM   C1111605   5.056   2.267   2.675  0.2063  0.5159  0.1949
   8723SM  H11A11606   5.145   2.227   2.730  2.0824  1.2001 -2.1551
   8723SM  H11B11607   4.974   2.212   2.725 -1.2901  2.6390  0.1716
   8723SM     P11608   4.893   2.483   2.704 -0.3672  0.3931  0.1718
   8723SM   O1311609   4.899   2.606   2.625 -0.2350  0.5366 -0.0782
   8723SM   O1411610   4.790   2.381   2.658 -0.7844  0.0364 -0.1683
   8723SM   O1111611   4.897   2.519   2.854  0.0246 -0.0963  0.3049
   8723SM   O1211612   5.033   2.412   2.690 -0.2139  0.1308 -0.2600
   8723SM   C1S11613   4.793   2.480   2.944  0.2523 -0.8100  0.5965
   8723SM   H1S11614   4.730   2.399   2.902 -1.0770  0.7673 -0.5682
   8723SM   H1T11615   4.729   2.569   2.965  0.1315 -0.3819 -1.3805
   8723SM    NF11616   4.765   2.381   3.166  0.1335  0.7939 -0.3477
   8723SM   HNF11617   4.729   2.438   3.239  0.4552  1.2920 -0.5689
   8723SM   C2S11618   4.854   2.453   3.083 -1.0498  0.4581 -0.2979
   8723SM   H2S11619   4.943   2.389   3.066 -0.5385  0.8302  0.8509
   8723SM   C3S11620   4.906   2.579   3.144 -0.2836 -0.6746 -0.2353
   8723SM   H3S11621   4.818   2.642   3.171  1.0590  1.3886 -0.4673
   8723SM    O311622   4.990   2.656   3.056  0.1180 -0.1387  0.0785
   8723SM   HO311623   4.973   2.620   2.969 -0.6735  0.9693 -0.2494
   8723SM   C4S11624   4.963   2.546   3.276  0.1447 -0.6002  0.2340
   8723SM   H4S11625   4.882   2.523   3.347  0.9171 -3.0618  0.4243
   8723SM   C5S11626   5.094   2.526   3.306 -0.3028  0.2636 -0.1903
   8723SM   H5S11627   5.155   2.534   3.215  0.2308  0.0578  0.1438
   8723SM   C6S11628   5.161   2.490   3.435 -0.3241  0.1210 -0.2067
   8723SM   H6S11629   5.241   2.566   3.446 -1.8124  2.0919 -2.1352
   8723SM   H6T11630   5.214   2.394   3.421 -0.7439 -0.1803  0.2248
   8723SM   C7S11631   5.055   2.491   3.545 -0.4623  0.3454 -0.2397
   8723SM   H7S11632   4.978   2.411   3.538  1.1440 -1.2855  0.1396
   8723SM   H7T11633   4.999   2.587   3.543 -2.4001 -0.5919  2.5704
   8723SM   C8S11634   5.132   2.479   3.680 -0.1109 -0.2788 -0.5525
   8723SM   H8S11635   5.208   2.560   3.684  0.2581 -0.6725  1.0919
   8723SM   H8T11636   5.197   2.389   3.672  0.1202 -0.3294  1.5075
   8723SM   C9S11637   5.042   2.478   3.803  0.3734  0.1395  0.4351
   8723SM   H9S11638   4.967   2.397   3.792 -0.0077  0.7177 -1.9031
   8723SM   H9T11639   4.983   2.572   3.805  1.8189  1.0817  2.2855
   8723SM  C10S11640   5.126   2.475   3.931 -0.0081 -0.0227  0.2129
   8723SM  H10S11641   5.223   2.524   3.907 -0.7852  1.0331 -0.8765
   8723SM  H10T11642   5.157   2.376   3.971  1.4979  0.2756 -0.1430
   8723SM  C11S11643   5.063   2.561   4.041 -0.6940  0.2873 -0.2353
   8723SM  H11S11644   4.958   2.527   4.054 -0.4693  0.0362  1.0291
   8723SM  H11T11645   5.061   2.665   4.001  0.0795  0.4116  0.0283
   8723SM  C12S11646   5.131   2.545   4.176 -0.1390 -0.4060 -0.0913
   8723SM  H12S11647   5.191   2.637   4.196 -0.0198 -0.6497  0.7280
   8723SM  H12T11648   5.213   2.470   4.171 -0.2061 -0.7215  2.3373
   8723SM  C13S11649   5.039   2.518   4.291  0.2272  0.6780 -0.7636
   8723SM  H13S11650   5.004   2.412   4.289 -0.9611  1.0447 -0.5726
   8723SM  H13T11651   4.951   2.585   4.282 -0.8847 -0.9119 -2.5110
   8723SM  C14S11652   5.114   2.544   4.421  0.3582  0.8101 -0.0180
   8723SM  H14S11653   5.142   2.652   4.426  1.9006  0.4168  0.3481
   8723SM  H14T11654   5.208   2.486   4.417  0.4947  1.0792 -1.0419
   8723SM  C15S11655   5.022   2.494   4.537 -0.2349  0.0920 -0.9607
   8723SM  H15S11656   4.977   2.392   4.533  0.4311 -0.3808  1.6974
   8723SM  H15T11657   4.941   2.570   4.539 -0.1307  0.1939  0.4723
   8723SM  C16S11658   5.101   2.519   4.668  0.1677  0.1362  0.6465
   8723SM  H16S11659   5.143   2.622   4.669  0.1326  0.1727  2.6705
   8723SM  H16T11660   5.192   2.457   4.679  0.7604  1.0112  0.7682
   8723SM  C17S11661   5.018   2.515   4.785  0.6652  0.6844 -0.5462
   8723SM  H17S11662   4.962   2.420   4.801 -0.4573  1.4427  0.1713
   8723SM  H17T11663   4.934   2.587   4.783 -0.6148 -0.6641  1.3354
   8723SM  C18S11664   5.099   2.545   4.911  0.4300 -0.1020 -0.1115
   8723SM  H18S11665   5.124   2.653   4.912  1.2870 -0.2031 -2.9029
   8723SM  H18T11666   5.199   2.498   4.917  0.9792  0.8538 -1.2545
   8723SM  H18U11667   5.040   2.512   4.999 -0.4680 -0.5369 -0.8545
   8723SM   C1F11668   4.720   2.256   3.141 -0.0117  0.0470 -0.4678
   8723SM    OF11669   4.748   2.195   3.038  0.0384 -0.8376  0.2011
   8723SM   C2F11670   4.617   2.207   3.240  0.2162  0.7021 -0.6918
   8723SM   H2F11671   4.530   2.163   3.187  0.1578 -0.2693  0.1966
   8723SM   H2G11672   4.577   2.296   3.295 -0.7618 -0.7788  1.1179
   8723SM   C3F11673   4.678   2.098   3.329 -0.2726 -0.3816 -0.7297
   8723SM   H3F11674   4.716   2.010   3.273  0.5058 -1.3676  1.2707
   8723SM   H3G11675   4.601   2.068   3.403  0.6175 -0.5008  0.1689
   8723SM   C4F11676   4.799   2.137   3.419  1.0715  0.1275  0.4173
   8723SM   H4F11677   4.801   2.247   3.438  3.3520  0.1941  0.1596
   8723SM   H4G11678   4.897   2.126   3.367  0.9201 -0.2738  0.2134
   8723SM   C5F11679   4.806   2.054   3.545  0.2482 -0.5042  0.5994
   8723SM   H5F11680   4.859   1.962   3.514 -0.0292 -0.1136 -1.1646
   8723SM   H5G11681   4.712   2.031   3.599 -1.2014 -0.5863 -1.7849
   8723SM   C6F11682   4.886   2.127   3.656  0.2415 -0.5599 -0.3592
   8723SM   H6F11683   4.848   2.231   3.665  0.1995 -0.6482  0.5596
   8723SM   H6G11684   4.994   2.135   3.632  0.7697  1.0231  2.1711
   8723SM   C7F11685   4.863   2.056   3.790 -0.2570  0.1069  0.1945
   8723SM   H7F11686   4.879   1.946   3.784 -2.7430 -0.2852 -0.2333
   8723SM   H7G11687   4.756   2.067   3.819  0.8676 -0.5886  5.4793
   8723SM   C8F11688   4.938   2.122   3.900 -0.8719 -0.2847  1.1518
   8723SM   H8F11689   4.896   2.224   3.916 -0.3203 -0.0759  1.2780
   8723SM   H8G11690   5.040   2.141   3.861 -1.2412  0.1570  0.3739
   8723SM   C9F11691   4.938   2.045   4.033 -0.5874  0.3534 -0.0247
   8723SM   H9F11692   5.005   1.958   4.015 -0.8481  0.3022 -0.7765
   8723SM   H9G11693   4.836   2.006   4.055 -0.9987  1.0837 -0.6009
   8723SM  C10F11694   4.974   2.132   4.154 -0.7497 -0.0546  0.1338
   8723SM  H10F11695   4.897   2.210   4.170  1.1457  1.6646  1.2553
   8723SM  H10G11696   5.065   2.184   4.118 -0.1780 -0.5728  0.7914
   8723SM  C11F11697   5.014   2.049   4.280 -0.6136  0.4730  0.2590
   8723SM  H11F11698   5.112   2.000   4.259 -0.1993  0.5956  1.7783
   8723SM  H11G11699   4.941   1.976   4.320  0.5520  0.3230  2.2241
   8723SM  C12F11700   5.033   2.128   4.407 -0.2388  0.1188 -0.0090
   8723SM  H12F11701   4.938   2.184   4.424 -0.1559  0.0064  0.8883
   8723SM  H12G11702   5.115   2.201   4.390  1.3058 -1.6519 -0.5082
   8723SM  C13F11703   5.061   2.050   4.538 -0.3169  0.3566 -0.4025
   8723SM  H13F11704   5.147   1.980   4.530  0.2969  1.0865 -0.2584
   8723SM  H13G11705   4.968   1.993   4.559  1.0469 -1.3425  1.3669
   8723SM  C14F11706   5.077   2.143   4.656  0.4738 -0.2215 -0.1314
   8723SM  H14F11707   4.989   2.211   4.666  1.3548  0.6956  2.1024
   8723SM  H14G11708   5.163   2.208   4.626 -1.1122  0.6721 -3.1570
   8723SM  C15F11709   5.092   2.073   4.786  0.2788  1.0659  1.2074
   8723SM  H15F11710   5.188   2.018   4.787  0.4486  1.3507  0.7349
   8723SM  H15G11711   5.004   2.006   4.799  0.4926  0.7220  0.8840
   8723SM  C16F11712   5.109   2.163   4.906  1.0262  0.6069  0.9532
   8723SM  H16F11713   5.027   2.239   4.898 -0.6315 -1.2691 -0.9501
   8723SM  H16G11714   5.206   2.217   4.896  1.6562 -0.8768 -2.0174
   8723SM  C17F11715   5.112   2.091   5.042  0.0739  0.3755  0.6124
   8723SM  H17F11716   5.010   2.059   5.072  0.3433 -2.2299 -0.9621
   8723SM  H17G11717   5.144   2.157   5.125 -0.7028  1.3189  0.1846
   8723SM  C18F11718   5.202   1.967   5.040 -0.8532 -0.5533 -0.4104
   8723SM  H18F11719   5.291   2.007   4.988 -1.3834 -0.3151 -1.1423
   8723SM  H18G11720   5.163   1.891   4.969 -2.0710  1.7345 -2.3247
   8723SM  C19F11721   5.234   1.908   5.178  0.0858 -0.1295 -0.8444
   8723SM  H19F11722   5.150   1.868   5.239  1.8061 -2.4608  0.1199
   8723SM  H19G11723   5.276   1.987   5.244 -0.9348 -1.1107  1.0452
   8723SM  C20F11724   5.341   1.797   5.182 -0.0701  0.8255  0.9080
   8723SM  H20F11725   5.435   1.833   5.136 -0.7573  0.5495 -0.7623
   8723SM  H20G11726   5.311   1.717   5.112  2.9694  2.4595 -2.6120
   8723SM  C21F11727   5.380   1.740   5.326 -0.7364  0.0700 -0.0768
   8723SM  H21F11728   5.463   1.667   5.317  0.6188  1.3857  1.2294
   8723SM  H21G11729   5.294   1.691   5.378 -0.5155  0.6011  0.8266
   8723SM  C22F11730   5.436   1.840   5.433 -0.4418  0.8955  0.1966
   8723SM  H22F11731   5.453   1.792   5.532  0.5839  3.8047  1.5494
   8723SM  H22G11732   5.369   1.927   5.448 -0.5315  1.0816 -1.1380
   8723SM  C23F11733   5.574   1.897   5.389 -0.4173 -0.4111 -0.1847
   8723SM  H23F11734   5.636   1.807   5.368  0.0982  0.1441 -1.1021
   8723SM  H23G11735   5.611   1.949   5.480 -0.7710  1.4403 -1.0551
   8723SM  H23H11736   5.574   1.962   5.300  1.1282 -1.0046 -0.6587
   8823SM     N11737   2.302   2.212   3.525  0.3161 -0.0088 -0.3799
   8823SM   C1511738   2.308   2.322   3.632 -0.8254  0.2376 -0.0494
   8823SM  H15A11739   2.395   2.306   3.695 -0.4152  3.2695  0.3042
   8823SM  H15B11740   2.227   2.305   3.702 -0.6407 -0.2508  0.0538
   8823SM  H15C11741   2.312   2.418   3.583 -0.8755  0.8397  1.0726
   8823SM   C1411742   2.188   2.242   3.439  0.3302 -0.3867 -0.3672
   8823SM  H14A11743   2.094   2.236   3.493  0.7280 -2.5451  0.1974
   8823SM  H14B11744   2.198   2.163   3.366  2.3176 -1.3605  0.8685
   8823SM  H14C11745   2.187   2.339   3.392 -1.2274  0.8804  2.0834
   8823SM   C1311746   2.423   2.223   3.437 -0.6535 -0.4629  0.6693
   8823SM  H13A11747   2.512   2.185   3.486  0.7472  1.3305 -0.3593
   8823SM  H13B11748   2.445   2.324   3.406 -2.0408 -0.9490 -2.2691
   8823SM  H13C11749   2.415   2.157   3.351 -2.1681  1.0414 -0.3971
   8823SM   C1211750   2.290   2.075   3.591 -0.6609  0.1918 -0.4012
   8823SM  H12A11751   2.262   2.000   3.519  1.1200 -2.0777  1.1148
   8823SM  H12B11752   2.214   2.077   3.668 -0.3962  0.8310 -0.1449
   8823SM   C1111753   2.415   2.019   3.658 -0.7658 -0.2535  0.4606
   8823SM  H11A11754   2.385   1.939   3.728 -0.5439  0.3228  1.2277
   8823SM  H11B11755   2.458   2.098   3.723  1.1404 -0.1799 -0.8268
   8823SM     P11756   2.492   1.829   3.494  0.1810 -0.0302 -0.2031
   8823SM   O1311757   2.371   1.750   3.540  0.8219  0.2884  0.6117
   8823SM   O1411758   2.512   1.851   3.346 -0.4766 -0.0584 -0.3744
   8823SM   O1111759   2.627   1.749   3.543 -0.1489 -0.4401 -0.0680
   8823SM   O1211760   2.507   1.978   3.562 -0.4786 -0.1465  0.0248
   8823SM   C1S11761   2.639   1.733   3.683 -0.5606 -0.3937  0.6490
   8823SM   H1S11762   2.607   1.824   3.740  2.2373  0.5736  0.8453
   8823SM   H1T11763   2.748   1.725   3.700 -0.8513 -1.6297  2.1669
   8823SM    NF11764   2.613   1.603   3.883  0.1047 -0.2385  0.0091
   8823SM   HNF11765   2.672   1.525   3.902 -0.8273 -0.9354  0.1642
   8823SM   C2S11766   2.573   1.603   3.741 -0.3053 -0.3773 -0.3938
   8823SM   H2S11767   2.462   1.612   3.740 -0.2495  2.0670  2.0973
   8823SM   C3S11768   2.619   1.477   3.662  0.0004 -0.3142 -0.0024
   8823SM   H3S11769   2.730   1.474   3.672 -0.0212  1.1487  0.9846
   8823SM    O311770   2.593   1.468   3.520  0.0816 -0.7531 -0.0040
   8823SM   HO311771   2.577   1.559   3.494  0.7091 -0.8952 -0.9404
   8823SM   C4S11772   2.564   1.361   3.733 -0.1271  0.5064 -0.6509
   8823SM   H4S11773   2.615   1.323   3.822  1.1440  0.2424 -1.4643
   8823SM   C5S11774   2.441   1.305   3.702 -0.6099  0.5341 -0.0919
   8823SM   H5S11775   2.383   1.350   3.621  0.7744 -0.1404 -1.5036
   8823SM   C6S11776   2.383   1.186   3.774  0.4124  0.4127 -0.3479
   8823SM   H6S11777   2.298   1.137   3.722  0.0958 -0.3495  0.8589
   8823SM   H6T11778   2.327   1.212   3.866 -0.4070 -1.9989 -0.1043
   8823SM   C7S11779   2.486   1.062   3.799 -0.1021 -0.6276  0.1992
   8823SM   H7S11780   2.587   1.095   3.830  0.3364  1.2493 -2.8381
   8823SM   H7T11781   2.499   1.008   3.703 -2.3823 -2.5284  0.8632
   8823SM   C8S11782   2.423   0.957   3.888 -0.2331  0.2331 -0.6338
   8823SM   H8S11783   2.474   0.859   3.876 -0.2481  0.1075  0.2253
   8823SM   H8T11784   2.315   0.955   3.863 -0.5918 -0.2979  0.8315
   8823SM   C9S11785   2.438   0.984   4.041 -0.1675  0.2479  0.6337
   8823SM   H9S11786   2.365   1.065   4.061  0.3885  0.4236  2.0792
   8823SM   H9T11787   2.541   1.028   4.042 -0.8539  1.9235  1.1001
   8823SM  C10S11788   2.416   0.854   4.120  0.3222  0.3076 -0.5029
   8823SM  H10S11789   2.493   0.783   4.083  1.5061  0.9514  0.6082
   8823SM  H10T11790   2.318   0.813   4.089  0.2742  0.3720 -0.4352
   8823SM  C11S11791   2.425   0.861   4.273  0.3507 -0.3207 -0.3488
   8823SM  H11S11792   2.516   0.920   4.300  0.8430 -1.6525  1.0421
   8823SM  H11T11793   2.435   0.761   4.320  0.2390  0.4945  1.5118
   8823SM  C12S11794   2.305   0.931   4.336 -0.5693  0.5749  0.1408
   8823SM  H12S11795   2.218   0.870   4.307  0.1449 -0.8826  0.9323
   8823SM  H12T11796   2.286   1.034   4.298  1.2071  0.5773 -0.8510
   8823SM  C13S11797   2.324   0.935   4.484  0.3307 -0.0566  0.3386
   8823SM  H13S11798   2.409   0.998   4.518  0.8479 -1.2129  1.2558
   8823SM  H13T11799   2.335   0.830   4.516 -1.1721 -1.4039 -3.0990
   8823SM  C14S11800   2.206   1.014   4.546 -0.3112  0.2691  0.1033
   8823SM  H14S11801   2.108   0.981   4.505 -1.0368 -2.3537  3.5023
   8823SM  H14T11802   2.220   1.120   4.515 -0.1117  0.8005  1.8883
   8823SM  C15S11803   2.192   1.008   4.700 -0.1486  0.1804  0.6025
   8823SM  H15S11804   2.289   1.042   4.742 -0.3607 -0.2388  1.4486
   8823SM  H15T11805   2.170   0.907   4.740  0.6295 -0.9054 -1.5774
   8823SM  C16S11806   2.088   1.103   4.752  0.5263  0.3418 -0.1879
   8823SM  H16S11807   1.985   1.089   4.714 -0.0784  2.4240  0.5479
   8823SM  H16T11808   2.116   1.207   4.728  3.0769 -0.2769 -0.1886
   8823SM  C17S11809   2.074   1.093   4.908 -0.1857 -0.4849 -0.2085
   8823SM  H17S11810   2.175   1.073   4.950  0.1544 -1.4514 -1.4254
   8823SM  H17T11811   2.016   1.000   4.924 -1.5258 -0.0670 -2.2543
   8823SM  C18S11812   1.996   1.215   4.949  0.1574  0.3484 -0.5849
   8823SM  H18S11813   2.030   1.313   4.908  0.4748  1.1595  1.4926
   8823SM  H18T11814   1.994   1.217   5.060 -0.6214  0.0888 -0.5858
   8823SM  H18U11815   1.892   1.194   4.916  0.8464 -2.5822 -1.1569
   8823SM   C1F11816   2.578   1.700   3.971 -1.3221 -0.3721  0.0531
   8823SM    OF11817   2.480   1.767   3.940 -0.4924 -0.1036  0.0109
   8823SM   C2F11818   2.644   1.724   4.097 -0.7578 -0.2585  0.1446
   8823SM   H2F11819   2.754   1.723   4.085 -0.6105  0.7803  1.1430
   8823SM   H2G11820   2.613   1.648   4.171  0.7459 -0.2122  0.8614
   8823SM   C3F11821   2.603   1.855   4.170 -0.2097  0.3932  0.0431
   8823SM   H3F11822   2.573   1.930   4.093 -0.3220 -0.8751 -1.1814
   8823SM   H3G11823   2.690   1.905   4.218  0.6460 -0.0349 -1.0237
   8823SM   C4F11824   2.480   1.833   4.264  0.3331  0.2284 -0.2340
   8823SM   H4F11825   2.502   1.755   4.340 -1.0776 -0.4911 -0.5207
   8823SM   H4G11826   2.392   1.785   4.215  1.1663 -1.4390 -0.1705
   8823SM   C5F11827   2.437   1.955   4.341  0.9287  0.0801  0.2471
   8823SM   H5F11828   2.531   2.010   4.361  0.7838 -0.5985  3.3304
   8823SM   H5G11829   2.402   1.930   4.444 -0.8837 -0.7379 -0.5164
   8823SM   C6F11830   2.326   2.038   4.272 -0.2055  0.0246 -0.7314
   8823SM   H6F11831   2.338   2.031   4.162  0.5716  2.3316 -0.8497
   8823SM   H6G11832   2.338   2.143   4.307 -1.1704 -1.0630  3.4435
   8823SM   C7F11833   2.182   2.004   4.319 -0.2286  0.4480  0.5894
   8823SM   H7F11834   2.165   1.896   4.298 -1.6618  0.3927  1.8210
   8823SM   H7G11835   2.106   2.064   4.264  0.1540  0.8704  0.5190
   8823SM   C8F11836   2.153   2.027   4.472 -0.0759 -0.2829 -0.6384
   8823SM   H8F11837   2.163   2.137   4.483 -2.3725 -0.1278  0.3921
   8823SM   H8G11838   2.224   1.970   4.536 -0.8166 -0.3507  0.1398
   8823SM   C9F11839   2.010   1.995   4.526 -0.6672 -0.5828  0.2072
   8823SM   H9F11840   1.982   1.887   4.526 -0.9913 -0.5654 -2.1323
   8823SM   H9G11841   1.938   2.052   4.462  1.0290 -0.3906 -1.6204
   8823SM  C10F11842   2.000   2.063   4.664 -0.0936  0.0857 -0.0836
   8823SM  H10F11843   2.016   2.172   4.678  1.5958 -0.2020  0.4338
   8823SM  H10G11844   2.082   2.021   4.727 -0.8582  0.2677  1.0612
   8823SM  C11F11845   1.871   2.043   4.735 -0.0513 -0.4084 -0.4814
   8823SM  H11F11846   1.850   1.933   4.734  0.8601 -0.6295  1.2131
   8823SM  H11G11847   1.791   2.089   4.672  0.1783 -0.4120 -0.7793
   8823SM  C12F11848   1.859   2.100   4.883 -0.4326 -0.3609  0.0613
   8823SM  H12F11849   1.749   2.115   4.896 -0.9609 -1.1725 -2.6948
   8823SM  H12G11850   1.905   2.201   4.882  0.0120 -0.5276 -1.9446
   8823SM  C13F11851   1.924   2.008   4.988  0.0840 -0.3601 -0.2646
   8823SM  H13F11852   2.003   1.944   4.942  0.3259 -1.0007  1.0090
   8823SM  H13G11853   1.840   1.939   5.012  0.2432 -0.7553 -0.8025
   8823SM  C14F11854   1.972   2.090   5.112 -0.2797  1.0785  0.0260
   8823SM  H14F11855   1.889   2.152   5.154 -1.9339 -1.6169  1.0276
   8823SM  H14G11856   2.044   2.167   5.078 -2.6561  2.6919 -1.7473
   8823SM  C15F11857   2.033   2.002   5.220 -0.3432 -0.1868  0.1132
   8823SM  H15F11858   1.997   1.898   5.202  0.3246 -0.3984 -0.0316
   8823SM  H15G11859   2.004   2.041   5.319  1.3821  0.0231  0.5666
   8823SM  C16F11860   2.188   1.989   5.217  0.2725 -0.0978  1.1231
   8823SM  H16F11861   2.234   1.941   5.306  1.2971 -0.4084  0.4506
   8823SM  H16G11862   2.229   2.092   5.215  0.1945 -0.0748  0.6736
   8823SM  C17F11863   2.236   1.928   5.079 -0.4365  0.1153 -0.2209
   8823SM  H17F11864   2.196   1.981   4.990 -0.2326  0.9824  0.1920
   8823SM  H17G11865   2.208   1.821   5.079  0.6021 -0.1668 -0.4600
   8823SM  C18F11866   2.388   1.934   5.057  0.0396  0.1222  0.1714
   8823SM  H18F11867   2.440   1.897   5.148 -2.3195 -1.3537  1.0090
   8823SM  H18G11868   2.437   2.032   5.038  0.1527 -0.1730 -1.1779
   8823SM  C19F11869   2.424   1.833   4.946  0.0209 -0.6631 -0.9536
   8823SM  H19F11870   2.364   1.848   4.853 -2.3027 -0.8884  0.4251
   8823SM  H19G11871   2.402   1.730   4.981 -0.1667  0.2217  1.7144
   8823SM  C20F11872   2.566   1.846   4.912 -0.3660  0.0832  0.0866
   8823SM  H20F11873   2.627   1.821   5.002 -0.6396  2.0840  0.8690
   8823SM  H20G11874   2.590   1.948   4.877  2.5088 -1.3141 -2.5415
   8823SM  C21F11875   2.615   1.752   4.799 -0.0378 -0.0456  1.0275
   8823SM  H21F11876   2.723   1.771   4.783 -0.2142 -0.7226 -1.5203
   8823SM  H21G11877   2.563   1.763   4.701  1.1669 -2.0607  0.0954
   8823SM  C22F11878   2.617   1.602   4.839 -0.2165 -0.2993 -0.2289
   8823SM  H22F11879   2.515   1.568   4.864 -0.6066 -0.4599 -1.9218
   8823SM  H22G11880   2.674   1.598   4.934 -1.9332  0.2467  0.8587
   8823SM  C23F11881   2.688   1.507   4.737  0.3617  0.3701 -0.1291
   8823SM  H23F11882   2.792   1.540   4.719  0.7636  0.5584  2.2255
   8823SM  H23G11883   2.631   1.506   4.641 -2.0510 -2.3511  1.1698
   8823SM  H23H11884   2.696   1.411   4.791  2.1744 -0.0842 -1.1334
   8923SM     N11885   7.203   2.986   2.527  0.0594  0.0701 -0.1528
   8923SM   C1511886   7.300   2.904   2.609  0.8010  0.5037  0.7302
   8923SM  H15A11887   7.392   2.956   2.631 -1.2038  4.8903 -0.2816
   8923SM  H15B11888   7.315   2.817   2.546 -1.4886  0.6054 -0.0503
   8923SM  H15C11889   7.263   2.871   2.705 -0.3189  0.1861  0.2004
   8923SM   C1411890   7.179   3.119   2.595 -0.2411  0.6170  0.3131
   8923SM  H14A11891   7.110   3.101   2.675 -0.3401  1.0411  0.3260
   8923SM  H14B11892   7.134   3.185   2.522  3.0407 -1.0079 -3.5947
   8923SM  H14C11893   7.269   3.170   2.625  1.0123 -0.1302 -1.8931
   8923SM   C1311894   7.260   3.012   2.392  0.0778  0.0023 -0.4146
   8923SM  H13A11895   7.274   2.921   2.335 -0.8124 -0.3035 -0.1666
   8923SM  H13B11896   7.362   3.048   2.383  0.6835 -1.7075 -0.7987
   8923SM  H13C11897   7.197   3.070   2.327  1.5899  1.1281 -0.9282
   8923SM   C1211898   7.072   2.915   2.520 -0.0915 -0.2951 -0.1160
   8923SM  H12A11899   6.999   2.981   2.475  1.8767  1.6358 -0.6583
   8923SM  H12B11900   7.038   2.897   2.621 -3.3184 -0.9690 -1.1925
   8923SM   C1111901   7.057   2.779   2.446 -0.3066 -0.4344 -0.6048
   8923SM  H11A11902   7.063   2.798   2.337 -0.3816 -0.6406 -0.6441
   8923SM  H11B11903   6.957   2.733   2.461 -0.3644 -0.0749  0.1646
   8923SM     P11904   7.178   2.545   2.438 -0.4216  0.3566  0.0748
   8923SM   O1311905   7.078   2.512   2.332  0.1050  0.0680 -0.4966
   8923SM   O1411906   7.319   2.522   2.415  0.5995 -0.1448  0.3275
   8923SM   O1111907   7.135   2.466   2.565  0.7388  0.2159  0.0543
   8923SM   O1211908   7.158   2.689   2.488  0.1199 -0.6516 -0.2782
   8923SM   C1S11909   7.189   2.487   2.700  0.6915 -0.4272  0.4303
   8923SM   H1S11910   7.258   2.573   2.708 -0.4206  0.4132  1.3157
   8923SM   H1T11911   7.240   2.395   2.736  2.0099  0.1016 -0.0227
   8923SM    NF11912   7.157   2.559   2.933 -0.0482 -0.4256  0.5926
   8923SM   HNF11913   7.166   2.487   3.002 -0.5850  0.4962  1.6667
   8923SM   C2S11914   7.079   2.533   2.807 -0.4804  0.3862 -0.6840
   8923SM   H2S11915   7.023   2.625   2.781 -2.2635  0.2381  2.1447
   8923SM   C3S11916   6.968   2.429   2.818 -0.3276 -0.7218 -0.0868
   8923SM   H3S11917   7.011   2.329   2.841  0.4166 -0.7406 -1.4588
   8923SM    O311918   6.905   2.404   2.692  0.2784  0.2481 -0.3461
   8923SM   HO311919   6.966   2.439   2.626 -1.4321  1.4821 -1.3536
   8923SM   C4S11920   6.868   2.477   2.922  0.2903 -0.3787  0.1468
   8923SM   H4S11921   6.809   2.567   2.898  1.0946 -0.5417 -2.7377
   8923SM   C5S11922   6.861   2.437   3.057 -0.1851  0.4372  0.2097
   8923SM   H5S11923   6.942   2.371   3.092 -0.2084 -0.7959 -1.8412
   8923SM   C6S11924   6.766   2.485   3.162  0.9924 -0.5957  0.6676
   8923SM   H6S11925   6.722   2.402   3.222 -2.0124  1.5531  1.7236
   8923SM   H6T11926   6.681   2.543   3.120  2.5334  0.0256 -1.7807
   8923SM   C7S11927   6.846   2.565   3.272  0.0026 -0.0724  0.3310
   8923SM   H7S11928   6.906   2.644   3.223 -0.6631  1.1864  1.4620
   8923SM   H7T11929   6.913   2.485   3.310 -0.7252 -1.6358 -1.5028
   8923SM   C8S11930   6.767   2.648   3.367  0.2804 -0.3935 -0.1078
   8923SM   H8S11931   6.705   2.721   3.311 -0.3183  1.9608  3.2631
   8923SM   H8T11932   6.837   2.708   3.429  2.8543 -2.4279 -0.8353
   8923SM   C9S11933   6.664   2.562   3.450 -0.2834 -0.1616  0.0739
   8923SM   H9S11934   6.706   2.512   3.540 -1.9601 -1.7022  0.0567
   8923SM   H9T11935   6.604   2.485   3.396 -0.1971 -0.1914  0.0203
   8923SM  C10S11936   6.563   2.652   3.512 -0.2634 -0.4423 -0.7350
   8923SM  H10S11937   6.505   2.699   3.430  1.0032  2.2947 -0.1755
   8923SM  H10T11938   6.612   2.733   3.571  1.2197  0.2166 -2.7723
   8923SM  C11S11939   6.470   2.576   3.607 -0.4921  0.7784  0.2521
   8923SM  H11S11940   6.530   2.545   3.695 -0.1382  1.5639  0.3036
   8923SM  H11T11941   6.428   2.484   3.561  0.5475  0.6074 -0.3989
   8923SM  C12S11942   6.346   2.658   3.654  0.0192  0.3266 -0.1897
   8923SM  H12S11943   6.270   2.608   3.717 -0.2363  0.6510 -0.2379
   8923SM  H12T11944   6.297   2.698   3.563 -0.8807  1.4348  0.7502
   8923SM  C13S11945   6.390   2.780   3.742 -0.2871 -0.7908  0.2265
   8923SM  H13S11946   6.416   2.857   3.666  1.1371  0.4077  1.8586
   8923SM  H13T11947   6.487   2.758   3.791  0.6916  2.3182 -0.1001
   8923SM  C14S11948   6.276   2.827   3.835 -0.0332 -0.2245  0.3612
   8923SM  H14S11949   6.227   2.747   3.894  0.9260  0.0504  1.5756
   8923SM  H14T11950   6.198   2.862   3.765 -4.0186 -1.0495  3.9501
   8923SM  C15S11951   6.313   2.942   3.926  0.5130  0.2432 -0.4116
   8923SM  H15S11952   6.293   3.038   3.872 -2.5337 -0.8117 -1.3910
   8923SM  H15T11953   6.414   2.943   3.971 -0.8965  2.8899  3.2490
   8923SM  C16S11954   6.216   2.933   4.040  0.0553 -0.0034  0.4967
   8923SM  H16S11955   6.241   2.863   4.123 -1.7856 -0.2243  0.9201
   8923SM  H16T11956   6.108   2.914   4.020  0.2048 -0.3551 -0.0027
   8923SM  C17S11957   6.202   3.073   4.102  0.0079 -0.6331 -0.8157
   8923SM  H17S11958   6.131   3.132   4.040 -0.1628  0.0126 -0.0123
   8923SM  H17T11959   6.304   3.118   4.098 -0.3791  0.2446 -1.1825
   8923SM  C18S11960   6.171   3.075   4.248 -0.3225  0.3004 -0.5839
   8923SM  H18S11961   6.188   3.180   4.278  2.8637  0.0294 -1.1499
   8923SM  H18T11962   6.228   3.010   4.318 -0.6112  0.7590  0.0875
   8923SM  H18U11963   6.066   3.045   4.269 -0.2800  0.5091 -0.0409
   8923SM   C1F11964   7.231   2.662   2.958  0.1122  0.1439  0.0756
   8923SM    OF11965   7.243   2.748   2.873  0.5986 -0.2585  0.0879
   8923SM   C2F11966   7.315   2.670   3.088 -0.0160  1.1911  0.9115
   8923SM   H2F11967   7.421   2.700   3.074  0.3285  0.3622  1.5923
   8923SM   H2G11968   7.315   2.568   3.133 -1.6420  1.2062  1.0001
   8923SM   C3F11969   7.231   2.758   3.190  0.4793  1.2494 -0.1842
   8923SM   H3F11970   7.131   2.708   3.195  0.7168  0.8400  0.6481
   8923SM   H3G11971   7.223   2.861   3.150 -1.9285  0.6809 -1.3826
   8923SM   C4F11972   7.293   2.758   3.329 -0.1882  0.1815 -0.9833
   8923SM   H4F11973   7.399   2.789   3.315 -0.2473  0.6884 -0.3451
   8923SM   H4G11974   7.292   2.656   3.372  1.0905 -0.1466 -1.6714
   8923SM   C5F11975   7.240   2.866   3.423 -0.1539 -0.2496 -0.0014
   8923SM   H5F11976   7.244   2.968   3.379 -0.2907 -0.5666 -0.7642
   8923SM   H5G11977   7.312   2.867   3.508  0.9229  0.4083 -0.8867
   8923SM   C6F11978   7.098   2.832   3.473 -0.4812 -0.9063  0.0244
   8923SM   H6F11979   7.098   2.722   3.488  1.1068 -0.6864  1.9932
   8923SM   H6G11980   7.028   2.867   3.394 -0.8287  1.2700  1.2022
   8923SM   C7F11981   7.064   2.910   3.600  0.4351 -0.4480 -0.6117
   8923SM   H7F11982   7.055   3.019   3.581  0.4604 -0.4216 -0.4740
   8923SM   H7G11983   7.156   2.905   3.662 -0.0104  1.6315  0.2794
   8923SM   C8F11984   6.953   2.851   3.689  0.5111 -0.7506 -0.6393
   8923SM   H8F11985   6.992   2.757   3.733  0.1121 -1.1249 -1.0762
   8923SM   H8G11986   6.861   2.835   3.629 -0.2581 -0.7500  0.4938
   8923SM   C9F11987   6.923   2.941   3.808  0.2522  0.3898 -0.1688
   8923SM   H9F11988   6.867   3.031   3.777 -4.2663 -2.1540 -0.2872
   8923SM   H9G11989   7.015   2.964   3.866  0.0119 -2.5767  1.5955
   8923SM  C10F11990   6.824   2.862   3.905 -0.1894 -0.0801 -0.4053
   8923SM  H10F11991   6.861   2.759   3.925 -0.9836 -0.1640  0.7142
   8923SM  H10G11992   6.727   2.845   3.854 -0.7871 -1.3300  1.0633
   8923SM  C11F11993   6.778   2.918   4.044  0.1377  0.0510 -0.7049
   8923SM  H11F11994   6.861   2.933   4.115  0.6482  1.6083 -1.5770
   8923SM  H11G11995   6.702   2.849   4.085  0.1856  1.3489  1.7297
   8923SM  C12F11996   6.697   3.048   4.038  0.3033 -0.3342  0.3633
   8923SM  H12F11997   6.644   3.037   3.941  1.1816 -0.7633 -0.0860
   8923SM  H12G11998   6.764   3.135   4.021 -1.3071  1.3835  2.3680
   8923SM  C13F11999   6.611   3.082   4.156 -0.1221 -0.4638 -0.4898
   8923SM  H13F12000   6.556   2.989   4.182  0.9215 -0.7734  0.7586
   8923SM  H13G12001   6.540   3.165   4.135  0.1212  0.0215  0.5282
   8923SM  C14F12002   6.694   3.127   4.277  0.5750  0.4160 -0.7244
   8923SM  H14F12003   6.773   3.194   4.237  0.7945  1.7475  1.7058
   8923SM  H14G12004   6.747   3.045   4.330 -0.6622 -0.5326 -0.9226
   8923SM  C15F12005   6.608   3.199   4.381 -0.1799  0.4484  0.4703
   8923SM  H15F12006   6.575   3.291   4.327 -0.9554 -1.5355 -2.6888
   8923SM  H15G12007   6.671   3.235   4.466 -0.6591  0.3399  0.8713
   8923SM  C16F12008   6.487   3.122   4.418 -0.1405 -0.1483 -0.2556
   8923SM  H16F12009   6.518   3.023   4.459 -3.0639 -1.1671 -0.3030
   8923SM  H16G12010   6.418   3.106   4.333  1.0145  1.2707 -1.5108
   8923SM  C17F12011   6.409   3.210   4.512  0.7632 -0.2007  0.2445
   8923SM  H17F12012   6.369   3.302   4.465 -0.1569 -0.0794  1.2274
   8923SM  H17G12013   6.484   3.246   4.585  0.9909 -1.8082  0.8546
   8923SM  C18F12014   6.292   3.153   4.586 -0.4054 -0.3664 -0.1910
   8923SM  H18F12015   6.201   3.155   4.522  0.0510  0.2570 -0.8339
   8923SM  H18G12016   6.255   3.220   4.666 -0.1212 -1.0465  0.5255
   8923SM  C19F12017   6.322   3.019   4.655  0.5270 -0.4088  0.6968
   8923SM  H19F12018   6.424   3.013   4.701 -0.2914 -1.6723  2.4950
   8923SM  H19G12019   6.314   2.940   4.577  2.9688 -1.9981  1.9187
   8923SM  C20F12020   6.212   2.975   4.755  0.3032  0.5209 -0.6999
   8923SM  H20F12021   6.222   2.867   4.777 -0.5628  0.4119 -0.8124
   8923SM  H20G12022   6.115   2.987   4.701 -1.1832 -1.0923  1.4365
   8923SM  C21F12023   6.214   3.043   4.889  0.5941  0.4562  0.3558
   8923SM  H21F12024   6.123   3.024   4.950  0.6637 -1.2200  0.0018
   8923SM  H21G12025   6.238   3.150   4.872  0.4330  0.4733  0.2387
   8923SM  C22F12026   6.310   2.975   4.983 -0.8603 -0.2746 -0.0328
   8923SM  H22F12027   6.411   2.978   4.938  0.1437  1.3397  2.1077
   8923SM  H22G12028   6.282   2.869   5.002 -1.6665 -0.2314 -0.9253
   8923SM  C23F12029   6.321   3.050   5.121 -0.5214  0.5823 -0.5298
   8923SM  H23F12030   6.369   3.149   5.106  3.5733 -0.5420  2.9395
   8923SM  H23G12031   6.385   3.000   5.197 -0.5378  1.6199  0.1753
   8923SM  H23H12032   6.220   3.065   5.164  0.3213  1.5755  1.2243
   9023SM     N12033   7.377   2.101   2.366 -0.2038  0.1547 -0.7403
   9023SM   C1512034   7.441   1.971   2.397  0.4773 -0.0052 -0.1874
   9023SM  H15A12035   7.398   1.887   2.344 -0.3705  0.0582  0.3782
   9023SM  H15B12036   7.439   1.955   2.504 -2.0708  1.6960  0.0963
   9023SM  H15C12037   7.544   1.974   2.365 -0.3101 -0.9620 -3.1824
   9023SM   C1412038   7.458   2.205   2.428  0.3312 -0.2034  0.1482
   9023SM  H14A12039   7.431   2.301   2.387 -1.1846 -2.0604 -3.5807
   9023SM  H14B12040   7.563   2.183   2.416  0.4188 -0.3657  1.1092
   9023SM  H14C12041   7.438   2.218   2.534 -3.5768  1.3437 -0.6311
   9023SM   C1312042   7.400   2.119   2.218  0.1656  0.1978  0.4193
   9023SM  H13A12043   7.362   2.214   2.183  1.8986 -0.1455 -2.7163
   9023SM  H13B12044   7.349   2.039   2.165 -0.2199 -0.0737  1.1824
   9023SM  H13C12045   7.505   2.111   2.196 -0.0211  0.1063 -0.4585
   9023SM   C1212046   7.233   2.114   2.410  0.3941 -0.6065 -0.1245
   9023SM  H12A12047   7.180   2.021   2.397  0.1037 -0.3617 -0.7496
   9023SM  H12B12048   7.179   2.182   2.345 -0.2562 -0.0997  0.9142
   9023SM   C1112049   7.212   2.149   2.562  0.0344  0.8002  0.0339
   9023SM  H11A12050   7.105   2.179   2.572  0.2579  1.6292 -0.0327
   9023SM  H11B12051   7.257   2.248   2.583 -0.6312  1.6287 -2.1629
   9023SM     P12052   7.130   1.947   2.674 -0.0232 -0.2264  0.0043
   9023SM   O1312053   7.039   1.945   2.556 -0.4966  0.3338 -0.8664
   9023SM   O1412054   7.177   1.821   2.735 -0.3426 -0.3826 -0.2261
   9023SM   O1112055   7.050   2.024   2.781  0.3316 -0.2737  0.0320
   9023SM   O1212056   7.256   2.047   2.652  0.1185  0.2176 -0.3080
   9023SM   C1S12057   7.124   2.052   2.901 -0.7017  0.1878 -0.0639
   9023SM   H1S12058   7.178   2.148   2.883 -0.2934 -0.4406 -2.5014
   9023SM   H1T12059   7.201   1.976   2.928 -0.1578  0.2553 -1.3620
   9023SM    NF12060   7.115   2.108   3.140  0.3864 -0.0517  0.2293
   9023SM   HNF12061   7.140   2.025   3.188 -1.9756  0.4353  2.5222
   9023SM   C2S12062   7.033   2.068   3.026 -0.4989 -0.0702  0.8260
   9023SM   H2S12063   6.954   2.146   3.018  1.1095  2.0507  3.8847
   9023SM   C3S12064   6.952   1.940   3.048 -0.1264  0.1901 -0.4793
   9023SM   H3S12065   7.021   1.856   3.069  1.5158  1.9355  1.5568
   9023SM    O312066   6.860   1.906   2.946 -0.1300  0.3639  0.4259
   9023SM   HO312067   6.909   1.937   2.869  0.8086 -0.8007  0.5285
   9023SM   C4S12068   6.860   1.959   3.172  0.4299  0.0351  0.5573
   9023SM   H4S12069   6.776   2.030   3.177 -0.6113 -1.1686  0.4763
   9023SM   C5S12070   6.885   1.897   3.289  0.3043  0.3081 -0.0875
   9023SM   H5S12071   6.957   1.813   3.291 -1.1351 -1.1427 -2.7193
   9023SM   C6S12072   6.792   1.917   3.408 -0.1537 -0.2402  0.4522
   9023SM   H6S12073   6.856   1.908   3.498  1.9866 -0.7281 -1.0302
   9023SM   H6T12074   6.720   1.832   3.404  1.5895 -1.7399 -1.9764
   9023SM   C7S12075   6.718   2.053   3.428  0.0774  0.1744 -0.0682
   9023SM   H7S12076   6.658   2.081   3.338  2.4695  5.8194 -0.3332
   9023SM   H7T12077   6.802   2.126   3.421  1.7741 -1.8599 -3.4141
   9023SM   C8S12078   6.640   2.057   3.558  0.0432  0.3613 -0.0599
   9023SM   H8S12079   6.720   2.076   3.632  0.2758  2.7002 -0.7974
   9023SM   H8T12080   6.578   1.966   3.574 -0.0776  0.7131  1.6556
   9023SM   C9S12081   6.544   2.183   3.569  0.2128  1.0477  0.4072
   9023SM   H9S12082   6.471   2.166   3.488 -0.4975  2.4456  0.7406
   9023SM   H9T12083   6.607   2.272   3.549  0.8458  0.8485  1.4256
   9023SM  C10S12084   6.485   2.190   3.710 -0.0691 -0.5588  0.8749
   9023SM  H10S12085   6.436   2.096   3.744  0.1182 -0.7906  0.5083
   9023SM  H10T12086   6.409   2.272   3.708  0.1034 -0.2143  3.7905
   9023SM  C11S12087   6.594   2.233   3.814  0.1566 -0.1332 -0.0479
   9023SM  H11S12088   6.634   2.333   3.789 -1.3073  0.2928 -0.8117
   9023SM  H11T12089   6.673   2.155   3.816  0.8059  0.5224  0.5405
   9023SM  C12S12090   6.557   2.220   3.966 -0.0205  0.2659  0.6188
   9023SM  H12S12091   6.633   2.264   4.033  0.2359  0.1197  0.4260
   9023SM  H12T12092   6.543   2.114   3.997  1.0845 -0.0077  0.2300
   9023SM  C13S12093   6.421   2.282   3.994  0.2585 -0.1752  0.2969
   9023SM  H13S12094   6.388   2.263   4.099  0.8819 -0.7198  0.4027
   9023SM  H13T12095   6.350   2.235   3.922  0.8005 -0.0163 -0.3464
   9023SM  C14S12096   6.424   2.434   3.971  0.0926  0.3934 -0.0767
   9023SM  H14S12097   6.321   2.475   3.962  0.1825  0.7183  0.3701
   9023SM  H14T12098   6.471   2.466   3.875  0.8609 -0.2861  0.0628
   9023SM  C15S12099   6.493   2.508   4.084 -0.1473 -0.2537 -0.6258
   9023SM  H15S12100   6.547   2.596   4.044 -1.1949  1.8546  2.2989
   9023SM  H15T12101   6.564   2.450   4.148  1.7857  2.9491  0.3729
   9023SM  C16S12102   6.397   2.561   4.187  0.0145 -0.0301  0.1042
   9023SM  H16S12103   6.351   2.472   4.233 -2.5442  0.2979 -1.6443
   9023SM  H16T12104   6.314   2.613   4.135  0.9510  1.1741 -0.2496
   9023SM  C17S12105   6.455   2.655   4.289  0.6905  0.0902  0.0196
   9023SM  H17S12106   6.374   2.687   4.358  1.0826  2.1402 -0.4113
   9023SM  H17T12107   6.478   2.750   4.237 -0.5255  0.4479  0.1091
   9023SM  C18S12108   6.562   2.598   4.383  0.0017  0.0168  0.4722
   9023SM  H18S12109   6.647   2.562   4.322 -1.2260  0.3508 -1.5251
   9023SM  H18T12110   6.518   2.511   4.437 -0.8531  1.2535  1.8548
   9023SM  H18U12111   6.606   2.661   4.463 -1.9713  1.0165  0.8303
   9023SM   C1F12112   7.184   2.224   3.156  0.6420 -0.2287 -0.7164
   9023SM    OF12113   7.171   2.322   3.082 -0.1757 -0.4446 -0.0336
   9023SM   C2F12114   7.289   2.227   3.270 -0.0120 -0.2020 -0.2883
   9023SM   H2F12115   7.341   2.324   3.283  0.1062 -0.4326  1.2414
   9023SM   H2G12116   7.355   2.139   3.256  0.8721  0.0726  1.7303
   9023SM   C3F12117   7.221   2.214   3.407  0.3807  0.2461  0.0294
   9023SM   H3F12118   7.293   2.191   3.488  0.6006  2.8529  0.6302
   9023SM   H3G12119   7.137   2.141   3.398  0.0869  0.4676  0.9004
   9023SM   C4F12120   7.144   2.335   3.466 -0.1577  0.8988  0.8244
   9023SM   H4F12121   7.072   2.365   3.386  1.7452 -1.0081 -1.7364
   9023SM   H4G12122   7.215   2.419   3.480  0.7933  0.0674  1.0647
   9023SM   C5F12123   7.060   2.319   3.593  0.0893  0.3413  0.3632
   9023SM   H5F12124   7.124   2.283   3.676  1.1898 -2.7926 -1.6612
   9023SM   H5G12125   6.983   2.240   3.578  1.1088 -0.4316 -1.1745
   9023SM   C6F12126   7.006   2.452   3.629  0.0083  0.0154 -0.1507
   9023SM   H6F12127   6.955   2.507   3.547 -0.3021  1.5786  1.0524
   9023SM   H6G12128   7.086   2.517   3.670  2.4315 -2.8442  0.0149
   9023SM   C7F12129   6.906   2.442   3.749 -0.3274  0.5888  0.0440
   9023SM   H7F12130   6.861   2.340   3.747  1.0989 -0.0883  1.2369
   9023SM   H7G12131   6.829   2.522   3.735 -2.1389 -1.0407  0.2156
   9023SM   C8F12132   6.978   2.462   3.882 -0.0368 -0.0346  0.8552
   9023SM   H8F12133   7.012   2.568   3.887  0.1806  0.0184 -1.0433
   9023SM   H8G12134   7.055   2.383   3.891 -2.4952 -2.6539  0.2876
   9023SM   C9F12135   6.878   2.437   3.990  0.4597  0.0931 -0.3936
   9023SM   H9F12136   6.858   2.328   3.981 -0.5612 -0.0467  2.4844
   9023SM   H9G12137   6.788   2.499   3.971 -0.1795 -0.3459  1.0772
   9023SM  C10F12138   6.929   2.471   4.132 -0.3399 -0.1245 -0.5585
   9023SM  H10F12139   6.831   2.483   4.184 -1.3072  0.0530 -2.3315
   9023SM  H10G12140   6.989   2.564   4.138 -0.7215  0.0488  2.6124
   9023SM  C11F12141   7.013   2.376   4.212 -0.4316 -0.1317 -0.3662
   9023SM  H11F12142   7.121   2.403   4.209  0.0734 -1.5935  1.7944
   9023SM  H11G12143   7.000   2.272   4.178 -1.0300 -0.2953  0.3347
   9023SM  C12F12144   6.971   2.353   4.364 -0.3870 -0.6228 -1.1115
   9023SM  H12F12145   7.053   2.294   4.410  0.5929  0.9234 -0.8115
   9023SM  H12G12146   6.877   2.294   4.374  0.7692 -2.5844 -1.3164
   9023SM  C13F12147   6.967   2.486   4.439  0.6885  0.8740 -0.0694
   9023SM  H13F12148   6.896   2.554   4.386 -0.4561 -0.9978 -1.0547
   9023SM  H13G12149   7.066   2.534   4.422  0.9435  0.4087  0.1033
   9023SM  C14F12150   6.941   2.472   4.590  0.7607 -0.0663  0.3582
   9023SM  H14F12151   7.027   2.445   4.655 -0.6592 -0.6952  2.0238
   9023SM  H14G12152   6.859   2.400   4.608  1.2648 -0.4441  1.1588
   9023SM  C15F12153   6.890   2.606   4.645 -0.4604 -0.4339 -0.0888
   9023SM  H15F12154   6.787   2.629   4.612  0.3300 -0.2305 -2.5860
   9023SM  H15G12155   6.947   2.692   4.605  0.1460 -0.6127  0.3779
   9023SM  C16F12156   6.883   2.607   4.800 -0.3217  0.0879  0.5320
   9023SM  H16F12157   6.871   2.715   4.823 -0.8744 -0.0945  1.1498
   9023SM  H16G12158   6.973   2.561   4.845  1.4765  0.3935 -2.5052
   9023SM  C17F12159   6.755   2.542   4.855  0.2309 -0.7767  0.0834
   9023SM  H17F12160   6.754   2.536   4.966 -0.3408  1.3930  0.2298
   9023SM  H17G12161   6.742   2.436   4.823 -0.2682 -0.8151  0.3917
   9023SM  C18F12162   6.626   2.622   4.830  0.0975  0.2107  1.0005
   9023SM  H18F12163   6.641   2.691   4.745  3.6377  1.7125  2.6171
   9023SM  H18G12164   6.591   2.687   4.913  1.3998  1.4466  0.6146
   9023SM  C19F12165   6.510   2.526   4.803  0.5297  0.8098 -0.0412
   9023SM  H19F12166   6.496   2.447   4.880 -1.9275 -1.8211 -2.9673
   9023SM  H19G12167   6.535   2.477   4.707  0.0074  1.6771 -0.6311
   9023SM  C20F12168   6.373   2.599   4.801 -0.7341  0.0894 -0.7373
   9023SM  H20F12169   6.379   2.691   4.739 -0.7156  2.1827  2.1586
   9023SM  H20G12170   6.341   2.622   4.905  1.1028 -2.5837  0.5187
   9023SM  C21F12171   6.256   2.517   4.757  0.1755  0.0528  0.0853
   9023SM  H21F12172   6.153   2.549   4.783 -1.5487 -3.8150 -1.2431
   9023SM  H21G12173   6.251   2.415   4.800  0.7953 -1.0621 -2.3029
   9023SM  C22F12174   6.264   2.497   4.603 -0.0492  0.4540  0.4547
   9023SM  H22F12175   6.366   2.453   4.591 -0.6713 -0.5471 -1.4217
   9023SM  H22G12176   6.245   2.596   4.556  2.1451  1.5559  1.7215
   9023SM  C23F12177   6.170   2.391   4.559 -0.1230  0.2536 -0.2212
   9023SM  H23F12178   6.065   2.406   4.592  0.3928  1.3413  1.0134
   9023SM  H23G12179   6.207   2.289   4.582  1.1102  0.8519  0.5248
   9023SM  H23H12180   6.158   2.397   4.449  2.1550  0.1898 -0.5078
   9123SM     N12181   0.465   5.151   2.421 -0.2638 -0.1857 -0.2743
   9123SM   C1512182   0.568   5.197   2.323 -0.0122  0.0044  0.3246
   9123SM  H15A12183   0.524   5.265   2.252  0.7668  0.5912  0.3936
   9123SM  H15B12184   0.603   5.109   2.271 -1.6859 -1.0422  0.8752
   9123SM  H15C12185   0.651   5.247   2.370 -0.0746  0.9100 -0.5040
   9123SM   C1412186   0.411   5.267   2.493 -1.0314 -0.3594 -0.3013
   9123SM  H14A12187   0.324   5.238   2.550 -0.7438 -1.0191 -0.1825
   9123SM  H14B12188   0.380   5.345   2.425 -1.1132 -1.0462 -1.0733
   9123SM  H14C12189   0.482   5.312   2.560  0.8270 -2.6911 -0.5553
   9123SM   C1312190   0.347   5.082   2.364  0.5763  0.1325  0.3238
   9123SM  H13A12191   0.267   5.067   2.434 -0.8802 -1.5423 -1.5656
   9123SM  H13B12192   0.377   4.984   2.330 -0.1903  0.3960 -1.2112
   9123SM  H13C12193   0.304   5.156   2.298 -1.5373 -1.4497 -0.1522
   9123SM   C1212194   0.533   5.058   2.515 -0.2941  0.1657 -0.0967
   9123SM  H12A12195   0.621   5.100   2.560 -1.1432  0.6905  1.1085
   9123SM  H12B12196   0.575   4.980   2.453 -0.8856  2.1915 -3.3434
   9123SM   C1112197   0.449   4.996   2.622 -0.5591  0.2208 -0.2116
   9123SM  H11A12198   0.387   5.077   2.667  0.8790  1.4573 -0.3866
   9123SM  H11B12199   0.519   4.965   2.702 -2.1278  3.4092  2.6711
   9123SM     P12200   0.244   4.829   2.634 -0.3541 -0.1226 -0.4411
   9123SM   O1312201   0.135   4.915   2.564 -0.0642  0.6891  0.1529
   9123SM   O1412202   0.227   4.683   2.617 -0.7791  0.2430  0.1193
   9123SM   O1112203   0.264   4.857   2.793  0.4410 -0.1735 -0.4872
   9123SM   O1212204   0.387   4.878   2.574  0.5905  0.0997 -0.4491
   9123SM   C1S12205   0.349   4.770   2.866  0.2602  0.6897 -0.0113
   9123SM   H1S12206   0.451   4.773   2.822  0.0956 -0.3579 -0.4955
   9123SM   H1T12207   0.320   4.663   2.865  2.5399  0.0178 -1.4963
   9123SM    NF12208   0.466   4.732   3.081 -0.1788  0.0498 -0.9233
   9123SM   HNF12209   0.443   4.674   3.159  0.1533  1.5185  0.3010
   9123SM   C2S12210   0.364   4.814   3.015 -0.0299 -0.0753  0.7417
   9123SM   H2S12211   0.396   4.920   3.014  0.3440 -0.0623 -3.2747
   9123SM   C3S12212   0.223   4.802   3.073  0.3194 -0.1933 -0.2394
   9123SM   H3S12213   0.174   4.704   3.052  2.3752 -1.6856  1.5036
   9123SM    O312214   0.138   4.907   3.028  0.1367 -0.5818 -0.4715
   9123SM   HO312215   0.193   4.932   2.953  1.6405  1.4367  1.1935
   9123SM   C4S12216   0.228   4.803   3.227  0.4459 -0.3075 -0.0316
   9123SM   H4S12217   0.252   4.708   3.277  2.3731 -0.2154 -0.6845
   9123SM   C5S12218   0.198   4.908   3.302 -0.2580  0.3173 -0.1019
   9123SM   H5S12219   0.166   5.002   3.254  0.5609  0.7358  0.1516
   9123SM   C6S12220   0.200   4.917   3.452 -0.4388 -0.7320 -0.3824
   9123SM   H6S12221   0.102   4.893   3.498  0.5750 -1.0324  1.8052
   9123SM   H6T12222   0.214   5.018   3.496 -1.1894 -0.6147 -0.4129
   9123SM   C7S12223   0.294   4.818   3.531  0.3818  0.4796  0.7240
   9123SM   H7S12224   0.396   4.813   3.487  0.0191  0.9849 -0.2101
   9123SM   H7T12225   0.247   4.719   3.514 -0.0920  0.5999  1.3241
   9123SM   C8S12226   0.322   4.851   3.680  0.2649 -0.0928  0.1063
   9123SM   H8S12227   0.398   4.931   3.692 -0.5051  0.4376  1.5827
   9123SM   H8T12228   0.367   4.756   3.717 -2.0568 -0.6822  1.6126
   9123SM   C9S12229   0.193   4.871   3.764 -0.5033  0.1622 -0.7973
   9123SM   H9S12230   0.137   4.778   3.741 -0.8944 -0.0567  0.9124
   9123SM   H9T12231   0.144   4.965   3.730 -1.7092 -0.0046  0.4162
   9123SM  C10S12232   0.222   4.882   3.914  0.6672 -0.2860  0.4620
   9123SM  H10S12233   0.312   4.944   3.931  1.0344 -0.9972  1.1934
   9123SM  H10T12234   0.238   4.778   3.951  1.5592  0.3430  1.9513
   9123SM  C11S12235   0.113   4.956   3.995 -0.3911 -0.5301  0.5494
   9123SM  H11S12236   0.013   4.910   3.974 -0.1352 -0.6605 -0.3909
   9123SM  H11T12237   0.106   5.060   3.958 -2.1589  0.4759  3.3388
   9123SM  C12S12238   0.148   4.951   4.145  0.7455 -0.6991 -0.9204
   9123SM  H12S12239   0.243   5.007   4.153 -0.1894  0.9060 -0.7302
   9123SM  H12T12240   0.174   4.846   4.170 -0.3854 -1.3772 -2.4247
   9123SM  C13S12241   0.034   4.998   4.234  0.0435 -0.2592 -0.7293
   9123SM  H13S12242  -0.046   4.922   4.245  0.1242  0.0624  3.2327
   9123SM  H13T12243  -0.002   5.097   4.197 -1.1761 -0.8762 -1.2500
   9123SM  C14S12244   0.097   5.012   4.380  0.0468  0.8429  0.4409
   9123SM  H14S12245   0.203   5.044   4.371  0.6274 -0.4029  2.2787
   9123SM  H14T12246   0.089   4.910   4.424 -2.2425  0.5304 -0.5480
   9123SM  C15S12247   0.020   5.113   4.466  0.7649 -1.0171 -0.6703
   9123SM  H15S12248  -0.085   5.079   4.481 -0.0981  1.8968  0.6387
   9123SM  H15T12249   0.005   5.209   4.413 -1.3193 -0.6118  0.5494
   9123SM  C16S12250   0.090   5.139   4.604 -0.2648 -0.3878 -0.1997
   9123SM  H16S12251   0.199   5.159   4.595 -0.0476 -1.0694  0.7181
   9123SM  H16T12252   0.093   5.043   4.660  1.7219 -0.0225  0.3827
   9123SM  C17S12253   0.037   5.250   4.694 -0.0049 -0.2296  0.4901
   9123SM  H17S12254   0.072   5.348   4.654 -1.8012  0.3202  0.1676
   9123SM  H17T12255   0.084   5.237   4.794  0.1684  1.2974  0.6381
   9123SM  C18S12256  -0.113   5.258   4.711 -0.0557  0.0334 -0.5449
   9123SM  H18S12257  -0.139   5.268   4.819  2.0697  1.5148 -0.1080
   9123SM  H18T12258  -0.168   5.169   4.675 -1.4490  0.0830  1.2672
   9123SM  H18U12259  -0.147   5.348   4.654 -1.9619 -1.1867 -1.4411
   9123SM   C1F12260   0.590   4.749   3.055 -0.0133 -0.6571  0.7227
   9123SM    OF12261   0.625   4.811   2.956 -0.0567 -0.0858  0.2965
   9123SM   C2F12262   0.691   4.695   3.154  1.1014  0.0902 -0.0550
   9123SM   H2F12263   0.717   4.590   3.130 -1.9479 -0.4498 -1.5764
   9123SM   H2G12264   0.643   4.688   3.254 -0.9103 -1.4232 -1.0617
   9123SM   C3F12265   0.821   4.778   3.169  0.3110 -0.5003 -0.3919
   9123SM   H3F12266   0.845   4.811   3.066  0.7828 -0.7063 -0.3508
   9123SM   H3G12267   0.898   4.704   3.200  0.2493 -0.3310  0.1695
   9123SM   C4F12268   0.826   4.891   3.272 -0.3068  0.0696 -0.0413
   9123SM   H4F12269   0.737   4.954   3.251 -1.4933 -1.2570  0.8308
   9123SM   H4G12270   0.915   4.955   3.253  0.5647 -1.2652 -0.5305
   9123SM   C5F12271   0.824   4.855   3.419 -0.8077 -0.1188  0.5140
   9123SM   H5F12272   0.911   4.800   3.461 -0.5898  1.7150  2.6783
   9123SM   H5G12273   0.737   4.797   3.455 -0.7735  0.2775  1.2752
   9123SM   C6F12274   0.830   4.983   3.494  0.7804 -0.8254  0.0999
   9123SM   H6F12275   0.764   5.060   3.449  0.1744 -0.2151  1.9330
   9123SM   H6G12276   0.935   5.017   3.489  0.3764  0.3112 -1.1607
   9123SM   C7F12277   0.787   4.968   3.644 -0.0430 -0.1382  0.7658
   9123SM   H7F12278   0.841   4.877   3.677  1.4506 -0.2374 -1.6458
   9123SM   H7G12279   0.677   4.948   3.644 -0.3483  1.4417  0.8180
   9123SM   C8F12280   0.827   5.094   3.721 -0.0388  0.0255  0.0459
   9123SM   H8F12281   0.762   5.171   3.673  1.6357 -1.1348 -4.6512
   9123SM   H8G12282   0.934   5.117   3.699 -0.5547  1.3094 -1.3048
   9123SM   C9F12283   0.794   5.081   3.865 -0.3068 -0.0831  0.8021
   9123SM   H9F12284   0.866   5.013   3.914 -0.0290 -0.8334 -0.5813
   9123SM   H9G12285   0.691   5.042   3.881  1.2655 -4.7961  0.8436
   9123SM  C10F12286   0.805   5.208   3.953 -0.8397 -0.1741 -0.1156
   9123SM  H10F12287   0.726   5.277   3.916  0.5980  1.6807  0.1167
   9123SM  H10G12288   0.908   5.249   3.941 -1.4487  0.7431 -2.8897
   9123SM  C11F12289   0.780   5.183   4.102  0.1695  0.0394  0.2944
   9123SM  H11F12290   0.835   5.096   4.144  1.7933 -0.0742 -1.8442
   9123SM  H11G12291   0.674   5.151   4.101  0.5337 -1.2413  0.1940
   9123SM  C12F12292   0.791   5.313   4.176  0.0291  0.2081 -0.4242
   9123SM  H12F12293   0.741   5.393   4.118 -2.5852 -1.0807 -0.1023
   9123SM  H12G12294   0.894   5.356   4.173  1.0497 -1.8311  1.8557
   9123SM  C13F12295   0.739   5.305   4.324 -0.3590  0.0023 -0.5727
   9123SM  H13F12296   0.703   5.404   4.357 -2.1131 -1.0562  0.8383
   9123SM  H13G12297   0.819   5.268   4.392  0.1748  0.2006 -1.0800
   9123SM  C14F12298   0.612   5.218   4.339  0.3456  0.5480  0.2311
   9123SM  H14F12299   0.663   5.120   4.325 -1.9191 -0.5186 -1.1014
   9123SM  H14G12300   0.537   5.219   4.257  2.8921  0.8211 -2.2673
   9123SM  C15F12301   0.548   5.218   4.478 -0.8130 -0.0550 -0.3320
   9123SM  H15F12302   0.631   5.193   4.547  1.3357  1.1898 -2.2986
   9123SM  H15G12303   0.481   5.130   4.466 -0.0971 -0.5203 -1.0366
   9123SM  C16F12304   0.454   5.328   4.517  0.0147 -0.0548  0.6762
   9123SM  H16F12305   0.411   5.300   4.616 -2.3436 -1.2759 -0.6038
   9123SM  H16G12306   0.367   5.344   4.450  1.5034 -1.8558 -1.8923
   9123SM  C17F12307   0.518   5.466   4.529 -0.3874 -0.7862 -0.0094
   9123SM  H17F12308   0.550   5.506   4.431  0.2832 -0.4001  0.3642
   9123SM  H17G12309   0.608   5.449   4.592 -0.5445 -0.3899  0.3298
   9123SM  C18F12310   0.414   5.560   4.599  0.5027 -0.3922  0.3642
   9123SM  H18F12311   0.357   5.507   4.678  0.0626  0.1115  0.3968
   9123SM  H18G12312   0.328   5.588   4.533  0.2703 -0.4691  0.6307
   9123SM  C19F12313   0.472   5.684   4.665 -0.9367  0.1549 -0.1071
   9123SM  H19F12314   0.553   5.659   4.737  0.7774 -2.1120 -2.6279
   9123SM  H19G12315   0.395   5.738   4.724 -0.2967  1.5582 -0.5082
   9123SM  C20F12316   0.525   5.782   4.564  0.8496  0.5466  0.1346
   9123SM  H20F12317   0.461   5.808   4.477  0.7383  0.0362  0.0589
   9123SM  H20G12318   0.616   5.730   4.526  0.3709 -1.0503  1.0615
   9123SM  C21F12319   0.558   5.921   4.634  0.2988  0.4070  0.6999
   9123SM  H21F12320   0.629   5.980   4.572 -0.9745  1.1708 -0.0594
   9123SM  H21G12321   0.619   5.891   4.722 -0.2053 -0.7201  0.6774
   9123SM  C22F12322   0.439   6.014   4.662 -0.1545  0.1393 -0.2449
   9123SM  H22F12323   0.474   6.108   4.712  0.3268 -0.5921  0.8303
   9123SM  H22G12324   0.364   5.964   4.726  1.7743 -0.7281  1.4704
   9123SM  C23F12325   0.382   6.070   4.533  0.3124 -0.0367 -0.4652
   9123SM  H23F12326   0.285   6.120   4.553 -0.1063 -1.2086  0.6090
   9123SM  H23G12327   0.355   5.984   4.468  2.2360 -2.0729  1.2132
   9123SM  H23H12328   0.459   6.136   4.489  0.4863 -0.1459 -0.3298
   9223SM     N12329   5.326   1.418   2.520  0.5320 -0.4742  0.2185
   9223SM   C1512330   5.368   1.277   2.541 -0.5054  0.3415 -0.4452
   9223SM  H15A12331   5.470   1.261   2.508 -0.2719  2.8133 -1.1762
   9223SM  H15B12332   5.306   1.216   2.478 -1.5438  1.9783 -1.0561
   9223SM  H15C12333   5.359   1.224   2.634  0.2932 -4.1586 -2.6538
   9223SM   C1412334   5.321   1.457   2.379 -0.2101 -0.5602  0.2923
   9223SM  H14A12335   5.243   1.411   2.321  1.4611  0.3485 -2.9486
   9223SM  H14B12336   5.414   1.428   2.331  0.0363  0.0602  0.3718
   9223SM  H14C12337   5.295   1.561   2.364 -0.8547 -0.8207 -0.4740
   9223SM   C1312338   5.190   1.444   2.582 -0.4696  0.1867  0.8461
   9223SM  H13A12339   5.118   1.381   2.532  1.3711 -1.9260  0.6454
   9223SM  H13B12340   5.158   1.546   2.572  1.3079  0.8703  1.7699
   9223SM  H13C12341   5.189   1.428   2.689  2.5523 -1.6558  0.7341
   9223SM   C1212342   5.434   1.497   2.583 -0.2369  0.0917  0.3922
   9223SM  H12A12343   5.521   1.497   2.519 -0.9152 -0.5294 -0.5656
   9223SM  H12B12344   5.461   1.455   2.678  0.3115  1.1412  0.7104
   9223SM   C1112345   5.399   1.651   2.598 -0.0960  0.3013 -0.2290
   9223SM  H11A12346   5.482   1.686   2.663 -0.1719 -2.1742  1.3581
   9223SM  H11B12347   5.306   1.667   2.656 -0.7802  1.3898 -1.5775
   9223SM     P12348   5.528   1.742   2.398 -0.3848 -0.3973 -0.3690
   9223SM   O1312349   5.599   1.609   2.390  0.0490 -0.6040  0.0482
   9223SM   O1412350   5.498   1.799   2.268  0.2547  0.1551 -0.0756
   9223SM   O1112351   5.612   1.847   2.483 -1.2700  0.4146  0.0978
   9223SM   O1212352   5.398   1.725   2.477  0.0517 -0.6822 -0.4571
   9223SM   C1S12353   5.564   1.970   2.525 -0.0482  0.7434  0.2879
   9223SM   H1S12354   5.459   1.963   2.562  0.3101  0.5656  1.3062
   9223SM   H1T12355   5.561   2.039   2.438 -0.5192 -1.0302 -1.1432
   9223SM    NF12356   5.583   2.115   2.718 -1.1091 -0.0885 -0.1253
   9223SM   HNF12357   5.615   2.209   2.719  0.2443 -0.4890  1.9005
   9223SM   C2S12358   5.650   2.012   2.647  0.3495  0.1537  0.1634
   9223SM   H2S12359   5.663   1.922   2.712 -1.3644 -0.0863  0.2334
   9223SM   C3S12360   5.787   2.058   2.586 -0.0455 -0.2905 -0.1198
   9223SM   H3S12361   5.769   2.130   2.503  0.9187  0.4139  0.2660
   9223SM    O312362   5.869   1.952   2.530 -0.4916  0.2790 -0.1461
   9223SM   HO312363   5.804   1.882   2.527 -0.1806  0.0183 -1.1197
   9223SM   C4S12364   5.860   2.134   2.698 -0.4082 -0.1099  0.5840
   9223SM   H4S12365   5.864   2.243   2.683 -0.8908 -0.4356 -2.5283
   9223SM   C5S12366   5.916   2.079   2.804 -0.3819  0.2365  0.1240
   9223SM   H5S12367   5.892   1.972   2.817 -0.8997  0.3926  0.5155
   9223SM   C6S12368   5.985   2.157   2.917 -0.1648  0.0486  0.5623
   9223SM   H6S12369   6.003   2.262   2.883 -1.1378 -0.4404 -1.6994
   9223SM   H6T12370   6.077   2.098   2.936 -0.5061 -0.9298 -0.7234
   9223SM   C7S12371   5.892   2.162   3.042  0.0559 -0.3944  0.4843
   9223SM   H7S12372   5.801   2.221   3.021  0.9375 -0.0797 -2.9707
   9223SM   H7T12373   5.962   2.218   3.108  1.4802 -0.7489 -0.6678
   9223SM   C8S12374   5.863   2.027   3.107  0.3661  0.2640  0.0043
   9223SM   H8S12375   5.961   2.002   3.155  1.3512  2.2002 -0.8609
   9223SM   H8T12376   5.849   1.957   3.023  2.3092 -0.4497  0.2249
   9223SM   C9S12377   5.757   2.030   3.214  0.1133 -0.4167  0.1394
   9223SM   H9S12378   5.667   2.053   3.154  0.0961  0.7511  0.5826
   9223SM   H9T12379   5.778   2.114   3.283  0.5708  0.0347 -0.5396
   9223SM  C10S12380   5.733   1.906   3.296  0.4272  0.4156  0.1215
   9223SM  H10S12381   5.759   1.825   3.225 -0.8474  0.8486 -0.8602
   9223SM  H10T12382   5.624   1.893   3.309  0.6945 -1.6081  0.6097
   9223SM  C11S12383   5.801   1.888   3.431 -0.4578 -0.0211 -0.3366
   9223SM  H11S12384   5.906   1.917   3.408 -0.7908  1.4213 -0.1788
   9223SM  H11T12385   5.804   1.781   3.460  1.2185  0.2382  0.5830
   9223SM  C12S12386   5.739   1.965   3.551 -0.1935  0.5146 -0.0515
   9223SM  H12S12387   5.647   1.911   3.583 -0.0545 -0.1259 -0.7042
   9223SM  H12T12388   5.693   2.059   3.513  0.4644  0.6340 -0.5575
   9223SM  C13S12389   5.832   1.997   3.676 -0.4329 -0.6553 -0.0499
   9223SM  H13S12390   5.917   2.059   3.639 -0.6414 -1.0950 -1.3179
   9223SM  H13T12391   5.873   1.903   3.720 -0.7027 -0.9982 -0.5107
   9223SM  C14S12392   5.753   2.068   3.782  0.8024 -0.4631 -0.6836
   9223SM  H14S12393   5.671   2.002   3.815 -0.3401  1.6019  0.7893
   9223SM  H14T12394   5.712   2.168   3.759  0.2888 -0.3245  0.7641
   9223SM  C15S12395   5.855   2.091   3.904 -1.2886  0.1157  0.6799
   9223SM  H15S12396   5.948   2.137   3.864  0.1208 -0.9373  2.5668
   9223SM  H15T12397   5.877   1.991   3.948 -0.8409 -1.0385 -2.0087
   9223SM  C16S12398   5.797   2.182   4.009  0.0651  0.2705 -0.4558
   9223SM  H16S12399   5.703   2.138   4.048  1.6800 -0.8033  2.5428
   9223SM  H16T12400   5.786   2.286   3.972  0.6136  1.0124  1.3244
   9223SM  C17S12401   5.889   2.181   4.141 -0.6707  0.5866  0.1514
   9223SM  H17S12402   5.985   2.229   4.112 -1.3090  1.2462 -0.9472
   9223SM  H17T12403   5.921   2.079   4.169 -1.3688  0.0969 -0.7829
   9223SM  C18S12404   5.815   2.253   4.256 -0.4254  0.1886 -0.5884
   9223SM  H18S12405   5.712   2.218   4.280 -0.3072  1.0363  1.3380
   9223SM  H18T12406   5.802   2.362   4.239 -1.2332  0.2388  0.2442
   9223SM  H18U12407   5.875   2.239   4.349  2.4595  3.1387 -1.8015
   9223SM   C1F12408   5.498   2.082   2.807  0.0783 -0.0523 -0.2258
   9223SM    OF12409   5.463   1.966   2.826 -0.0931  0.6580 -0.5170
   9223SM   C2F12410   5.455   2.196   2.893 -0.0136 -0.1013  0.5173
   9223SM   H2F12411   5.447   2.292   2.837 -0.9626  0.6342  1.8654
   9223SM   H2G12412   5.535   2.207   2.969 -0.3754  1.6330  0.6960
   9223SM   C3F12413   5.324   2.180   2.970 -0.5287  0.0048  0.3421
   9223SM   H3F12414   5.260   2.097   2.932 -1.8638  1.0980  0.1230
   9223SM   H3G12415   5.265   2.274   2.976 -0.6324  0.0055 -0.5442
   9223SM   C4F12416   5.359   2.156   3.119 -0.1517  0.2155  0.0304
   9223SM   H4F12417   5.390   2.248   3.172 -3.2419  0.3810  1.8085
   9223SM   H4G12418   5.446   2.087   3.127  1.0760  1.5098 -1.5694
   9223SM   C5F12419   5.240   2.099   3.202  0.4517 -0.0794  0.0374
   9223SM   H5F12420   5.211   2.001   3.158  2.9226 -0.4518 -0.9366
   9223SM   H5G12421   5.151   2.163   3.188  0.5671  0.1127  0.1768
   9223SM   C6F12422   5.255   2.081   3.349 -0.2196  0.8953  0.6171
   9223SM   H6F12423   5.158   2.033   3.374 -0.2063 -1.1824 -2.7156
   9223SM   H6G12424   5.257   2.179   3.402 -1.1428  1.5637 -0.5402
   9223SM   C7F12425   5.372   1.999   3.402  0.3448 -0.0497 -0.0250
   9223SM   H7F12426   5.470   2.052   3.398  0.0344  0.7141  1.8553
   9223SM   H7G12427   5.378   1.899   3.355  0.8876  0.1974 -0.5082
   9223SM   C8F12428   5.345   1.966   3.551  0.3644 -0.6372 -0.3110
   9223SM   H8F12429   5.413   1.880   3.566 -1.2968 -2.8393 -3.8754
   9223SM   H8G12430   5.238   1.937   3.566  0.2353  0.1145  0.2969
   9223SM   C9F12431   5.360   2.088   3.644 -0.2645 -0.3218 -0.0573
   9223SM   H9F12432   5.263   2.136   3.622  0.1006  0.2644 -0.4073
   9223SM   H9G12433   5.451   2.149   3.625 -0.0641 -0.4815  0.3704
   9223SM  C10F12434   5.355   2.037   3.793 -0.1426  0.5805 -0.2650
   9223SM  H10F12435   5.406   1.938   3.793 -2.4602 -0.7017  1.1124
   9223SM  H10G12436   5.247   2.024   3.813 -0.5796  1.4778 -1.8577
   9223SM  C11F12437   5.404   2.140   3.896  0.0318  0.6819  0.6672
   9223SM  H11F12438   5.361   2.240   3.874  1.1646  0.8318 -1.0457
   9223SM  H11G12439   5.512   2.164   3.885  0.0258 -0.0233 -1.3126
   9223SM  C12F12440   5.389   2.087   4.038 -0.0045  0.1481  1.1644
   9223SM  H12F12441   5.462   2.005   4.056 -0.9243 -0.2598  3.3046
   9223SM  H12G12442   5.289   2.041   4.048  1.4167 -3.3714  0.7499
   9223SM  C13F12443   5.428   2.184   4.146 -0.0508  0.1599 -0.1003
   9223SM  H13F12444   5.347   2.260   4.139 -0.0503  0.1964  0.2646
   9223SM  H13G12445   5.520   2.232   4.106 -0.2442 -1.6478 -3.0115
   9223SM  C14F12446   5.424   2.129   4.287 -0.3389  0.3954  0.3072
   9223SM  H14F12447   5.493   2.043   4.301 -1.4079 -0.7307 -1.0860
   9223SM  H14G12448   5.327   2.079   4.308  1.2591 -2.7890  0.6463
   9223SM  C15F12449   5.447   2.239   4.394 -0.2183  0.3992  0.2661
   9223SM  H15F12450   5.357   2.302   4.411 -0.9246 -0.5605  0.1740
   9223SM  H15G12451   5.534   2.306   4.375 -1.8280  3.5180  2.9250
   9223SM  C16F12452   5.476   2.178   4.530  0.2764  0.0552  0.0428
   9223SM  H16F12453   5.554   2.100   4.536  0.7897  0.2231 -2.9745
   9223SM  H16G12454   5.383   2.129   4.566  0.0713  1.9878  2.4247
   9223SM  C17F12455   5.490   2.280   4.645  0.0920 -0.7555  0.2722
   9223SM  H17F12456   5.400   2.344   4.641 -0.5696 -1.6812  0.0155
   9223SM  H17G12457   5.584   2.338   4.635  0.2357 -1.0988 -0.3784
   9223SM  C18F12458   5.488   2.210   4.783  0.1011  0.3756  0.2678
   9223SM  H18F12459   5.573   2.139   4.788 -1.2135 -1.5446 -2.0946
   9223SM  H18G12460   5.394   2.153   4.797  0.6726 -0.3716  1.1118
   9223SM  C19F12461   5.498   2.322   4.891 -0.0987 -0.0071  0.1774
   9223SM  H19F12462   5.412   2.392   4.891 -1.6629 -1.7819  2.1763
   9223SM  H19G12463   5.585   2.382   4.859 -1.2648  0.2888 -2.6921
   9223SM  C20F12464   5.515   2.255   5.030 -0.1189 -0.0783  0.1598
   9223SM  H20F12465   5.613   2.204   5.019 -0.5500 -0.7217 -0.7785
   9223SM  H20G12466   5.426   2.190   5.042 -0.5133  0.2370 -0.9654
   9223SM  C21F12467   5.517   2.361   5.137  0.0234  0.6471 -0.3238
   9223SM  H21F12468   5.520   2.311   5.237  1.3094  1.0775 -0.1205
   9223SM  H21G12469   5.424   2.421   5.131  0.0786  0.7230 -0.4197
   9223SM  C22F12470   5.627   2.462   5.117 -0.0331 -0.4157  0.6600
   9223SM  H22F12471   5.605   2.523   5.027 -1.2447 -0.3139  1.0143
   9223SM  H22G12472   5.717   2.400   5.097  0.8376  0.9757  0.0461
   9223SM  C23F12473   5.646   2.553   5.230 -0.4205  0.3004  0.2157
   9223SM  H23F12474   5.562   2.624   5.242  0.1646  1.2382 -0.9416
   9223SM  H23G12475   5.735   2.620   5.221 -0.2503  0.0076 -0.3209
   9223SM  H23H12476   5.658   2.498   5.325 -1.2452  0.3528  0.3561
   9323SM     N12477   1.492   5.127   2.272 -1.0352 -0.4236  0.2607
   9323SM   C1512478   1.416   5.145   2.394  0.1885  0.2269 -0.1841
   9323SM  H15A12479   1.380   5.047   2.421 -0.4628  0.6612  0.5603
   9323SM  H15B12480   1.338   5.219   2.395 -0.4343 -0.2310  3.8005
   9323SM  H15C12481   1.477   5.185   2.473 -2.3696  3.0953  0.5113
   9323SM   C1412482   1.409   5.071   2.166  0.8240  0.0786  0.1711
   9323SM  H14A12483   1.460   5.069   2.071  1.0217  1.9237  0.1873
   9323SM  H14B12484   1.322   5.131   2.142  1.1504  0.4115 -0.1805
   9323SM  H14C12485   1.387   4.967   2.183  1.5364  0.1609  1.7687
   9323SM   C1312486   1.534   5.261   2.210  0.7857  0.5863 -0.0579
   9323SM  H13A12487   1.589   5.240   2.120 -1.3787 -0.4247 -1.2303
   9323SM  H13B12488   1.597   5.314   2.280 -0.0088 -0.2810  1.3839
   9323SM  H13C12489   1.449   5.318   2.175 -0.6733 -0.3023  1.8149
   9323SM   C1212490   1.627   5.036   2.290  0.5591  0.2822 -0.1308
   9323SM  H12A12491   1.687   5.093   2.359  1.4131 -0.8790  0.1128
   9323SM  H12B12492   1.686   5.040   2.199  0.4164  0.0993 -0.2332
   9323SM   C1112493   1.602   4.890   2.345 -0.0237  0.1194 -0.0773
   9323SM  H11A12494   1.695   4.829   2.355  1.1345  1.4782 -1.7911
   9323SM  H11B12495   1.551   4.834   2.264  3.2958 -1.4275 -1.3073
   9323SM     P12496   1.593   4.916   2.605 -0.5039 -0.5580 -0.1360
   9323SM   O1312497   1.720   4.989   2.582  0.3054  0.5728  0.1289
   9323SM   O1412498   1.500   4.987   2.696  0.1433 -0.0867  0.2641
   9323SM   O1112499   1.617   4.769   2.662  0.2569 -0.8296 -0.6962
   9323SM   O1212500   1.528   4.884   2.470 -0.0615 -0.1607 -0.3599
   9323SM   C1S12501   1.667   4.752   2.797 -0.2703  0.3482  0.0407
   9323SM   H1S12502   1.753   4.819   2.821  0.8110 -1.6099  2.0090
   9323SM   H1T12503   1.702   4.647   2.805  1.3539  0.8843  0.4714
   9323SM    NF12504   1.613   4.705   3.032 -0.1426  0.2663  0.5773
   9323SM   HNF12505   1.577   4.614   3.053  0.1689  0.0285  0.1026
   9323SM   C2S12506   1.561   4.773   2.913 -0.2688  0.2618 -0.3706
   9323SM   H2S12507   1.550   4.882   2.932 -0.3135 -0.1200  2.0458
   9323SM   C3S12508   1.420   4.717   2.878  0.0275 -0.3110 -0.2989
   9323SM   H3S12509   1.424   4.612   2.844 -0.6604  0.1539 -1.8744
   9323SM    O312510   1.347   4.779   2.769  0.0972  0.0897 -0.7341
   9323SM   HO312511   1.397   4.849   2.725 -1.2655 -0.6208 -3.6792
   9323SM   C4S12512   1.330   4.726   3.001  0.6751 -0.2134 -0.8401
   9323SM   H4S12513   1.308   4.828   3.035 -0.7305 -0.7619 -0.0211
   9323SM   C5S12514   1.261   4.625   3.055 -0.5548  0.2946 -0.3000
   9323SM   H5S12515   1.251   4.529   3.002  3.6749 -0.0696 -0.7586
   9323SM   C6S12516   1.170   4.631   3.177 -0.4493 -0.0642  0.4215
   9323SM   H6S12517   1.087   4.560   3.158 -0.3349  0.0452 -0.5570
   9323SM   H6T12518   1.143   4.737   3.194 -1.0235 -0.0876 -0.2876
   9323SM   C7S12519   1.248   4.573   3.291  0.6127 -0.7009 -0.6368
   9323SM   H7S12520   1.348   4.620   3.302 -0.1699  0.6452  1.3226
   9323SM   H7T12521   1.267   4.466   3.267  2.3978 -0.3711 -0.7808
   9323SM   C8S12522   1.172   4.574   3.424  0.2372  1.0283 -0.0870
   9323SM   H8S12523   1.157   4.678   3.459 -0.3469  0.4474  1.4606
   9323SM   H8T12524   1.235   4.514   3.492 -1.3239 -1.4526 -0.6902
   9323SM   C9S12525   1.042   4.504   3.432  0.0689 -0.2125  0.0475
   9323SM   H9S12526   1.032   4.398   3.400 -2.5429 -0.3031  0.8878
   9323SM   H9T12527   0.970   4.570   3.378  0.3137  2.3519  2.5811
   9323SM  C10S12528   0.982   4.501   3.577  0.2017 -0.0672  0.4762
   9323SM  H10S12529   0.874   4.477   3.569  0.9962 -3.6282 -2.1185
   9323SM  H10T12530   0.996   4.601   3.624  1.0073  0.5605 -1.0178
   9323SM  C11S12531   1.041   4.396   3.672  0.3422  0.1520 -0.1608
   9323SM  H11S12532   1.147   4.424   3.687 -0.1245  2.5335 -0.8002
   9323SM  H11T12533   1.030   4.297   3.622 -1.3609  0.3492 -0.2539
   9323SM  C12S12534   0.975   4.383   3.815 -0.2330  0.4992 -0.6910
   9323SM  H12S12535   0.880   4.326   3.819  0.0664 -0.0119 -0.7018
   9323SM  H12T12536   0.959   4.485   3.857  0.3576  0.1913  0.3346
   9323SM  C13S12537   1.062   4.307   3.918  0.3065  0.0203 -0.6129
   9323SM  H13S12538   1.154   4.367   3.938 -0.3940  1.7196 -2.2675
   9323SM  H13T12539   1.090   4.214   3.863 -0.7252 -1.2720  0.9239
   9323SM  C14S12540   0.991   4.290   4.055  0.0722 -0.0094  0.4305
   9323SM  H14S12541   1.049   4.228   4.127  1.4120  1.9974  1.1685
   9323SM  H14T12542   0.894   4.238   4.041  0.0406  0.5795 -1.8973
   9323SM  C15S12543   0.977   4.418   4.132  0.3327  0.0716  0.0555
   9323SM  H15S12544   1.078   4.448   4.166 -0.1711  0.8911  0.8781
   9323SM  H15T12545   0.934   4.499   4.069 -2.4875 -1.5748 -0.3141
   9323SM  C16S12546   0.895   4.402   4.259  0.5477 -0.2087  0.5999
   9323SM  H16S12547   0.936   4.319   4.321 -0.2670 -1.0371  0.0585
   9323SM  H16T12548   0.789   4.380   4.233  0.2339  2.2919 -0.5067
   9323SM  C17S12549   0.895   4.526   4.347  0.6869 -0.2061 -0.1983
   9323SM  H17S12550   0.868   4.609   4.279 -1.4488 -0.4806  0.2525
   9323SM  H17T12551   1.005   4.535   4.363  0.7328  0.0257 -0.6330
   9323SM  C18S12552   0.809   4.519   4.477  0.0544  0.3082 -0.0951
   9323SM  H18S12553   0.715   4.467   4.451  0.9894 -1.1010 -0.7975
   9323SM  H18T12554   0.798   4.623   4.515  0.5220  0.0379  0.8172
   9323SM  H18U12555   0.871   4.463   4.551 -1.0023 -0.7027  0.0413
   9323SM   C1F12556   1.709   4.747   3.105  0.1732  0.3693 -0.1947
   9323SM    OF12557   1.767   4.854   3.079 -0.2890 -0.0282 -0.1696
   9323SM   C2F12558   1.719   4.664   3.241  0.0056  0.3278  0.1390
   9323SM   H2F12559   1.740   4.556   3.227  0.6643  0.5724 -0.8699
   9323SM   H2G12560   1.617   4.665   3.286  0.5852  0.1703  1.5042
   9323SM   C3F12561   1.819   4.716   3.347 -0.6128 -0.3874  0.5004
   9323SM   H3F12562   1.791   4.819   3.375 -0.0179  0.3102 -1.3026
   9323SM   H3G12563   1.921   4.718   3.304 -0.8030 -2.7182 -0.1809
   9323SM   C4F12564   1.823   4.636   3.481 -0.3228  0.2059 -0.1206
   9323SM   H4F12565   1.884   4.685   3.560  1.0428 -2.5861  0.6796
   9323SM   H4G12566   1.880   4.541   3.471 -1.0242 -0.2342 -0.0073
   9323SM   C5F12567   1.680   4.612   3.531  0.4125  0.0501  0.5267
   9323SM   H5F12568   1.629   4.534   3.472  1.5713  0.5528 -1.2203
   9323SM   H5G12569   1.623   4.706   3.513  1.9189  1.2770  1.8024
   9323SM   C6F12570   1.678   4.584   3.682 -0.2849 -0.1469  0.4854
   9323SM   H6F12571   1.749   4.504   3.712  0.7524 -0.3396 -2.1873
   9323SM   H6G12572   1.577   4.544   3.707  0.3181 -0.6102  2.3390
   9323SM   C7F12573   1.714   4.711   3.760  0.1196  0.5018  0.1623
   9323SM   H7F12574   1.634   4.787   3.745 -0.8177 -0.2838  1.0198
   9323SM   H7G12575   1.810   4.756   3.725  0.5772 -0.1466  0.5590
   9323SM   C8F12576   1.738   4.692   3.914  0.0237 -0.1245  0.4041
   9323SM   H8F12577   1.800   4.771   3.960 -0.6117 -0.5692  2.0983
   9323SM   H8G12578   1.799   4.600   3.931  2.0567  0.9133 -0.8611
   9323SM   C9F12579   1.608   4.684   4.001  0.1694  0.6276 -0.5757
   9323SM   H9F12580   1.543   4.597   3.980 -1.6906  1.5932  0.9210
   9323SM   H9G12581   1.547   4.773   3.975  0.9310  1.3689  0.0647
   9323SM  C10F12582   1.647   4.682   4.149 -0.1473 -0.2576  0.5978
   9323SM  H10F12583   1.694   4.775   4.185 -4.3187  2.1582  0.4668
   9323SM  H10G12584   1.730   4.609   4.157  1.3018  1.3697  0.8361
   9323SM  C11F12585   1.540   4.641   4.250  0.3436  0.1828  0.5511
   9323SM  H11F12586   1.485   4.550   4.219 -2.9103  2.0221  0.4729
   9323SM  H11G12587   1.458   4.716   4.253  0.5260  0.4976 -1.0635
   9323SM  C12F12588   1.586   4.607   4.395  0.0795  0.4843 -0.4805
   9323SM  H12F12589   1.624   4.698   4.446  0.6178 -0.2224  0.4123
   9323SM  H12G12590   1.669   4.534   4.397 -0.0168  0.3683 -0.6551
   9323SM  C13F12591   1.462   4.561   4.471  0.5883 -0.1088  0.5906
   9323SM  H13F12592   1.436   4.457   4.443  0.6518  0.2306 -0.8305
   9323SM  H13G12593   1.378   4.618   4.427  1.9344  0.9708 -0.6892
   9323SM  C14F12594   1.463   4.562   4.623 -0.5050 -0.7944 -0.0336
   9323SM  H14F12595   1.558   4.517   4.658 -1.6771 -2.3897  1.2827
   9323SM  H14G12596   1.389   4.489   4.661  0.1820 -2.0431 -1.0129
   9323SM  C15F12597   1.454   4.707   4.685 -0.1444  0.4595  0.2418
   9323SM  H15F12598   1.378   4.773   4.639 -0.5327 -1.3090 -1.8404
   9323SM  H15G12599   1.557   4.741   4.659 -0.3016 -0.0291 -1.1277
   9323SM  C16F12600   1.453   4.709   4.838  0.3811  0.3692  0.5493
   9323SM  H16F12601   1.538   4.644   4.868  2.3065  1.0598 -2.9598
   9323SM  H16G12602   1.357   4.659   4.862  0.8563 -0.2786  1.1413
   9323SM  C17F12603   1.472   4.852   4.897 -0.6077 -0.8486 -0.0208
   9323SM  H17F12604   1.409   4.929   4.848 -0.0581 -0.7638 -0.6123
   9323SM  H17G12605   1.577   4.874   4.869 -0.0168 -1.9424  1.2388
   9323SM  C18F12606   1.452   4.877   5.051 -0.7005 -0.0873  0.1235
   9323SM  H18F12607   1.535   4.821   5.099  0.5011  0.5104 -1.2062
   9323SM  H18G12608   1.356   4.829   5.082 -2.0156  2.0460 -0.4585
   9323SM  C19F12609   1.452   5.031   5.085 -0.2994  0.5463 -0.4260
   9323SM  H19F12610   1.376   5.081   5.020 -0.8178 -1.7008 -1.6356
   9323SM  H19G12611   1.555   5.059   5.054  0.1764 -2.8466 -2.3853
   9323SM  C20F12612   1.421   5.066   5.229  0.8419 -0.7489  0.1058
   9323SM  H20F12613   1.501   5.043   5.303  1.0356 -1.3611 -0.2808
   9323SM  H20G12614   1.330   5.010   5.259 -2.1876  2.6655 -1.9147
   9323SM  C21F12615   1.389   5.211   5.239 -0.7855 -0.2331  0.3330
   9323SM  H21F12616   1.314   5.250   5.167 -0.7458 -1.1212 -0.2168
   9323SM  H21G12617   1.483   5.265   5.214 -1.6190  0.7161 -0.8372
   9323SM  C22F12618   1.335   5.255   5.379  0.1771 -0.1435  0.0448
   9323SM  H22F12619   1.262   5.179   5.412 -2.1650  2.4901  1.3162
   9323SM  H22G12620   1.273   5.346   5.365 -0.3922 -0.3265  1.2645
   9323SM  C23F12621   1.448   5.288   5.480 -0.5093  0.9191 -0.2078
   9323SM  H23F12622   1.517   5.351   5.420 -1.4902  0.6722 -1.6484
   9323SM  H23G12623   1.485   5.188   5.510 -0.3563  0.7426 -0.9662
   9323SM  H23H12624   1.411   5.343   5.569  1.7240 -0.8475  1.9405
   9423SM     N12625   5.324   6.175   2.575  0.4276  0.1180 -0.1622
   9423SM   C1512626   5.469   6.170   2.569 -0.1008  0.4255  0.5002
   9423SM  H15A12627   5.497   6.183   2.672  0.6986  4.2328 -0.0539
   9423SM  H15B12628   5.515   6.255   2.520 -0.2631 -0.3037 -0.9575
   9423SM  H15C12629   5.509   6.076   2.536 -1.3749 -0.5046  1.4904
   9423SM   C1412630   5.260   6.194   2.440  0.0044  0.9573 -0.3628
   9423SM  H14A12631   5.153   6.204   2.451 -0.2379  0.9056 -2.3129
   9423SM  H14B12632   5.279   6.115   2.369 -0.3789  0.4217  0.1300
   9423SM  H14C12633   5.296   6.286   2.395 -0.3828  1.0528 -0.4790
   9423SM   C1312634   5.274   6.043   2.642 -0.0692 -0.8029 -0.9916
   9423SM  H13A12635   5.324   5.968   2.582  0.2461 -1.6183  0.2532
   9423SM  H13B12636   5.167   6.035   2.632 -0.3177 -2.4449  1.7748
   9423SM  H13C12637   5.309   6.027   2.743 -1.4721 -1.0355 -0.5234
   9423SM   C1212638   5.284   6.297   2.656  0.0544 -0.1699  0.1009
   9423SM  H12A12639   5.178   6.304   2.678  0.6070 -0.1307  3.2922
   9423SM  H12B12640   5.312   6.386   2.602  2.1481 -0.7961  0.0638
   9423SM   C1112641   5.364   6.321   2.785 -0.5028 -0.0816  0.1322
   9423SM  H11A12642   5.474   6.330   2.774 -0.3956  0.0751  1.1849
   9423SM  H11B12643   5.347   6.230   2.848  0.6536 -0.0419  0.5179
   9423SM     P12644   5.393   6.575   2.841  0.1227  0.2923  0.0308
   9423SM   O1312645   5.444   6.604   2.707  0.5170  0.2143  0.3103
   9423SM   O1412646   5.308   6.686   2.895 -1.0612  0.4123  0.3920
   9423SM   O1112647   5.519   6.543   2.940 -0.2939 -0.4210 -0.0039
   9423SM   O1212648   5.307   6.440   2.849  0.1781  0.0642  0.0861
   9423SM   C1S12649   5.512   6.591   3.073 -0.4831 -0.7669  0.0655
   9423SM   H1S12650   5.460   6.689   3.080  1.6131  0.3114  2.0253
   9423SM   H1T12651   5.614   6.601   3.117 -0.6119 -0.1835  0.2481
   9423SM    NF12652   5.434   6.551   3.299  0.6409 -0.4133 -0.0374
   9423SM   HNF12653   5.517   6.549   3.355  0.1368  2.9485  1.0202
   9423SM   C2S12654   5.452   6.488   3.167  0.5842 -0.3233 -0.2342
   9423SM   H2S12655   5.352   6.466   3.125  0.7396  1.9635 -2.0110
   9423SM   C3S12656   5.541   6.359   3.168  0.0847  0.0588 -0.3428
   9423SM   H3S12657   5.634   6.381   3.224  0.0304  1.4905 -0.7738
   9423SM    O312658   5.581   6.318   3.036 -0.0096  0.0314  0.1309
   9423SM   HO312659   5.543   6.383   2.977  2.2722  1.7501  0.4187
   9423SM   C4S12660   5.462   6.256   3.235  0.2083  0.2891  0.4133
   9423SM   H4S12661   5.361   6.226   3.204 -0.4044  3.5818 -1.2760
   9423SM   C5S12662   5.523   6.177   3.325 -0.0658  0.0220  0.2914
   9423SM   H5S12663   5.630   6.185   3.352  0.4775  0.2337 -1.7643
   9423SM   C6S12664   5.456   6.063   3.398  0.0723 -0.6710  0.6045
   9423SM   H6S12665   5.381   6.013   3.333  0.0573  1.7965 -1.4448
   9423SM   H6T12666   5.390   6.111   3.474  1.2063  4.1373 -1.0687
   9423SM   C7S12667   5.553   5.953   3.452 -0.7227 -0.1235 -0.0666
   9423SM   H7S12668   5.633   5.924   3.380  0.4190 -1.2438  1.5712
   9423SM   H7T12669   5.502   5.859   3.483 -0.8606  0.5197  1.7819
   9423SM   C8S12670   5.630   6.003   3.575  0.8201  0.1927 -0.6212
   9423SM   H8S12671   5.565   6.058   3.646  1.1848 -0.8710  0.5840
   9423SM   H8T12672   5.707   6.075   3.542  0.2989  0.6225 -0.9045
   9423SM   C9S12673   5.698   5.893   3.658 -0.7427  0.1397  0.3181
   9423SM   H9S12674   5.766   5.836   3.591 -1.6130 -1.0091  0.3895
   9423SM   H9T12675   5.631   5.810   3.686  0.0670 -0.4538  0.5352
   9423SM  C10S12676   5.765   5.945   3.783  0.1608  0.2975 -0.2682
   9423SM  H10S12677   5.782   5.861   3.854 -0.1128  0.0976 -0.4386
   9423SM  H10T12678   5.692   6.012   3.834 -0.1261 -0.2680  0.0762
   9423SM  C11S12679   5.898   6.019   3.767 -0.4073 -0.0275 -0.3143
   9423SM  H11S12680   5.893   6.105   3.697 -0.1186 -0.9061 -1.4444
   9423SM  H11T12681   5.967   5.944   3.721  0.4969 -0.0947  1.0758
   9423SM  C12S12682   5.949   6.059   3.909 -0.0211  0.7714 -1.1153
   9423SM  H12S12683   5.967   5.968   3.970 -0.2931  0.3046 -1.7105
   9423SM  H12T12684   5.876   6.117   3.969  0.9070  1.1043 -0.2892
   9423SM  C13S12685   6.071   6.142   3.907  0.1049 -0.6176 -0.3203
   9423SM  H13S12686   6.061   6.223   3.832 -2.4656 -3.0751 -2.8800
   9423SM  H13T12687   6.155   6.079   3.869 -0.8112 -1.4732 -0.9626
   9423SM  C14S12688   6.102   6.188   4.055  0.2438  0.5300  1.2620
   9423SM  H14S12689   6.087   6.101   4.123  1.1609 -0.7900 -0.1655
   9423SM  H14T12690   6.024   6.265   4.073 -0.3858  0.6826 -1.5796
   9423SM  C15S12691   6.239   6.241   4.081  0.1655  0.2366 -0.1712
   9423SM  H15S12692   6.324   6.175   4.052  1.0812  1.1285  0.3963
   9423SM  H15T12693   6.253   6.244   4.191 -0.9544  0.4615 -0.0241
   9423SM  C16S12694   6.269   6.380   4.033  0.3053 -0.5027  0.1884
   9423SM  H16S12695   6.190   6.451   4.063  0.5476 -0.5995  1.0785
   9423SM  H16T12696   6.277   6.367   3.922 -0.2161 -1.8158  0.2790
   9423SM  C17S12697   6.402   6.433   4.089  0.1386  0.0270  0.9512
   9423SM  H17S12698   6.483   6.399   4.021 -1.2891  0.8026 -1.2533
   9423SM  H17T12699   6.416   6.402   4.195  2.1460  1.8965  1.3136
   9423SM  C18S12700   6.428   6.586   4.084 -0.0654 -0.0373 -0.1479
   9423SM  H18S12701   6.532   6.616   4.109 -0.6039  0.3343  1.7854
   9423SM  H18T12702   6.367   6.647   4.154 -0.8736  1.0786 -1.7476
   9423SM  H18U12703   6.384   6.624   3.989 -1.5691  1.6654  1.1545
   9423SM   C1F12704   5.343   6.642   3.328  0.1380 -0.0742  0.9940
   9423SM    OF12705   5.241   6.662   3.260  0.6541  0.3172  0.0606
   9423SM   C2F12706   5.381   6.722   3.445 -0.3315 -0.2873 -0.4239
   9423SM   H2F12707   5.492   6.717   3.453 -0.1176  1.5678 -1.4706
   9423SM   H2G12708   5.340   6.678   3.538  2.7386  0.3791  1.3900
   9423SM   C3F12709   5.322   6.863   3.437  0.4405  0.3092  0.0045
   9423SM   H3F12710   5.214   6.873   3.415  0.9200  1.9185 -2.0164
   9423SM   H3G12711   5.368   6.912   3.348 -2.4105  0.4443 -1.4985
   9423SM   C4F12712   5.357   6.944   3.562 -0.1894  0.2955  0.0417
   9423SM   H4F12713   5.325   7.051   3.561 -1.0686  0.0694  1.2262
   9423SM   H4G12714   5.467   6.939   3.572 -0.1602 -1.8054 -0.8378
   9423SM   C5F12715   5.293   6.888   3.688 -0.2730  0.1228 -0.4165
   9423SM   H5F12716   5.350   6.796   3.712  0.4215  0.4732 -0.6953
   9423SM   H5G12717   5.187   6.856   3.680 -0.2929 -0.5536  1.8353
   9423SM   C6F12718   5.334   6.967   3.814  0.3938  0.4616 -0.5839
   9423SM   H6F12719   5.286   7.067   3.819  1.3344  0.8843  0.5627
   9423SM   H6G12720   5.443   6.984   3.820  0.8550 -2.5342  2.0175
   9423SM   C7F12721   5.305   6.897   3.950  0.9373 -0.1490 -1.1839
   9423SM   H7F12722   5.334   6.792   3.934 -1.2109 -1.3854  2.0296
   9423SM   H7G12723   5.196   6.913   3.961  0.7561 -2.3174  0.7707
   9423SM   C8F12724   5.394   6.947   4.068  0.4112  0.0682  0.8235
   9423SM   H8F12725   5.325   7.016   4.121  0.6832  0.5067  0.6117
   9423SM   H8G12726   5.480   7.000   4.021 -1.6088  1.0773 -2.0218
   9423SM   C9F12727   5.434   6.840   4.172 -0.6717  0.2661  0.1696
   9423SM   H9F12728   5.509   6.771   4.130 -2.0687 -0.9555 -0.4015
   9423SM   H9G12729   5.344   6.779   4.195  0.3967 -1.2092  0.5783
   9423SM  C10F12730   5.498   6.903   4.297  0.5092 -0.4650 -0.0489
   9423SM  H10F12731   5.420   6.969   4.339 -0.9634 -1.8536 -0.5207
   9423SM  H10G12732   5.589   6.960   4.269  0.3542 -1.3160 -2.5482
   9423SM  C11F12733   5.543   6.798   4.399  0.3673 -0.1173  0.2423
   9423SM  H11F12734   5.585   6.719   4.334  0.1612  0.3232 -0.4406
   9423SM  H11G12735   5.450   6.753   4.440 -0.6701  1.4586 -0.2712
   9423SM  C12F12736   5.633   6.848   4.506  0.3049  0.0672  0.0086
   9423SM  H12F12737   5.594   6.944   4.546 -1.0365  0.4949 -2.1543
   9423SM  H12G12738   5.735   6.864   4.466  1.1051  0.3541  2.0569
   9423SM  C13F12739   5.648   6.749   4.620 -0.1283 -0.2992  0.4335
   9423SM  H13F12740   5.717   6.672   4.579  1.4705  1.2669  0.1028
   9423SM  H13G12741   5.545   6.711   4.640 -1.0113  1.8424  0.2443
   9423SM  C14F12742   5.694   6.791   4.757 -0.7137  0.3624  0.3529
   9423SM  H14F12743   5.715   6.701   4.818 -0.0062  0.5914  0.4524
   9423SM  H14G12744   5.625   6.857   4.813  1.5555  4.6439 -1.4352
   9423SM  C15F12745   5.836   6.847   4.764 -0.5446 -0.0659 -0.1724
   9423SM  H15F12746   5.866   6.932   4.698  0.4446  1.6992  2.3975
   9423SM  H15G12747   5.894   6.755   4.742 -1.1008 -0.7337  1.0640
   9423SM  C16F12748   5.876   6.889   4.908 -0.0741  0.0795 -0.3291
   9423SM  H16F12749   5.875   6.793   4.964  0.9714  0.4885  0.4184
   9423SM  H16G12750   5.793   6.949   4.949  0.2581  1.6813 -1.8829
   9423SM  C17F12751   6.013   6.957   4.925  0.9408  0.5385 -0.6127
   9423SM  H17F12752   6.001   7.053   4.871 -2.4210  1.1823  1.0456
   9423SM  H17G12753   6.085   6.905   4.858 -0.7829  0.3056 -2.4022
   9423SM  C18F12754   6.049   6.982   5.069  0.2389 -0.9440  0.2196
   9423SM  H18F12755   6.052   6.886   5.126 -0.3980 -1.5353 -0.7286
   9423SM  H18G12756   5.970   7.044   5.117 -0.3987 -0.6581 -1.1754
   9423SM  C19F12757   6.184   7.055   5.078 -0.3458 -0.2015  0.0825
   9423SM  H19F12758   6.242   7.024   4.988  0.3092  0.3055  0.3190
   9423SM  H19G12759   6.233   7.030   5.175 -2.4095  1.0513  1.5204
   9423SM  C20F12760   6.179   7.211   5.071 -0.1595 -0.4473  0.3823
   9423SM  H20F12761   6.129   7.257   5.158 -0.4404 -2.8500  1.5808
   9423SM  H20G12762   6.109   7.222   4.985  0.8476 -1.1081 -0.5568
   9423SM  C21F12763   6.318   7.281   5.048  0.0703  0.7834  0.0964
   9423SM  H21F12764   6.369   7.243   4.957  2.1166  0.7658  1.1944
   9423SM  H21G12765   6.390   7.272   5.132 -0.6440  3.1220  1.0460
   9423SM  C22F12766   6.300   7.432   5.043 -0.1933 -0.1829 -0.1825
   9423SM  H22F12767   6.244   7.464   5.133 -2.1893  0.4065 -1.5599
   9423SM  H22G12768   6.243   7.446   4.949 -0.8538  0.6176  0.3172
   9423SM  C23F12769   6.436   7.506   5.030  0.5103 -0.0727 -0.3443
   9423SM  H23F12770   6.480   7.488   4.930 -0.5174  1.8745 -1.1949
   9423SM  H23G12771   6.508   7.483   5.112  1.9754  0.1102 -1.5394
   9423SM  H23H12772   6.423   7.616   5.037  1.9947  0.1020  0.0206
   9523SM     N12773   1.035   1.989   3.232  0.5122 -0.3901 -0.2627
   9523SM   C1512774   0.901   2.019   3.307  0.1716 -0.2706 -0.3602
   9523SM  H15A12775   0.823   1.950   3.277  0.5214 -1.3993  1.1858
   9523SM  H15B12776   0.871   2.120   3.285  0.8650 -0.3491 -1.7723
   9523SM  H15C12777   0.912   1.998   3.413  0.1736 -3.0573 -0.8132
   9523SM   C1412778   1.057   1.840   3.241 -0.1530 -0.1748  0.0837
   9523SM  H14A12779   1.143   1.801   3.189 -1.1638  0.0807 -1.9141
   9523SM  H14B12780   0.965   1.787   3.221 -1.5781  0.9920  2.9442
   9523SM  H14C12781   1.069   1.821   3.346  0.0349 -2.0005 -0.2389
   9523SM   C1312782   1.019   2.044   3.096  0.1943  0.9096 -0.0028
   9523SM  H13A12783   0.986   2.146   3.083  0.2145  0.9686  0.3879
   9523SM  H13B12784   0.960   1.974   3.039 -0.6831  2.8366 -1.6083
   9523SM  H13C12785   1.118   2.044   3.053  1.1738  1.8068  2.1365
   9523SM   C1212786   1.154   2.059   3.304 -0.9089  0.0123  0.4736
   9523SM  H12A12787   1.159   2.026   3.407 -2.4781 -2.3477 -0.1316
   9523SM  H12B12788   1.125   2.163   3.310  1.1744  0.6679  0.2058
   9523SM   C1112789   1.295   2.047   3.247  0.7535  0.2673 -0.2399
   9523SM  H11A12790   1.371   2.101   3.308  0.0856  1.1630 -0.1795
   9523SM  H11B12791   1.295   2.094   3.146 -2.0115 -0.8408 -0.8470
   9523SM     P12792   1.475   1.845   3.292 -0.0076 -0.1624  0.6203
   9523SM   O1312793   1.485   1.705   3.248 -0.1824 -0.3934  0.6406
   9523SM   O1412794   1.587   1.933   3.251  0.3002 -0.0610  0.3253
   9523SM   O1112795   1.452   1.849   3.449 -0.2671 -0.1113 -0.1716
   9523SM   O1212796   1.337   1.913   3.238 -0.1402  0.0561 -0.1769
   9523SM   C1S12797   1.543   1.924   3.539 -0.1325 -0.0045  0.0381
   9523SM   H1S12798   1.512   2.030   3.530 -1.8094 -0.5678 -1.3834
   9523SM   H1T12799   1.648   1.921   3.504 -0.4875 -2.4179 -1.0323
   9523SM    NF12800   1.618   1.974   3.779  0.4198  0.2817  0.0102
   9523SM   HNF12801   1.702   1.956   3.830  0.5922 -0.2456 -0.4415
   9523SM   C2S12802   1.565   1.868   3.686 -0.6959 -0.1963 -0.5337
   9523SM   H2S12803   1.462   1.842   3.722 -0.0837  0.5433  1.9972
   9523SM   C3S12804   1.653   1.739   3.688 -0.4147  0.3561 -0.5281
   9523SM   H3S12805   1.756   1.758   3.653  1.0293 -1.0013  2.6150
   9523SM    O312806   1.594   1.646   3.602 -0.1268 -0.2768 -0.0389
   9523SM   HO312807   1.535   1.695   3.544  0.5977 -1.5024 -1.8970
   9523SM   C4S12808   1.659   1.671   3.828  0.1261  0.2931  0.6144
   9523SM   H4S12809   1.577   1.606   3.862  0.1708  1.2692  2.7142
   9523SM   C5S12810   1.765   1.690   3.915 -0.3003 -0.2958  0.0418
   9523SM   H5S12811   1.843   1.753   3.871 -0.5254 -0.6359 -0.8658
   9523SM   C6S12812   1.781   1.627   4.056 -0.6494 -0.4330  0.3741
   9523SM   H6S12813   1.886   1.590   4.069 -0.9684 -1.9718 -1.1105
   9523SM   H6T12814   1.714   1.540   4.074  0.0276 -0.8717  0.8231
   9523SM   C7S12815   1.765   1.740   4.167 -0.0397 -0.0934  0.4978
   9523SM   H7S12816   1.670   1.796   4.149  1.2076  2.3676  1.1358
   9523SM   H7T12817   1.842   1.820   4.163 -1.1222  0.9410 -0.6323
   9523SM   C8S12818   1.753   1.691   4.313 -0.1116  0.0732 -0.1564
   9523SM   H8S12819   1.802   1.773   4.368  0.2560 -1.1662  1.4389
   9523SM   H8T12820   1.819   1.602   4.322 -2.6860 -1.8652  0.8417
   9523SM   C9S12821   1.612   1.666   4.361 -0.0857 -0.2187  0.8065
   9523SM   H9S12822   1.540   1.626   4.287  0.8997  0.5051 -0.5735
   9523SM   H9T12823   1.585   1.768   4.397  1.0098  0.2744  0.2569
   9523SM  C10S12824   1.605   1.590   4.490 -0.5901 -0.4352  0.0354
   9523SM  H10S12825   1.671   1.631   4.569 -0.3124 -0.4101 -0.2114
   9523SM  H10T12826   1.646   1.490   4.463  1.0111 -0.0741  0.9837
   9523SM  C11S12827   1.464   1.580   4.548  0.2360  0.1142 -0.5765
   9523SM  H11S12828   1.387   1.553   4.472 -2.6168 -0.5115  2.3352
   9523SM  H11T12829   1.434   1.683   4.579  0.7871 -0.1666  0.9671
   9523SM  C12S12830   1.452   1.492   4.675  0.7556  0.2824  0.8627
   9523SM  H12S12831   1.550   1.492   4.728  2.2567  1.3147 -1.7650
   9523SM  H12T12832   1.442   1.387   4.640  3.3307  0.2608 -0.0202
   9523SM  C13S12833   1.344   1.528   4.778  0.2924 -0.2244 -0.0792
   9523SM  H13S12834   1.249   1.563   4.730 -0.6467  1.1963  2.5973
   9523SM  H13T12835   1.373   1.619   4.835 -0.8912  0.8287 -1.0770
   9523SM  C14S12836   1.319   1.413   4.875  0.4168  0.0815  0.9225
   9523SM  H14S12837   1.415   1.377   4.920 -0.4228  0.4226  3.0919
   9523SM  H14T12838   1.270   1.326   4.827 -2.1231  0.7031  2.2401
   9523SM  C15S12839   1.233   1.466   4.995  0.1177 -0.6437 -0.2569
   9523SM  H15S12840   1.141   1.518   4.961 -0.9535 -1.5859  1.1278
   9523SM  H15T12841   1.289   1.542   5.053 -0.6762 -0.4531  0.2739
   9523SM  C16S12842   1.194   1.347   5.088  0.3157  0.0567 -0.1834
   9523SM  H16S12843   1.283   1.316   5.148  1.1359  3.4687  0.5797
   9523SM  H16T12844   1.157   1.263   5.025 -1.0973  0.5133  0.0119
   9523SM  C17S12845   1.074   1.399   5.172 -0.4299 -0.6066 -0.0639
   9523SM  H17S12846   1.014   1.312   5.207 -0.6409 -0.0773  0.9249
   9523SM  H17T12847   0.996   1.445   5.108  0.0126  0.4265  0.1239
   9523SM  C18S12848   1.111   1.469   5.293  0.2419 -0.5885 -0.2953
   9523SM  H18S12849   1.170   1.559   5.266 -0.6313  0.4615  1.1320
   9523SM  H18T12850   1.175   1.400   5.351 -1.2887 -1.7976  0.0383
   9523SM  H18U12851   1.032   1.498   5.366 -0.9006 -1.5600 -1.1032
   9523SM   C1F12852   1.553   2.088   3.794 -0.6478 -0.1909 -0.7553
   9523SM    OF12853   1.437   2.095   3.751 -0.0863  0.2036 -0.0154
   9523SM   C2F12854   1.613   2.194   3.877  0.0228 -0.5956  0.2701
   9523SM   H2F12855   1.538   2.221   3.954 -0.1014 -2.9176  1.0284
   9523SM   H2G12856   1.628   2.285   3.816  0.3674 -1.1794 -0.5226
   9523SM   C3F12857   1.748   2.160   3.957  0.6454  0.1727  0.2630
   9523SM   H3F12858   1.821   2.166   3.873 -1.2607 -1.3245 -1.6319
   9523SM   H3G12859   1.738   2.058   3.999 -0.3059  0.0427 -0.2586
   9523SM   C4F12860   1.766   2.259   4.068  0.4443  0.3908  0.2845
   9523SM   H4F12861   1.670   2.264   4.124  1.0487 -0.5640  1.4503
   9523SM   H4G12862   1.772   2.358   4.017 -0.4005 -0.1389 -0.8915
   9523SM   C5F12863   1.879   2.215   4.159  0.3598  0.4907 -0.2545
   9523SM   H5F12864   1.970   2.193   4.100  1.0939 -1.6702  1.5380
   9523SM   H5G12865   1.868   2.128   4.227  0.6370 -0.3459 -1.2603
   9523SM   C6F12866   1.924   2.332   4.253 -0.3834 -0.6306 -0.5023
   9523SM   H6F12867   1.967   2.414   4.192 -0.2683  0.6339  1.2183
   9523SM   H6G12868   2.000   2.307   4.330  2.4782  2.9506 -1.8786
   9523SM   C7F12869   1.815   2.405   4.337 -0.2072  0.1530 -0.5676
   9523SM   H7F12870   1.746   2.461   4.270  1.7166  0.7852 -2.1018
   9523SM   H7G12871   1.869   2.483   4.395 -0.2976 -0.2122  0.0169
   9523SM   C8F12872   1.743   2.321   4.436  0.0146 -0.2799 -0.4496
   9523SM   H8F12873   1.821   2.276   4.501 -1.6337 -3.0035 -0.2209
   9523SM   H8G12874   1.686   2.241   4.384  1.2316 -1.1998 -0.4096
   9523SM   C9F12875   1.648   2.407   4.526  0.3758  0.0291  0.2541
   9523SM   H9F12876   1.571   2.459   4.465 -0.6514  0.0069  1.4939
   9523SM   H9G12877   1.712   2.482   4.576 -1.6985  1.0065  1.6014
   9523SM  C10F12878   1.570   2.315   4.628  0.2823 -0.5567 -0.1516
   9523SM  H10F12879   1.642   2.247   4.678  1.2296  0.9391  0.5979
   9523SM  H10G12880   1.498   2.262   4.562 -0.6230  0.4698 -0.0155
   9523SM  C11F12881   1.493   2.402   4.732 -0.0488 -0.1026  0.1825
   9523SM  H11F12882   1.450   2.489   4.678  4.7934  1.9112 -0.9287
   9523SM  H11G12883   1.566   2.448   4.802 -1.7373  3.0515  0.0358
   9523SM  C12F12884   1.398   2.322   4.817  0.4893  0.0579  0.1406
   9523SM  H12F12885   1.454   2.235   4.860  1.3480  0.3859 -0.2949
   9523SM  H12G12886   1.313   2.281   4.759 -0.4540  1.1575  0.7154
   9523SM  C13F12887   1.342   2.404   4.938  0.3137  0.0704 -0.2509
   9523SM  H13F12888   1.272   2.477   4.893  1.2434 -0.5182 -2.8499
   9523SM  H13G12889   1.423   2.460   4.988  1.9512 -0.5553 -2.0429
   9523SM  C14F12890   1.261   2.319   5.040 -0.2301 -0.4836 -0.0358
   9523SM  H14F12891   1.326   2.232   5.064  0.2863 -0.2676 -0.6349
   9523SM  H14G12892   1.176   2.278   4.981 -1.6857  4.4577 -1.8877
   9523SM  C15F12893   1.210   2.395   5.166  0.2732  0.8212  1.0864
   9523SM  H15F12894   1.148   2.484   5.142 -0.3604 -0.0348 -0.5717
   9523SM  H15G12895   1.297   2.437   5.222  1.5193  1.4218 -1.1962
   9523SM  C16F12896   1.127   2.298   5.261  0.0808  0.5497  0.7425
   9523SM  H16F12897   1.184   2.204   5.280 -4.1315 -2.0014  2.0429
   9523SM  H16G12898   1.033   2.274   5.207  0.3340 -1.4689  1.1348
   9523SM  C17F12899   1.085   2.366   5.391 -1.2631 -0.1791 -1.4225
   9523SM  H17F12900   1.005   2.299   5.431 -0.2482 -1.0782 -0.8458
   9523SM  H17G12901   1.044   2.467   5.371 -0.9075 -0.4806 -3.9758
   9523SM  C18F12902   1.193   2.374   5.498  0.5052 -0.1128  0.3043
   9523SM  H18F12903   1.275   2.439   5.462 -0.7805  2.1929  1.3232
   9523SM  H18G12904   1.244   2.276   5.510  0.7613 -0.2433 -1.4821
   9523SM  C19F12905   1.147   2.426   5.635  0.1540 -0.0487 -0.3287
   9523SM  H19F12906   1.055   2.375   5.670  0.8763 -0.3616  1.2112
   9523SM  H19G12907   1.119   2.531   5.612  2.9488  0.9479  0.3968
   9523SM  C20F12908   1.263   2.433   5.737 -0.2871  0.6003  0.2913
   9523SM  H20F12909   1.356   2.468   5.688  2.1539 -2.0191  2.7196
   9523SM  H20G12910   1.297   2.340   5.787 -1.0015  0.9757  1.5481
   9523SM  C21F12911   1.218   2.517   5.861 -1.0748  0.2097 -0.4616
   9523SM  H21F12912   1.128   2.475   5.911  0.3228  0.7536  2.7750
   9523SM  H21G12913   1.184   2.618   5.829  1.0612  1.1403  0.0457
   9523SM  C22F12914   1.331   2.531   5.962 -0.4462 -0.3285 -0.9673
   9523SM  H22F12915   1.392   2.622   5.940  0.3153 -0.4189  0.6173
   9523SM  H22G12916   1.406   2.449   5.967  1.7276  1.5960  0.7883
   9523SM  C23F12917   1.283   2.565   6.112 -0.1321  0.3126 -0.7282
   9523SM  H23F12918   1.370   2.566   6.181  0.1296 -0.3645 -1.0361
   9523SM  H23G12919   1.215   2.482   6.142 -0.6132 -0.0807 -2.7418
   9523SM  H23H12920   1.238   2.667   6.107  1.1654  0.9256 -0.2827
   9623SM     N12921   4.647   1.688   2.789 -0.0233 -0.5457  0.1511
   9623SM   C1512922   4.718   1.591   2.880  0.0893 -0.1008  0.7993
   9623SM  H15A12923   4.708   1.493   2.836  2.5977  0.7189 -1.8734
   9623SM  H15B12924   4.678   1.606   2.980  2.1615 -1.1148  1.8393
   9623SM  H15C12925   4.823   1.613   2.873  0.2691 -1.0673  0.3656
   9623SM   C1412926   4.664   1.827   2.848  0.0637  0.6411 -0.0135
   9623SM  H14A12927   4.598   1.899   2.801 -1.4827 -0.7255  0.0001
   9623SM  H14B12928   4.768   1.854   2.862 -0.4093  1.1482  3.1012
   9623SM  H14C12929   4.614   1.824   2.943  0.5808  4.5250  0.5394
   9623SM   C1312930   4.708   1.686   2.651 -0.3272 -0.3663 -0.4355
   9623SM  H13A12931   4.796   1.749   2.655 -0.9624  0.4812  1.1251
   9623SM  H13B12932   4.646   1.732   2.575 -1.1638  0.2827  0.6042
   9623SM  H13C12933   4.741   1.588   2.622  0.2140 -0.5065  0.6001
   9623SM   C1212934   4.505   1.643   2.774 -0.7239 -0.6657 -0.3820
   9623SM  H12A12935   4.511   1.544   2.732  0.2306  0.0286 -1.9483
   9623SM  H12B12936   4.454   1.708   2.705 -0.3239 -1.5406 -1.5423
   9623SM   C1112937   4.414   1.631   2.898 -0.6366  0.4602  0.0846
   9623SM  H11A12938   4.328   1.566   2.874 -0.4616 -0.4019  1.6179
   9623SM  H11B12939   4.374   1.734   2.912 -1.2355 -0.0052  2.1116
   9623SM     P12940   4.413   1.494   3.125 -0.2488  0.2991  0.1572
   9623SM   O1312941   4.294   1.550   3.192  0.6048  0.2128  0.1290
   9623SM   O1412942   4.388   1.370   3.046 -0.2164 -0.5206 -0.6385
   9623SM   O1112943   4.517   1.459   3.239  0.6037 -0.2847 -0.2651
   9623SM   O1212944   4.474   1.595   3.021 -0.2887 -0.1373 -0.3763
   9623SM   C1S12945   4.651   1.492   3.225 -0.0772  0.6168  0.8328
   9623SM   H1S12946   4.655   1.599   3.194 -2.0428  0.1568 -1.3460
   9623SM   H1T12947   4.698   1.436   3.141 -0.8494  1.8280 -0.4576
   9623SM    NF12948   4.886   1.509   3.307  0.1604 -0.3140 -0.4419
   9623SM   HNF12949   4.937   1.427   3.282 -1.8315 -1.1463 -2.0782
   9623SM   C2S12950   4.754   1.470   3.346  0.5462  0.8330  0.3072
   9623SM   H2S12951   4.707   1.530   3.427  1.5471  0.2415  1.3537
   9623SM   C3S12952   4.762   1.325   3.394  0.1770 -0.3114 -0.2882
   9623SM   H3S12953   4.774   1.244   3.319  0.9944 -1.4785  1.0331
   9623SM    O312954   4.630   1.286   3.439  0.3985  0.6315  0.0674
   9623SM   HO312955   4.575   1.336   3.379 -0.0141 -2.2235 -2.1008
   9623SM   C4S12956   4.855   1.300   3.505 -0.0609 -0.3626  0.0674
   9623SM   H4S12957   4.826   1.341   3.602 -2.1398 -0.2048 -0.5709
   9623SM   C5S12958   4.961   1.218   3.490  0.1277 -0.3224 -0.9141
   9623SM   H5S12959   4.969   1.159   3.397 -0.0768  1.4369 -2.1117
   9623SM   C6S12960   5.064   1.180   3.588  0.0395  0.1258  0.9861
   9623SM   H6S12961   5.164   1.200   3.544 -0.2693 -1.4653 -0.5404
   9623SM   H6T12962   5.059   1.069   3.590 -0.6622  0.1067 -0.5741
   9623SM   C7S12963   5.044   1.241   3.722 -0.1208  0.1445 -0.3617
   9623SM   H7S12964   4.940   1.216   3.752 -0.0830  1.7187  1.2790
   9623SM   H7T12965   5.056   1.350   3.709 -0.1074  0.0614 -1.0530
   9623SM   C8S12966   5.143   1.193   3.833  0.4349 -0.2939  0.6058
   9623SM   H8S12967   5.244   1.207   3.789 -1.4095  2.3072 -3.3108
   9623SM   H8T12968   5.120   1.085   3.840  0.6311 -0.3360  0.6130
   9623SM   C9S12969   5.120   1.271   3.959 -0.4212  0.6339 -0.3940
   9623SM   H9S12970   5.012   1.248   3.977 -0.4561  0.1282 -1.2262
   9623SM   H9T12971   5.139   1.380   3.951  1.0972  0.3407 -1.1157
   9623SM  C10S12972   5.218   1.211   4.060 -0.2702  1.0244  0.5683
   9623SM  H10S12973   5.323   1.219   4.024 -0.3739  1.0677  0.2697
   9623SM  H10T12974   5.206   1.100   4.064 -2.2168  1.2422  1.8370
   9623SM  C11S12975   5.209   1.255   4.206 -0.1610 -0.2238  0.0863
   9623SM  H11S12976   5.292   1.202   4.256 -0.3914 -1.8320 -1.1531
   9623SM  H11T12977   5.110   1.236   4.253 -0.9831  2.4303 -0.4074
   9623SM  C12S12978   5.249   1.395   4.222 -0.0730 -0.1421 -0.1788
   9623SM  H12S12979   5.177   1.454   4.162 -0.8112 -0.5113  0.3315
   9623SM  H12T12980   5.353   1.413   4.188  0.0188  0.0371  0.1856
   9623SM  C13S12981   5.229   1.431   4.371 -0.0068 -0.0898  0.3202
   9623SM  H13S12982   5.294   1.513   4.406  1.1237 -1.8725  2.6997
   9623SM  H13T12983   5.253   1.342   4.433  1.6297 -0.0370 -0.1872
   9623SM  C14S12984   5.083   1.481   4.397 -0.6539 -0.2419 -0.1921
   9623SM  H14S12985   5.003   1.412   4.365 -0.3354  0.0707 -1.7477
   9623SM  H14T12986   5.073   1.575   4.339  2.5251 -0.2523 -0.9487
   9623SM  C15S12987   5.080   1.496   4.555 -0.2505 -0.8766  0.4619
   9623SM  H15S12988   5.167   1.553   4.595 -1.3020  0.4277  0.9832
   9623SM  H15T12989   5.087   1.390   4.586 -1.2126 -1.4430 -1.1508
   9623SM  C16S12990   4.951   1.556   4.610 -0.5794  0.0720 -0.2832
   9623SM  H16S12991   4.869   1.507   4.553  1.2370 -0.4180 -2.6507
   9623SM  H16T12992   4.957   1.661   4.576 -0.6757  0.7737  1.7379
   9623SM  C17S12993   4.933   1.545   4.766 -0.2689  0.4593  0.2539
   9623SM  H17S12994   4.949   1.440   4.798 -1.2158  0.5575  1.0894
   9623SM  H17T12995   4.828   1.567   4.796  1.2739  4.6630  3.6360
   9623SM  C18S12996   5.021   1.636   4.838 -0.0560  0.2566 -0.0553
   9623SM  H18S12997   5.022   1.734   4.786  0.0406  0.1853 -0.1879
   9623SM  H18T12998   5.129   1.609   4.832  0.1669  0.8972  0.8694
   9623SM  H18U12999   4.996   1.638   4.947 -1.3562  0.1735 -0.3372
   9623SM   C1F13000   4.930   1.635   3.293  0.0254  0.2801  0.4079
   9623SM    OF13001   4.843   1.723   3.296 -0.2502 -0.2245 -0.0622
   9623SM   C2F13002   5.078   1.659   3.277  0.1048  0.0616  0.1680
   9623SM   H2F13003   5.098   1.751   3.219  1.6495  1.6042  2.9100
   9623SM   H2G13004   5.118   1.576   3.215  2.1677 -2.1098  3.9940
   9623SM   C3F13005   5.165   1.657   3.408  0.0092  0.7477  0.5816
   9623SM   H3F13006   5.140   1.750   3.463 -1.4439  1.1207 -0.6419
   9623SM   H3G13007   5.267   1.668   3.365  0.4198 -0.6394  1.1281
   9623SM   C4F13008   5.140   1.540   3.503 -1.1900  0.1029  0.3888
   9623SM   H4F13009   5.174   1.455   3.441  1.4909  2.1356 -1.1767
   9623SM   H4G13010   5.036   1.531   3.541 -1.4986 -1.0824 -0.6702
   9623SM   C5F13011   5.241   1.544   3.617 -0.2468  0.0951 -0.1167
   9623SM   H5F13012   5.340   1.552   3.568 -0.5788  0.7621 -0.6975
   9623SM   H5G13013   5.244   1.441   3.659 -2.3276 -0.2627 -0.6988
   9623SM   C6F13014   5.211   1.626   3.740 -0.5876 -0.8116  0.3932
   9623SM   H6F13015   5.119   1.591   3.791 -0.8882 -0.7998 -0.1337
   9623SM   H6G13016   5.202   1.733   3.711  2.7492 -0.3831  0.4805
   9623SM   C7F13017   5.328   1.629   3.833  0.0097 -0.4635 -0.2668
   9623SM   H7F13018   5.412   1.673   3.776 -1.7356  1.6715 -1.3768
   9623SM   H7G13019   5.359   1.525   3.855  0.1504  0.0426  2.2400
   9623SM   C8F13020   5.286   1.691   3.963 -0.4022  0.3693  0.1612
   9623SM   H8F13021   5.201   1.631   4.001 -0.2334  0.0673  0.0619
   9623SM   H8G13022   5.243   1.791   3.944 -1.0742 -0.1299 -1.0117
   9623SM   C9F13023   5.403   1.694   4.066 -0.9203  0.1442 -0.2862
   9623SM   H9F13024   5.491   1.745   4.020 -1.0107  0.4674 -0.1008
   9623SM   H9G13025   5.436   1.589   4.080 -1.2789  0.1696  0.7850
   9623SM  C10F13026   5.356   1.748   4.202  0.3510  0.0539 -0.0457
   9623SM  H10F13027   5.272   1.681   4.229  0.8422 -0.7314 -0.4572
   9623SM  H10G13028   5.308   1.846   4.177 -1.0199 -0.5665  0.0505
   9623SM  C11F13029   5.458   1.755   4.314 -0.4807 -0.3446  0.3548
   9623SM  H11F13030   5.540   1.820   4.279  0.8505 -2.3302 -0.3576
   9623SM  H11G13031   5.497   1.652   4.329 -0.7141 -0.2976  1.3317
   9623SM  C12F13032   5.407   1.801   4.452 -0.0068  0.4768  0.7421
   9623SM  H12F13033   5.322   1.739   4.487  0.6749  0.2193  2.0487
   9623SM  H12G13034   5.370   1.905   4.446 -0.2646  0.6209  3.4774
   9623SM  C13F13035   5.502   1.785   4.572  0.1764  0.2254  0.5399
   9623SM  H13F13036   5.451   1.824   4.663  0.4992  1.0089  0.3879
   9623SM  H13G13037   5.585   1.856   4.557  1.0455 -0.7209  0.7614
   9623SM  C14F13038   5.546   1.638   4.593  0.6240  0.2766  0.2639
   9623SM  H14F13039   5.586   1.593   4.500 -0.3820 -3.0581  1.2818
   9623SM  H14G13040   5.443   1.598   4.610 -0.1571  1.5529 -1.2269
   9623SM  C15F13041   5.631   1.597   4.709 -0.3017 -0.8379  0.1579
   9623SM  H15F13042   5.729   1.650   4.710 -2.5338  3.8633  1.9845
   9623SM  H15G13043   5.648   1.488   4.709  0.6651 -0.6968  0.5897
   9623SM  C16F13044   5.558   1.626   4.834 -0.1010  0.9171  0.0571
   9623SM  H16F13045   5.486   1.541   4.837  1.5466 -0.5177  1.1532
   9623SM  H16G13046   5.511   1.725   4.850  0.3046  1.1107  0.0545
   9623SM  C17F13047   5.655   1.605   4.959  0.4765 -0.9281  0.8364
   9623SM  H17F13048   5.585   1.604   5.045 -0.6539 -0.6072 -0.0677
   9623SM  H17G13049   5.734   1.682   4.970  1.1894 -1.4231 -0.5869
   9623SM  C18F13050   5.732   1.471   4.967  0.6892  0.3818 -0.0765
   9623SM  H18F13051   5.821   1.483   4.902  0.2365  2.0639 -0.4485
   9623SM  H18G13052   5.671   1.389   4.923  1.9635 -0.8471  0.3683
   9623SM  C19F13053   5.784   1.445   5.115  0.0353  0.5164  0.3734
   9623SM  H19F13054   5.839   1.538   5.143 -0.4356  0.5200  1.3231
   9623SM  H19G13055   5.858   1.362   5.105  0.5511  1.0701 -0.6207
   9623SM  C20F13056   5.677   1.412   5.219  0.3732  0.1645  0.1293
   9623SM  H20F13057   5.637   1.502   5.271  0.1065  0.3732 -0.4290
   9623SM  H20G13058   5.734   1.357   5.298  2.3939  2.8457  0.6988
   9623SM  C21F13059   5.559   1.322   5.173 -0.0971 -0.0545 -0.2444
   9623SM  H21F13060   5.602   1.230   5.127  0.2781  0.1717 -0.3483
   9623SM  H21G13061   5.509   1.382   5.094  0.7565  1.9690  0.6897
   9623SM  C22F13062   5.462   1.296   5.285  0.1975 -0.3325  0.0678
   9623SM  H22F13063   5.419   1.395   5.313 -3.1093 -1.3185 -0.9968
   9623SM  H22G13064   5.510   1.247   5.371 -0.1873 -1.3302 -0.2712
   9623SM  C23F13065   5.348   1.201   5.238 -0.4282 -0.6520  0.0791
   9623SM  H23F13066   5.395   1.102   5.217  0.5494  0.0948 -1.5349
   9623SM  H23G13067   5.300   1.242   5.147 -1.1828 -1.6862 -0.0145
   9623SM  H23H13068   5.266   1.186   5.311  1.5763 -1.3830  2.3048
   9723SM     N13069   4.738   6.827   2.812  0.2094 -0.4409 -0.2574
   9723SM   C1513070   4.744   6.888   2.950 -0.3948  0.0111  0.8640
   9723SM  H15A13071   4.696   6.827   3.025  1.5741 -2.4228  0.2821
   9723SM  H15B13072   4.716   6.992   2.940  0.9369  0.2819 -0.4542
   9723SM  H15C13073   4.849   6.886   2.976 -0.3456 -2.8404  0.7295
   9723SM   C1413074   4.797   6.917   2.708 -0.3161 -0.2769  0.6017
   9723SM  H14A13075   4.801   6.873   2.610  0.5477 -1.6068  1.2108
   9723SM  H14B13076   4.897   6.948   2.736 -0.3411  2.4315 -1.7683
   9723SM  H14C13077   4.743   7.011   2.706 -1.0049 -0.6671  0.6151
   9723SM   C1313078   4.820   6.701   2.816  0.2620  0.3436 -0.4243
   9723SM  H13A13079   4.857   6.677   2.718 -2.5922  0.4131 -1.5935
   9723SM  H13B13080   4.769   6.609   2.842  1.2140 -0.6437 -1.8982
   9723SM  H13C13081   4.900   6.701   2.889  0.5397  0.2638 -0.7231
   9723SM   C1213082   4.598   6.790   2.766  0.2618 -0.7925  0.4223
   9723SM  H12A13083   4.562   6.705   2.823 -0.6718  0.7328  2.2252
   9723SM  H12B13084   4.596   6.761   2.662  1.5631  0.9360 -0.1287
   9723SM   C1113085   4.484   6.895   2.777 -0.2243 -0.0112 -0.2564
   9723SM  H11A13086   4.471   6.921   2.884 -0.3966  1.4253 -0.6131
   9723SM  H11B13087   4.379   6.865   2.754  0.3635 -1.6131 -0.9975
   9723SM     P13088   4.532   7.157   2.748  0.0027  0.3083  0.4096
   9723SM   O1313089   4.634   7.219   2.658 -0.0718 -0.1890  0.5094
   9723SM   O1413090   4.396   7.211   2.745 -0.0695  0.1027  0.1191
   9723SM   O1113091   4.580   7.146   2.892 -0.0736  0.0578  0.4474
   9723SM   O1213092   4.515   7.009   2.701 -0.3040 -0.3973 -0.3777
   9723SM   C1S13093   4.697   7.216   2.943 -0.3023 -0.4677  0.0235
   9723SM   H1S13094   4.746   7.270   2.859  1.7525 -3.5321 -0.8975
   9723SM   H1T13095   4.775   7.142   2.969 -0.6188 -1.4873 -1.7338
   9723SM    NF13096   4.764   7.389   3.107 -0.3311  0.4134  0.8346
   9723SM   HNF13097   4.815   7.375   3.192 -0.7909  2.0347  1.4133
   9723SM   C2S13098   4.654   7.303   3.067 -0.7409  0.7093  0.8500
   9723SM   H2S13099   4.564   7.362   3.041 -1.5700 -0.4231  1.0564
   9723SM   C3S13100   4.602   7.216   3.190 -0.4927  0.4011  0.0306
   9723SM   H3S13101   4.683   7.144   3.216  0.6858  1.1256 -1.4957
   9723SM    O313102   4.482   7.145   3.157 -0.0947  0.3075 -0.1248
   9723SM   HO313103   4.476   7.152   3.062 -0.0840  0.5981 -0.1047
   9723SM   C4S13104   4.579   7.299   3.313  0.0707  0.1977 -0.2402
   9723SM   H4S13105   4.638   7.281   3.404 -2.4897  2.6233  2.1136
   9723SM   C5S13106   4.485   7.394   3.321  0.0760 -0.1720 -0.8734
   9723SM   H5S13107   4.442   7.442   3.232 -2.6787  2.8871  1.8237
   9723SM   C6S13108   4.456   7.475   3.454  0.2756  0.3061  0.3306
   9723SM   H6S13109   4.349   7.462   3.484  0.3273 -2.3105 -0.3489
   9723SM   H6T13110   4.460   7.585   3.438 -0.5284  0.3672  0.4746
   9723SM   C7S13111   4.551   7.442   3.575  0.1111 -0.1709  1.2321
   9723SM   H7S13112   4.655   7.469   3.547 -0.5348  1.8109  0.5705
   9723SM   H7T13113   4.559   7.336   3.608  0.0948 -1.5778 -2.8221
   9723SM   C8S13114   4.502   7.521   3.698  0.3107  0.6995  0.6275
   9723SM   H8S13115   4.393   7.502   3.707  0.7230 -2.0067  0.6709
   9723SM   H8T13116   4.530   7.627   3.681  0.4809  0.4728 -0.5976
   9723SM   C9S13117   4.570   7.483   3.825 -0.0414 -1.1270  0.3931
   9723SM   H9S13118   4.668   7.537   3.829  0.6257 -2.3498  0.8832
   9723SM   H9T13119   4.586   7.374   3.825  0.9148 -1.0000  1.2163
   9723SM  C10S13120   4.493   7.516   3.951 -0.7773  0.4908 -0.0108
   9723SM  H10S13121   4.397   7.464   3.930  0.0011 -0.4341 -1.4258
   9723SM  H10T13122   4.466   7.624   3.947 -0.5259  0.5595  0.1300
   9723SM  C11S13123   4.568   7.466   4.078  0.1535  0.0326  0.3065
   9723SM  H11S13124   4.661   7.526   4.076 -0.1151  0.4557 -2.5930
   9723SM  H11T13125   4.599   7.359   4.070  1.6987  0.2421  2.5119
   9723SM  C12S13126   4.492   7.505   4.204 -0.0276 -0.0060  0.1788
   9723SM  H12S13127   4.397   7.448   4.213  0.2301 -0.5108 -0.2382
   9723SM  H12T13128   4.461   7.612   4.199  0.0769  0.1551  2.3436
   9723SM  C13S13129   4.579   7.479   4.326 -0.3762 -0.3167  0.7019
   9723SM  H13S13130   4.677   7.530   4.314 -0.6761 -0.0980 -1.0238
   9723SM  H13T13131   4.594   7.369   4.322  0.5506 -0.2183  1.1620
   9723SM  C14S13132   4.513   7.511   4.455  0.4418  0.1071 -0.5802
   9723SM  H14S13133   4.434   7.434   4.470  2.3621 -1.4386  2.6862
   9723SM  H14T13134   4.469   7.611   4.438  0.1706  0.1240  0.1981
   9723SM  C15S13135   4.609   7.514   4.582 -0.2735 -0.1105 -0.4946
   9723SM  H15S13136   4.707   7.561   4.559  0.1481  0.0976  1.5416
   9723SM  H15T13137   4.640   7.413   4.615  0.8992  0.1344 -0.7931
   9723SM  C16S13138   4.545   7.598   4.695  0.0695  0.7082 -0.0361
   9723SM  H16S13139   4.443   7.561   4.720 -0.1652  0.6194 -1.1016
   9723SM  H16T13140   4.540   7.697   4.645 -0.3119 -0.1072 -1.6572
   9723SM  C17S13141   4.637   7.598   4.822 -0.2146 -0.0031 -0.0658
   9723SM  H17S13142   4.590   7.672   4.890 -2.1949  0.8625 -2.2259
   9723SM  H17T13143   4.739   7.632   4.791  0.5864 -2.2629 -0.0512
   9723SM  C18S13144   4.647   7.461   4.880  0.1756 -0.1783 -0.5229
   9723SM  H18S13145   4.693   7.457   4.981  0.8365  0.6520 -0.7814
   9723SM  H18T13146   4.713   7.394   4.821  2.4222  1.5333 -0.1045
   9723SM  H18U13147   4.539   7.437   4.887 -0.6042  2.6592 -1.3452
   9723SM   C1F13148   4.808   7.494   3.035  0.9391  0.2394 -0.2202
   9723SM    OF13149   4.752   7.525   2.930  0.2266  0.0685 -0.5869
   9723SM   C2F13150   4.918   7.566   3.100 -0.0468 -0.5898 -0.1501
   9723SM   H2F13151   4.982   7.611   3.022 -1.3997 -1.4858 -1.8651
   9723SM   H2G13152   4.993   7.509   3.158  1.9709  0.9750 -1.1133
   9723SM   C3F13153   4.869   7.690   3.188  0.0255  0.2549 -0.3031
   9723SM   H3F13154   4.809   7.769   3.137  0.7267 -0.1952 -1.8798
   9723SM   H3G13155   4.961   7.731   3.234  0.4880 -1.8044  0.7293
   9723SM   C4F13156   4.788   7.642   3.312 -0.4839 -0.9749  0.0111
   9723SM   H4F13157   4.857   7.597   3.388 -0.5733 -1.3791 -0.1430
   9723SM   H4G13158   4.708   7.569   3.285 -1.6624 -0.0249  0.7925
   9723SM   C5F13159   4.723   7.767   3.388 -0.1125 -0.1182 -0.1564
   9723SM   H5F13160   4.646   7.719   3.451 -1.0253 -2.2405 -2.6704
   9723SM   H5G13161   4.665   7.824   3.311  0.1113 -0.7958 -0.8436
   9723SM   C6F13162   4.823   7.855   3.459  0.3947 -0.3494 -0.7054
   9723SM   H6F13163   4.901   7.895   3.390  0.0409  2.7169  0.5058
   9723SM   H6G13164   4.884   7.792   3.527  0.1960  0.1054 -0.1003
   9723SM   C7F13165   4.767   7.979   3.542 -0.0153  0.5965  0.4021
   9723SM   H7F13166   4.729   8.045   3.460  0.3409  0.4007  0.0780
   9723SM   H7G13167   4.855   8.035   3.580 -0.2060  0.2433  1.3684
   9723SM   C8F13168   4.682   7.942   3.661  0.4829 -0.3805  0.8580
   9723SM   H8F13169   4.600   7.873   3.633  0.6422  0.1389 -1.0544
   9723SM   H8G13170   4.639   8.037   3.698  0.9002  1.0373 -2.0465
   9723SM   C9F13171   4.754   7.875   3.777 -0.3193  0.5432 -0.5736
   9723SM   H9F13172   4.852   7.928   3.788 -0.0476  0.1808 -1.1994
   9723SM   H9G13173   4.788   7.773   3.750 -1.1709 -0.6095  2.3179
   9723SM  C10F13174   4.683   7.871   3.913 -0.0437 -0.0073  0.3509
   9723SM  H10F13175   4.634   7.772   3.926 -1.4111  0.4229 -1.1206
   9723SM  H10G13176   4.601   7.945   3.922 -2.0639 -2.0360 -0.2686
   9723SM  C11F13177   4.786   7.877   4.029 -0.1435  0.5153 -0.2412
   9723SM  H11F13178   4.844   7.971   4.035  0.4008  0.1143  1.0004
   9723SM  H11G13179   4.860   7.797   4.007 -2.0871 -1.8355  1.1640
   9723SM  C12F13180   4.732   7.852   4.168 -0.0737 -0.2320 -0.3213
   9723SM  H12F13181   4.707   7.745   4.185 -0.4081 -0.0993  0.0456
   9723SM  H12G13182   4.635   7.904   4.174  0.7424  1.1327  3.0594
   9723SM  C13F13183   4.823   7.894   4.289  0.7438  0.0457  0.0953
   9723SM  H13F13184   4.835   8.004   4.280 -0.2520  0.0224 -2.7775
   9723SM  H13G13185   4.918   7.849   4.253  0.6865  0.9515 -1.2906
   9723SM  C14F13186   4.766   7.862   4.422 -0.2114  0.1105 -0.0619
   9723SM  H14F13187   4.789   7.758   4.454  2.1669  0.1291 -1.4969
   9723SM  H14G13188   4.656   7.882   4.427 -0.4879 -0.8824 -1.6349
   9723SM  C15F13189   4.820   7.951   4.539  0.4609 -0.6712 -0.4665
   9723SM  H15F13190   4.795   8.056   4.514 -0.1701 -0.4151  1.1209
   9723SM  H15G13191   4.931   7.952   4.546  0.5736  1.3107 -1.7881
   9723SM  C16F13192   4.751   7.911   4.668 -0.0118 -0.1507 -0.1734
   9723SM  H16F13193   4.786   7.808   4.690  0.2866  0.1255  0.6831
   9723SM  H16G13194   4.644   7.908   4.637  0.5957  0.7157 -2.6423
   9723SM  C17F13195   4.759   8.008   4.786 -0.6200  1.3956 -0.0940
   9723SM  H17F13196   4.691   7.975   4.867 -0.0186  1.7462  0.5728
   9723SM  H17G13197   4.732   8.107   4.744 -0.0015  1.9278  0.7171
   9723SM  C18F13198   4.902   8.008   4.848  0.5032 -0.0870 -0.5606
   9723SM  H18F13199   4.954   7.912   4.828  2.9069  1.0319 -0.0149
   9723SM  H18G13200   4.884   8.010   4.958  1.3659  0.1281 -0.4181
   9723SM  C19F13201   4.997   8.114   4.797 -0.2722 -0.1072 -0.0478
   9723SM  H19F13202   4.935   8.203   4.819  1.4223  0.5728  2.4699
   9723SM  H19G13203   5.013   8.105   4.688  1.6592 -0.9136  0.2587
   9723SM  C20F13204   5.130   8.125   4.880  0.0525  0.3947  0.1267
   9723SM  H20F13205   5.196   8.153   4.796 -1.5271 -0.3334 -1.4204
   9723SM  H20G13206   5.165   8.027   4.919 -0.7393 -0.3270 -0.9307
   9723SM  C21F13207   5.109   8.236   4.987 -0.0135 -0.1063 -0.4501
   9723SM  H21F13208   5.052   8.193   5.072  0.9338 -0.9186 -0.2033
   9723SM  H21G13209   5.042   8.318   4.953 -2.5713 -1.4315  1.0654
   9723SM  C22F13210   5.240   8.303   5.031  0.2204  0.1911  0.2372
   9723SM  H22F13211   5.221   8.378   5.111 -2.3374 -0.7781  0.6007
   9723SM  H22G13212   5.283   8.351   4.940 -1.0250 -0.4927 -0.7491
   9723SM  C23F13213   5.342   8.204   5.084  0.3130  0.8126 -0.3703
   9723SM  H23F13214   5.426   8.260   5.131  0.6355  0.3494 -0.3849
   9723SM  H23G13215   5.368   8.126   5.009 -0.3622  0.4174 -0.2003
   9723SM  H23H13216   5.289   8.152   5.167  1.3665  1.1182  0.5262
   9823SM     N13217   6.517   0.898   2.818  0.2330  0.1769 -0.7367
   9823SM   C1513218   6.465   0.986   2.704 -0.2263 -0.4861 -0.2539
   9823SM  H15A13219   6.551   1.041   2.668 -0.7964  1.9486  1.8602
   9823SM  H15B13220   6.387   1.050   2.742 -0.2529 -1.2328  1.0024
   9823SM  H15C13221   6.421   0.926   2.625 -0.2701  0.9149 -1.3294
   9823SM   C1413222   6.401   0.841   2.882 -0.4508  0.5953 -0.5790
   9823SM  H14A13223   6.426   0.775   2.963  1.0179  1.9270  0.1034
   9823SM  H14B13224   6.335   0.783   2.819  0.7868 -1.6137  0.0901
   9823SM  H14C13225   6.342   0.914   2.936  0.3491  0.2628  0.7834
   9823SM   C1313226   6.602   0.789   2.769  0.0527  0.0659  0.7667
   9823SM  H13A13227   6.686   0.828   2.714 -0.3323 -0.1096  0.0467
   9823SM  H13B13228   6.549   0.715   2.710  1.6337 -1.2474  0.9303
   9823SM  H13C13229   6.642   0.736   2.854 -2.2591 -1.3518  1.0608
   9823SM   C1213230   6.600   0.980   2.912  0.0628 -0.3587 -0.4513
   9823SM  H12A13231   6.638   0.908   2.984 -1.9391 -3.2916 -2.0998
   9823SM  H12B13232   6.533   1.051   2.956 -1.0941 -0.9182 -1.2633
   9823SM   C1113233   6.712   1.062   2.847  0.2143  0.0416  0.5557
   9823SM  H11A13234   6.756   1.124   2.927  0.0139  1.4371 -0.3839
   9823SM  H11B13235   6.662   1.134   2.778 -0.2581 -1.8667 -1.2292
   9823SM     P13236   6.947   1.010   2.752 -0.4420  0.3182 -0.3097
   9823SM   O1313237   7.006   0.888   2.700  0.0222  0.3463 -0.1956
   9823SM   O1413238   6.965   1.135   2.674  0.5881 -0.0872 -0.1610
   9823SM   O1113239   7.001   1.021   2.899  0.0430 -0.1165 -0.3439
   9823SM   O1213240   6.798   0.980   2.772 -0.3327  0.0030 -0.4758
   9823SM   C1S13241   6.965   0.934   3.008 -0.4010 -0.4263  0.5201
   9823SM   H1S13242   6.902   0.848   2.975  0.3739 -1.0935  0.7560
   9823SM   H1T13243   6.911   0.991   3.086 -0.9351 -0.5739  0.2617
   9823SM    NF13244   7.044   0.755   3.165  0.0268 -0.1453 -0.2784
   9823SM   HNF13245   6.995   0.787   3.246 -0.1890  2.3963 -1.3065
   9823SM   C2S13246   7.090   0.871   3.085 -0.1231 -1.1305  0.5018
   9823SM   H2S13247   7.162   0.836   3.009 -0.4621 -1.7316  0.4493
   9823SM   C3S13248   7.158   0.976   3.178  0.4508 -0.4828  0.2288
   9823SM   H3S13249   7.097   1.037   3.248 -1.6888 -1.6291 -0.5425
   9823SM    O313250   7.220   1.081   3.099  0.6118  0.5839  0.3255
   9823SM   HO313251   7.208   1.048   3.009 -0.6387 -0.4432  0.8492
   9823SM   C4S13252   7.276   0.916   3.254  0.4731  0.4028 -0.3320
   9823SM   H4S13253   7.366   0.898   3.193 -0.3748  2.6119 -2.3602
   9823SM   C5S13254   7.274   0.891   3.389  0.2338 -0.0828 -0.1789
   9823SM   H5S13255   7.183   0.904   3.450  0.4292 -1.7933  0.5442
   9823SM   C6S13256   7.388   0.834   3.474  0.2300  0.7531 -0.0720
   9823SM   H6S13257   7.379   0.861   3.581 -1.2269 -0.6754  0.2054
   9823SM   H6T13258   7.485   0.864   3.429  0.0969  0.7878 -0.3397
   9823SM   C7S13259   7.393   0.679   3.462 -0.1479  0.4188 -0.7142
   9823SM   H7S13260   7.377   0.636   3.360 -0.7779 -1.3101  0.0632
   9823SM   H7T13261   7.316   0.632   3.528  0.1768  1.2176  0.2520
   9823SM   C8S13262   7.531   0.627   3.518  0.2852  0.2076  0.0504
   9823SM   H8S13263   7.606   0.672   3.449 -0.7103  1.0662 -0.5048
   9823SM   H8T13264   7.541   0.517   3.510  0.7753  0.3179 -1.0900
   9823SM   C9S13265   7.560   0.658   3.665  0.6449  0.3233  0.2639
   9823SM   H9S13266   7.590   0.765   3.675 -1.6748  1.1286 -0.7715
   9823SM   H9T13267   7.654   0.605   3.695  0.7490  0.1275 -0.3864
   9823SM  C10S13268   7.449   0.597   3.754  0.6770 -0.3991  0.7336
   9823SM  H10S13269   7.442   0.491   3.724 -0.7914  0.1224 -0.9895
   9823SM  H10T13270   7.357   0.656   3.729  0.2086 -2.0160 -1.6818
   9823SM  C11S13271   7.481   0.618   3.908  0.1391  0.0989 -0.0372
   9823SM  H11S13272   7.499   0.727   3.923  1.1720 -0.2802  1.6328
   9823SM  H11T13273   7.579   0.576   3.935 -0.2940 -0.2125  1.0988
   9823SM  C12S13274   7.371   0.562   4.001 -0.1788  0.2879 -0.1994
   9823SM  H12S13275   7.326   0.470   3.957  0.3298 -0.9771  1.8280
   9823SM  H12T13276   7.284   0.632   3.994 -1.2214 -0.7603  1.6139
   9823SM  C13S13277   7.416   0.536   4.148 -0.0248 -0.3461  0.6446
   9823SM  H13S13278   7.497   0.460   4.147  0.5998  0.3024 -0.8198
   9823SM  H13T13279   7.330   0.491   4.203 -1.0855  1.6646  0.7209
   9823SM  C14S13280   7.465   0.656   4.233  0.0691 -0.5670  0.1906
   9823SM  H14S13281   7.415   0.745   4.190 -0.2351 -0.6523  0.3707
   9823SM  H14T13282   7.574   0.665   4.214  0.1857  2.3698  1.6554
   9823SM  C15S13283   7.452   0.632   4.380  0.3833  0.8885  0.4433
   9823SM  H15S13284   7.491   0.531   4.403 -1.4069  0.3274  1.2389
   9823SM  H15T13285   7.346   0.635   4.413 -0.2782  0.8338 -1.5618
   9823SM  C16S13286   7.557   0.721   4.456  0.1346 -0.2684  0.3315
   9823SM  H16S13287   7.554   0.823   4.411  0.4559  0.5285  2.0287
   9823SM  H16T13288   7.654   0.677   4.423 -0.4821 -0.6816 -1.0161
   9823SM  C17S13289   7.531   0.718   4.606  0.2572  0.4473 -0.4768
   9823SM  H17S13290   7.526   0.613   4.642  0.0489  1.0806  1.4511
   9823SM  H17T13291   7.437   0.770   4.636  0.4943  0.2321  0.7074
   9823SM  C18S13292   7.637   0.784   4.695  0.4625 -0.5272  0.5408
   9823SM  H18S13293   7.742   0.764   4.665  0.6395 -0.2273  0.9599
   9823SM  H18T13294   7.634   0.754   4.801  1.1107 -0.2702  0.6360
   9823SM  H18U13295   7.619   0.892   4.676 -2.1611 -0.7472  1.3718
   9823SM   C1F13296   7.026   0.633   3.121 -0.3474  0.5625 -0.1258
   9823SM    OF13297   7.076   0.594   3.016  0.0081  0.0047 -0.4514
   9823SM   C2F13298   6.926   0.551   3.195  0.1477  0.4199 -0.1779
   9823SM   H2F13299   6.854   0.499   3.129  0.5754 -1.3318  0.6636
   9823SM   H2G13300   6.863   0.618   3.257 -2.0284 -1.0481 -0.6778
   9823SM   C3F13301   6.999   0.443   3.285 -0.1832  0.6736  0.1820
   9823SM   H3F13302   7.073   0.486   3.356  1.0313 -1.8984  0.6023
   9823SM   H3G13303   7.044   0.362   3.224 -1.7013  0.2959 -0.4859
   9823SM   C4F13304   6.903   0.376   3.383  0.2769  0.9633 -0.4672
   9823SM   H4F13305   6.833   0.318   3.319 -1.5290 -0.1434  2.3322
   9823SM   H4G13306   6.836   0.445   3.438  0.0188  0.0512  0.3792
   9823SM   C5F13307   6.965   0.278   3.482 -0.7078  0.1808  0.0940
   9823SM   H5F13308   7.058   0.233   3.441 -0.8242 -0.3944  0.4412
   9823SM   H5G13309   6.887   0.201   3.502 -2.2234  2.0822  1.9671
   9823SM   C6F13310   6.998   0.344   3.619 -0.2408 -0.4334 -0.0817
   9823SM   H6F13311   6.905   0.391   3.656  1.4206 -0.0324  4.1571
   9823SM   H6G13312   7.070   0.423   3.587 -1.5913  0.2830 -1.4603
   9823SM   C7F13313   7.070   0.262   3.723 -0.0222  0.6846 -0.2105
   9823SM   H7F13314   7.159   0.220   3.671  0.3693 -1.0380  1.6884
   9823SM   H7G13315   7.010   0.171   3.747  0.4360  0.0436 -1.4078
   9823SM   C8F13316   7.108   0.350   3.843  0.6439  0.4104  1.1021
   9823SM   H8F13317   7.104   0.456   3.810  0.2477 -0.0562 -0.4101
   9823SM   H8G13318   7.212   0.329   3.875  1.4556  3.0016  0.4214
   9823SM   C9F13319   7.015   0.329   3.965  0.3586 -0.4280 -0.4906
   9823SM   H9F13320   7.011   0.218   3.973  1.3583 -0.3886  1.3700
   9823SM   H9G13321   6.917   0.373   3.937 -0.2495 -0.2172  1.7462
   9823SM  C10F13322   7.070   0.384   4.099  0.8693  0.3444 -0.8125
   9823SM  H10F13323   7.116   0.484   4.084 -0.6584  1.1372 -0.4845
   9823SM  H10G13324   7.145   0.321   4.151 -1.4247 -0.9504  1.1793
   9823SM  C11F13325   6.953   0.385   4.203  0.7352 -0.2863 -0.1513
   9823SM  H11F13326   6.921   0.282   4.233 -3.5236  0.4690 -1.3104
   9823SM  H11G13327   6.858   0.429   4.164 -1.0015 -2.5983  1.1594
   9823SM  C12F13328   6.995   0.465   4.324 -0.3470 -0.4251  0.3754
   9823SM  H12F13329   7.004   0.573   4.297  0.8666 -0.7806 -0.6936
   9823SM  H12G13330   7.090   0.429   4.370  0.3704  1.4743  0.5092
   9823SM  C13F13331   6.878   0.476   4.427  0.1357  0.5116  0.0083
   9823SM  H13F13332   6.853   0.373   4.457  1.4179  0.0925 -0.3125
   9823SM  H13G13333   6.799   0.527   4.368  1.6668  1.6077 -1.1868
   9823SM  C14F13334   6.911   0.555   4.556  0.3318 -0.0569  0.1260
   9823SM  H14F13335   6.975   0.642   4.531 -0.7713  0.4243 -1.1485
   9823SM  H14G13336   6.978   0.482   4.606 -0.5496 -2.0614 -1.4828
   9823SM  C15F13337   6.787   0.594   4.635 -0.8333 -0.1397 -0.0076
   9823SM  H15F13338   6.711   0.648   4.575 -2.1289 -1.2291  0.5922
   9823SM  H15G13339   6.812   0.671   4.711  1.2054 -1.2472  0.5270
   9823SM  C16F13340   6.710   0.484   4.711  0.3218 -0.1322  0.0330
   9823SM  H16F13341   6.776   0.427   4.779 -1.0274 -1.5517  0.1973
   9823SM  H16G13342   6.681   0.423   4.623  0.3877  0.3617 -0.3393
   9823SM  C17F13343   6.591   0.542   4.794  0.0360 -0.5607  0.5437
   9823SM  H17F13344   6.531   0.615   4.736  1.1273  0.6863  0.9350
   9823SM  H17G13345   6.621   0.595   4.887  0.6327  1.1756 -0.5971
   9823SM  C18F13346   6.482   0.442   4.829 -0.2838 -0.4931 -0.8350
   9823SM  H18F13347   6.516   0.381   4.915  0.1714 -1.4957 -1.7105
   9823SM  H18G13348   6.449   0.372   4.750 -0.6626 -1.0444 -0.2036
   9823SM  C19F13349   6.358   0.515   4.889  0.1150  0.3976  0.3008
   9823SM  H19F13350   6.390   0.574   4.978  0.4077  3.0606 -1.4541
   9823SM  H19G13351   6.273   0.454   4.928 -1.2162  2.3573  0.6304
   9823SM  C20F13352   6.284   0.615   4.794 -0.1017  0.5879  0.4008
   9823SM  H20F13353   6.345   0.702   4.762  0.3193 -0.9844 -3.5971
   9823SM  H20G13354   6.183   0.646   4.829 -0.1591  1.2281 -0.3003
   9823SM  C21F13355   6.256   0.543   4.657  0.0117 -0.4698  0.2588
   9823SM  H21F13356   6.202   0.447   4.674 -0.2596 -0.2088  0.9444
   9823SM  H21G13357   6.352   0.513   4.611  1.3843  1.4701  1.7193
   9823SM  C22F13358   6.185   0.641   4.567 -0.2092 -0.4196 -0.0939
   9823SM  H22F13359   6.245   0.729   4.534  0.9981 -1.8469 -1.9113
   9823SM  H22G13360   6.095   0.680   4.619  0.5060 -0.0670  0.8959
   9823SM  C23F13361   6.123   0.571   4.446  0.6109 -0.3393 -0.7463
   9823SM  H23F13362   6.196   0.546   4.366  2.4142  2.3898 -0.1163
   9823SM  H23G13363   6.048   0.643   4.406  0.9124  1.5442  1.8470
   9823SM  H23H13364   6.061   0.485   4.476 -0.6132  0.9858  0.6855
   9923SM     N13365   1.556   0.281   3.195 -0.4947 -0.1275 -0.4906
   9923SM   C1513366   1.462   0.215   3.103  0.2711  0.6241  0.0734
   9923SM  H15A13367   1.481   0.240   3.000  0.2554 -1.7882 -0.5850
   9923SM  H15B13368   1.359   0.235   3.127  0.2129 -0.5865  0.9681
   9923SM  H15C13369   1.483   0.109   3.115  1.7408  0.4794 -2.8071
   9923SM   C1413370   1.700   0.258   3.151 -0.5247 -0.1350 -0.1154
   9923SM  H14A13371   1.724   0.294   3.051  0.1948  1.9541  0.7435
   9923SM  H14B13372   1.724   0.153   3.163 -1.3179 -0.1398  1.6227
   9923SM  H14C13373   1.766   0.306   3.222  1.6932  0.0302 -2.1325
   9923SM   C1313374   1.535   0.432   3.182  0.0318 -0.1495 -0.2702
   9923SM  H13A13375   1.550   0.457   3.078 -1.8041  0.5722 -0.3976
   9923SM  H13B13376   1.610   0.488   3.236 -0.0100 -1.9739  1.8562
   9923SM  H13C13377   1.437   0.466   3.213  0.9577  0.7688  1.8558
   9923SM   C1213378   1.534   0.239   3.339  0.5051 -0.1973  0.2881
   9923SM  H12A13379   1.430   0.266   3.348  0.9310  1.1359  1.4597
   9923SM  H12B13380   1.584   0.299   3.413 -0.4748  0.5634  0.3539
   9923SM   C1113381   1.544   0.090   3.378 -0.3606 -0.2831  0.1564
   9923SM  H11A13382   1.556   0.080   3.488 -0.2332 -2.1248  0.0096
   9923SM  H11B13383   1.634   0.043   3.333  0.3666  1.4431 -0.2707
   9923SM     P13384   1.288   0.033   3.395  0.0602  0.0488  0.1955
   9923SM   O1313385   1.211   0.140   3.327  0.2297 -0.2716 -0.1984
   9923SM   O1413386   1.224  -0.102   3.398  0.0612 -0.1104  0.0442
   9923SM   O1113387   1.325   0.081   3.539  0.0633 -0.3583  0.0380
   9923SM   O1213388   1.429   0.023   3.328  0.6409 -0.6706  0.4135
   9923SM   C1S13389   1.352  -0.024   3.639 -0.2470 -0.2397  0.3761
   9923SM   H1S13390   1.440  -0.081   3.602  0.5084  1.9541 -1.4877
   9923SM   H1T13391   1.271  -0.098   3.656 -0.3007 -0.3321 -0.2311
   9923SM    NF13392   1.418  -0.044   3.869 -0.0771  0.1947  0.3269
   9923SM   HNF13393   1.351  -0.082   3.931  0.0368  0.1539  0.4242
   9923SM   C2S13394   1.379   0.051   3.770 -0.6559  0.2353  0.9333
   9923SM   H2S13395   1.464   0.114   3.740 -1.4602 -0.1279 -2.4553
   9923SM   C3S13396   1.263   0.136   3.819  0.6794  0.0209  0.3801
   9923SM   H3S13397   1.187   0.065   3.859 -1.2049  2.2407  1.0361
   9923SM    O313398   1.198   0.206   3.715  0.8280 -0.1830 -0.7249
   9923SM   HO313399   1.240   0.162   3.641  1.7638 -1.5748  0.5820
   9923SM   C4S13400   1.302   0.229   3.926  0.1042  0.2968  0.3720
   9923SM   H4S13401   1.381   0.304   3.911  1.0519 -0.8437 -0.5233
   9923SM   C5S13402   1.251   0.215   4.051  0.1886  0.0710 -1.1776
   9923SM   H5S13403   1.166   0.145   4.058 -0.0176  0.3323 -1.0547
   9923SM   C6S13404   1.281   0.305   4.172 -0.3596 -0.1065 -1.1719
   9923SM   H6S13405   1.370   0.369   4.153 -0.1808  0.1505  0.3835
   9923SM   H6T13406   1.308   0.244   4.260 -1.3938  0.6712 -0.2919
   9923SM   C7S13407   1.168   0.402   4.215 -0.2910  0.8424 -0.6257
   9923SM   H7S13408   1.211   0.476   4.286 -0.2328 -0.2573  0.5152
   9923SM   H7T13409   1.104   0.330   4.270  2.4700 -1.3131  0.0328
   9923SM   C8S13410   1.087   0.483   4.107 -0.3410 -0.0240  0.5741
   9923SM   H8S13411   1.022   0.415   4.048  0.0418 -0.0167  0.1424
   9923SM   H8T13412   1.169   0.529   4.047  1.1801 -1.4813  1.4464
   9923SM   C9S13413   0.997   0.596   4.164 -0.8868 -0.4053  0.0067
   9923SM   H9S13414   0.944   0.652   4.084  1.9294  3.1706  0.3506
   9923SM   H9T13415   1.067   0.670   4.209 -1.2407  1.5778 -2.4652
   9923SM  C10S13416   0.901   0.538   4.259 -0.5790 -0.0844 -0.2653
   9923SM  H10S13417   0.951   0.468   4.329 -1.7487  0.2022  0.9039
   9923SM  H10T13418   0.824   0.467   4.222 -0.6142 -0.2301  0.0880
   9923SM  C11S13419   0.826   0.649   4.334  0.0149 -0.1485  0.5355
   9923SM  H11S13420   0.745   0.689   4.270  0.3271 -1.1574 -0.5424
   9923SM  H11T13421   0.899   0.729   4.355 -0.0928  0.5640 -1.5255
   9923SM  C12S13422   0.767   0.594   4.463 -0.3456 -0.2472 -0.7347
   9923SM  H12S13423   0.856   0.566   4.523  0.3852  1.0986 -1.1647
   9923SM  H12T13424   0.708   0.502   4.441  0.6195 -1.4656  1.4632
   9923SM  C13S13425   0.679   0.695   4.531  0.4500  0.0560 -1.0229
   9923SM  H13S13426   0.592   0.712   4.464  0.2244  3.9151  0.0174
   9923SM  H13T13427   0.725   0.796   4.541  1.2044 -0.3483 -0.2858
   9923SM  C14S13428   0.624   0.663   4.669 -0.0721 -0.0989 -0.4383
   9923SM  H14S13429   0.708   0.647   4.739  0.4922 -1.9802 -1.4714
   9923SM  H14T13430   0.563   0.571   4.667  0.4883 -0.4846 -0.1169
   9923SM  C15S13431   0.552   0.786   4.725 -0.1629 -0.4001  0.5875
   9923SM  H15S13432   0.462   0.783   4.660 -0.0035  1.4864  0.2057
   9923SM  H15T13433   0.621   0.871   4.705  0.7302 -1.0820  0.6831
   9923SM  C16S13434   0.509   0.782   4.872 -0.4799 -0.2970 -0.0168
   9923SM  H16S13435   0.429   0.859   4.880 -2.4144 -2.2289  0.1915
   9923SM  H16T13436   0.594   0.811   4.938  0.2408  0.5360 -1.2739
   9923SM  C17S13437   0.439   0.660   4.928 -0.1888  0.1692 -0.8235
   9923SM  H17S13438   0.507   0.572   4.924  0.7496  0.8708 -0.5605
   9923SM  H17T13439   0.355   0.650   4.856 -1.3184 -0.3751  0.5192
   9923SM  C18S13440   0.387   0.675   5.068 -0.2631  0.1335 -0.3563
   9923SM  H18S13441   0.341   0.774   5.091  0.5776 -0.2053  3.5439
   9923SM  H18T13442   0.468   0.668   5.144 -2.0636 -0.7623  1.6027
   9923SM  H18U13443   0.310   0.598   5.087 -2.9190  2.0662 -2.5818
   9923SM   C1F13444   1.528  -0.118   3.869  0.0397 -0.8918 -0.1622
   9923SM    OF13445   1.621  -0.108   3.783  0.2892 -0.3468 -0.4210
   9923SM   C2F13446   1.547  -0.211   3.985 -0.6328 -0.5022  0.5187
   9923SM   H2F13447   1.588  -0.306   3.944 -0.6234  0.1946 -1.1406
   9923SM   H2G13448   1.453  -0.250   4.028 -0.5142  0.2195  1.4588
   9923SM   C3F13449   1.642  -0.170   4.106  0.0537  0.6185 -0.0211
   9923SM   H3F13450   1.640  -0.254   4.178 -1.9024  0.3173 -0.3795
   9923SM   H3G13451   1.608  -0.074   4.151  0.6208  1.0160 -0.4139
   9923SM   C4F13452   1.791  -0.147   4.060  0.2575 -0.1968 -0.5097
   9923SM   H4F13453   1.811  -0.057   3.998  0.0313  1.0766  1.2124
   9923SM   H4G13454   1.811  -0.227   3.985  2.7015  1.1012 -1.3377
   9923SM   C5F13455   1.884  -0.149   4.182  0.6794 -0.4481  0.3943
   9923SM   H5F13456   1.992  -0.134   4.159  0.7134  1.0269  1.3788
   9923SM   H5G13457   1.872  -0.249   4.228 -0.4152 -0.0723  0.9587
   9923SM   C6F13458   1.843  -0.049   4.295 -0.7730 -0.0784 -0.1755
   9923SM   H6F13459   1.757  -0.081   4.357 -0.0528 -0.1276  0.8372
   9923SM   H6G13460   1.811   0.043   4.242 -0.4697  0.9062  1.2630
   9923SM   C7F13461   1.959   0.009   4.379  0.4043 -0.7662  0.0282
   9923SM   H7F13462   2.040   0.064   4.328 -1.6214  2.5505  0.1501
   9923SM   H7G13463   2.007  -0.081   4.425  0.3468 -0.1172  1.4151
   9923SM   C8F13464   1.910   0.101   4.488 -0.2942 -0.7096  0.1579
   9923SM   H8F13465   1.829   0.051   4.545 -1.4926 -1.3419 -1.9704
   9923SM   H8G13466   1.866   0.189   4.435 -1.9808 -1.3678  0.4130
   9923SM   C9F13467   2.022   0.157   4.580 -0.4998  0.2658 -0.4566
   9923SM   H9F13468   2.067   0.251   4.544 -0.4762  0.3257 -0.2690
   9923SM   H9G13469   2.094   0.074   4.596 -1.9085 -1.7253 -3.4508
   9923SM  C10F13470   1.965   0.179   4.719 -1.0501 -0.4706 -0.1650
   9923SM  H10F13471   1.894   0.100   4.750 -1.0098 -0.5193 -0.1956
   9923SM  H10G13472   1.907   0.273   4.718  1.3780  1.1446 -1.4802
   9923SM  C11F13473   2.069   0.209   4.825  0.0062  0.5146 -0.0764
   9923SM  H11F13474   2.114   0.301   4.780 -0.1224 -0.0884 -1.5018
   9923SM  H11G13475   2.142   0.126   4.832 -1.6256 -0.8843  0.9449
   9923SM  C12F13476   2.020   0.244   4.968 -0.4975  0.1567 -0.6979
   9923SM  H12F13477   1.932   0.311   4.965 -0.7667  0.0902  2.2442
   9923SM  H12G13478   2.097   0.304   5.022 -0.6859 -0.6495  0.4998
   9923SM  C13F13479   2.010   0.103   5.038  0.6229 -0.9869  0.4623
   9923SM  H13F13480   2.111   0.057   5.047  0.4335 -1.1961  1.8595
   9923SM  H13G13481   1.942   0.040   4.978 -2.0739  0.8479  1.4151
   9923SM  C14F13482   1.965   0.119   5.184 -0.2475  0.8422 -0.6284
   9923SM  H14F13483   1.925   0.019   5.213 -0.6794  1.5138  1.2543
   9923SM  H14G13484   1.875   0.182   5.198 -0.1335  0.7900  0.4194
   9923SM  C15F13485   2.075   0.170   5.285 -0.3935 -0.0249 -0.0560
   9923SM  H15F13486   2.103   0.275   5.265  0.7571  0.1608  2.2157
   9923SM  H15G13487   2.171   0.118   5.269  0.3284  0.2637  2.7513
   9923SM  C16F13488   2.035   0.141   5.432  0.0481  0.0954  0.3976
   9923SM  H16F13489   2.058   0.037   5.465 -0.9004 -0.6331 -1.1359
   9923SM  H16G13490   1.924   0.144   5.431 -0.0475  0.4436  3.0098
   9923SM  C17F13491   2.080   0.256   5.531  0.6726 -0.2123 -0.0078
   9923SM  H17F13492   2.040   0.236   5.632 -0.8892 -0.3977 -0.6247
   9923SM  H17G13493   2.025   0.345   5.494 -0.6675 -0.8172  0.4600
   9923SM  C18F13494   2.228   0.284   5.542 -0.2310  0.4623  0.3859
   9923SM  H18F13495   2.233   0.395   5.552  0.2000  0.3667  1.4031
   9923SM  H18G13496   2.281   0.256   5.449 -0.2022 -4.2020  1.5712
   9923SM  C19F13497   2.301   0.211   5.660 -0.2258  0.0247  0.3154
   9923SM  H19F13498   2.298   0.101   5.644  0.5962 -0.1457  1.2842
   9923SM  H19G13499   2.252   0.233   5.757 -0.3699  2.1037 -0.1783
   9923SM  C20F13500   2.454   0.242   5.650  0.4330 -0.0551  0.3446
   9923SM  H20F13501   2.465   0.352   5.664 -0.9463  0.1158  0.1951
   9923SM  H20G13502   2.481   0.214   5.546  0.7286  1.4852 -0.0213
   9923SM  C21F13503   2.533   0.176   5.765 -0.4247  0.1296  0.2783
   9923SM  H21F13504   2.641   0.174   5.739 -0.4100  0.3695  0.3232
   9923SM  H21G13505   2.498   0.071   5.775 -0.4881 -0.0650 -1.6686
   9923SM  C22F13506   2.526   0.246   5.900  0.2560  0.4841  0.5008
   9923SM  H22F13507   2.425   0.238   5.945 -0.1698  1.0067 -0.3262
   9923SM  H22G13508   2.567   0.349   5.889  0.2919  0.3330 -1.0685
   9923SM  C23F13509   2.613   0.187   6.013 -0.4035  0.3948 -0.4832
   9923SM  H23F13510   2.613   0.076   6.015  0.8475  0.3744 -0.9208
   9923SM  H23G13511   2.591   0.231   6.113 -0.4661  0.5354 -0.5584
   9923SM  H23H13512   2.720   0.212   6.000  0.2189 -2.0953 -0.5515
  10023SM     N13513   0.172   0.082   3.032  0.7064  0.5286  0.3637
  10023SM   C1513514   0.136  -0.045   3.087  0.0045 -0.9182 -0.3050
  10023SM  H15A13515   0.061  -0.092   3.025  1.0791 -1.5601 -1.1467
  10023SM  H15B13516   0.088  -0.038   3.184  1.9402  0.5420  0.6135
  10023SM  H15C13517   0.224  -0.106   3.090  0.1108 -0.7514  2.4874
  10023SM   C1413518   0.214   0.054   2.893 -0.0083  0.2843  0.2053
  10023SM  H14A13519   0.153  -0.024   2.851  0.3089  1.5838 -2.9537
  10023SM  H14B13520   0.317   0.021   2.890 -0.2225 -0.4588  0.7217
  10023SM  H14C13521   0.196   0.140   2.831  0.2841  0.7634  0.7659
  10023SM   C1313522   0.049   0.173   3.017  0.1332  0.6965  0.1685
  10023SM  H13A13523   0.006   0.193   3.115 -0.0083 -0.5505  0.3709
  10023SM  H13B13524  -0.028   0.120   2.962 -0.6854  1.3189  0.6791
  10023SM  H13C13525   0.067   0.266   2.966 -0.2183 -0.6071 -2.4667
  10023SM   C1213526   0.266   0.155   3.119  0.0701 -0.1640 -0.0428
  10023SM  H12A13527   0.222   0.150   3.217  1.4955  0.0568  0.6384
  10023SM  H12B13528   0.264   0.259   3.089 -2.8666 -0.3790 -0.8849
  10023SM   C1113529   0.415   0.116   3.120  0.0484  1.0891  0.2635
  10023SM  H11A13530   0.489   0.189   3.159  1.6903  0.2834 -1.2329
  10023SM  H11B13531   0.445   0.104   3.014 -2.2075  0.6376 -0.3687
  10023SM     P13532   0.543  -0.095   3.211 -0.1217 -0.0714  0.1560
  10023SM   O1313533   0.500  -0.238   3.204  0.1536  0.1574 -0.1522
  10023SM   O1413534   0.662  -0.051   3.132 -0.3679  0.6862  1.0147
  10023SM   O1113535   0.571  -0.062   3.364 -0.1468  0.7914 -0.5307
  10023SM   O1213536   0.417  -0.009   3.187 -0.6634  0.4740  0.3457
  10023SM   C1S13537   0.541   0.063   3.421  0.7912 -0.3886  0.2952
  10023SM   H1S13538   0.436   0.095   3.402  1.1145 -0.0784 -1.0642
  10023SM   H1T13539   0.599   0.137   3.361 -0.6592  0.1445 -0.5074
  10023SM    NF13540   0.493   0.193   3.622  0.2393  0.4239 -0.6582
  10023SM   HNF13541   0.549   0.275   3.616  2.4831 -1.0282 -1.2551
  10023SM   C2S13542   0.567   0.076   3.574  0.1681 -0.4452 -0.4229
  10023SM   H2S13543   0.527  -0.015   3.624 -0.5822 -0.3486 -0.8343
  10023SM   C3S13544   0.719   0.083   3.602 -0.3158 -0.3111  0.2264
  10023SM   H3S13545   0.764   0.164   3.540  0.4128 -0.6238  0.3465
  10023SM    O313546   0.794  -0.032   3.551 -0.2646  0.7905 -0.3052
  10023SM   HO313547   0.732  -0.075   3.492  2.0495 -4.4814  0.4674
  10023SM   C4S13548   0.746   0.101   3.745  0.3353  0.0340  0.1628
  10023SM   H4S13549   0.666   0.059   3.807 -0.3361  2.6351  1.2154
  10023SM   C5S13550   0.849   0.163   3.813 -0.1222  0.2319 -0.2044
  10023SM   H5S13551   0.934   0.190   3.748 -0.0036  0.4725  0.0472
  10023SM   C6S13552   0.863   0.177   3.964  0.2218  0.2064  0.5941
  10023SM   H6S13553   0.877   0.281   4.000  4.3462  0.2283 -0.6224
  10023SM   H6T13554   0.941   0.108   4.001  0.3470  1.1233  2.1522
  10023SM   C7S13555   0.737   0.134   4.051  0.3540 -0.6138  0.2423
  10023SM   H7S13556   0.721   0.026   4.031 -2.4009 -0.0468 -0.9385
  10023SM   H7T13557   0.647   0.181   4.008  1.3015  0.2598 -0.8652
  10023SM   C8S13558   0.742   0.156   4.207  0.1439 -0.0377  0.4816
  10023SM   H8S13559   0.705   0.260   4.223 -1.9053 -0.7087  0.3435
  10023SM   H8T13560   0.850   0.151   4.232  0.0959  0.3759  0.7920
  10023SM   C9S13561   0.680   0.047   4.291 -0.4939  0.4444 -0.2024
  10023SM   H9S13562   0.721  -0.053   4.262 -1.2421  0.3566 -0.9963
  10023SM   H9T13563   0.572   0.053   4.268  0.0457  1.8344 -2.7479
  10023SM  C10S13564   0.704   0.076   4.444  0.0743 -0.4914  0.4418
  10023SM  H10S13565   0.672   0.178   4.473 -0.7131 -1.1354  2.0012
  10023SM  H10T13566   0.815   0.084   4.453 -0.0428  0.3101  1.4299
  10023SM  C11S13567   0.656  -0.035   4.540 -0.2273  0.0854  0.3872
  10023SM  H11S13568   0.683  -0.136   4.502 -4.1089 -0.4141 -1.6367
  10023SM  H11T13569   0.546  -0.023   4.529 -0.0278  1.9533  0.1045
  10023SM  C12S13570   0.707  -0.021   4.685 -0.0529  0.7743  0.5868
  10023SM  H12S13571   0.817  -0.018   4.676 -0.0163 -1.2853 -0.2223
  10023SM  H12T13572   0.671  -0.111   4.739  1.0379 -0.5386 -0.7830
  10023SM  C13S13573   0.663   0.105   4.753  0.4527 -0.4049 -0.3618
  10023SM  H13S13574   0.553   0.108   4.742  0.4652 -1.1395 -0.8152
  10023SM  H13T13575   0.713   0.194   4.709  3.9736 -2.2197 -0.3868
  10023SM  C14S13576   0.685   0.091   4.902 -0.0942  0.5951  0.7919
  10023SM  H14S13577   0.781   0.042   4.926 -0.5072  0.0167  1.2826
  10023SM  H14T13578   0.611   0.022   4.949  1.4185 -1.8169 -0.2007
  10023SM  C15S13579   0.670   0.234   4.968 -1.1516 -0.1061  0.5703
  10023SM  H15S13580   0.563   0.259   4.946 -1.0523  1.8157  1.9636
  10023SM  H15T13581   0.735   0.305   4.913 -1.6246 -0.0791  0.0285
  10023SM  C16S13582   0.701   0.232   5.120  0.5451  0.0149 -0.0259
  10023SM  H16S13583   0.806   0.199   5.137  0.3212 -2.6170 -2.8391
  10023SM  H16T13584   0.626   0.163   5.165 -0.2452  0.4599 -0.6332
  10023SM  C17S13585   0.677   0.368   5.182  0.4640  0.0403  0.0052
  10023SM  H17S13586   0.571   0.398   5.164  1.2397  1.6915 -2.3911
  10023SM  H17T13587   0.729   0.453   5.133 -0.0039 -0.2095 -0.9437
  10023SM  C18S13588   0.710   0.377   5.336 -0.7824  0.1134  0.3574
  10023SM  H18S13589   0.814   0.343   5.354 -0.5133 -0.0002 -1.2533
  10023SM  H18T13590   0.622   0.333   5.387 -1.3266  1.3638  0.5343
  10023SM  H18U13591   0.712   0.486   5.359  1.3662 -0.0673  1.2826
  10023SM   C1F13592   0.364   0.187   3.630 -0.3165  0.0872  0.0278
  10023SM    OF13593   0.308   0.081   3.606  0.0783 -0.3636 -0.2476
  10023SM   C2F13594   0.290   0.312   3.669 -0.2893  0.0206  0.7862
  10023SM   H2F13595   0.226   0.348   3.585 -0.6119 -0.8107  0.6670
  10023SM   H2G13596   0.356   0.398   3.694  1.6533 -1.4617  0.9699
  10023SM   C3F13597   0.210   0.290   3.798 -0.7152  0.0840  0.1915
  10023SM   H3F13598   0.120   0.233   3.767  0.2585 -2.6860  2.1119
  10023SM   H3G13599   0.176   0.393   3.822  1.1981  0.8947 -0.3830
  10023SM   C4F13600   0.294   0.238   3.911  0.0910  0.1609  0.2341
  10023SM   H4F13601   0.382   0.304   3.920 -1.4877  2.2078  1.4886
  10023SM   H4G13602   0.333   0.134   3.910  0.8119  0.3794  2.2053
  10023SM   C5F13603   0.215   0.250   4.044  0.2526 -0.1174 -0.3202
  10023SM   H5F13604   0.151   0.159   4.050  1.4166 -0.8762  2.5535
  10023SM   H5G13605   0.152   0.341   4.049  0.1148 -0.2005 -0.5702
  10023SM   C6F13606   0.311   0.252   4.164 -0.2239  0.9841  0.2562
  10023SM   H6F13607   0.409   0.262   4.112 -0.4414 -0.4317 -0.4656
  10023SM   H6G13608   0.324   0.158   4.221  0.7309  0.0433 -1.4233
  10023SM   C7F13609   0.288   0.372   4.256 -0.2405 -1.5123 -0.2101
  10023SM   H7F13610   0.189   0.358   4.304  1.5358 -0.4619  4.3434
  10023SM   H7G13611   0.278   0.473   4.212  0.0245 -1.6444 -0.5785
  10023SM   C8F13612   0.400   0.379   4.359 -0.5308 -0.1844 -0.1817
  10023SM   H8F13613   0.430   0.485   4.364 -1.0572  0.0846 -2.0015
  10023SM   H8G13614   0.486   0.324   4.314  0.0681 -0.0010  0.7197
  10023SM   C9F13615   0.370   0.329   4.501 -0.4203 -0.1413 -0.0647
  10023SM   H9F13616   0.463   0.337   4.562  0.4952  1.7838 -1.5603
  10023SM   H9G13617   0.339   0.223   4.496 -2.1039  0.3196  0.0892
  10023SM  C10F13618   0.263   0.408   4.573 -0.6175 -0.2857 -0.6681
  10023SM  H10F13619   0.157   0.394   4.543 -0.9241 -2.7188  1.2621
  10023SM  H10G13620   0.280   0.517   4.558 -0.2598 -0.1957  0.3335
  10023SM  C11F13621   0.274   0.387   4.722  1.0141  0.1978 -0.6510
  10023SM  H11F13622   0.205   0.466   4.760  0.3737 -0.3605 -0.6362
  10023SM  H11G13623   0.380   0.401   4.753  0.5780  1.2159  0.4997
  10023SM  C12F13624   0.213   0.254   4.771  0.2523  0.4052  0.5496
  10023SM  H12F13625   0.276   0.168   4.739 -0.8352  1.2534 -4.9274
  10023SM  H12G13626   0.113   0.246   4.724  0.0426  2.3079  0.5822
  10023SM  C13F13627   0.206   0.236   4.925 -0.5795  0.3076  0.1078
  10023SM  H13F13628   0.142   0.320   4.959 -1.9025  0.1493 -1.8404
  10023SM  H13G13629   0.298   0.275   4.973  0.1482  0.6792 -1.5062
  10023SM  C14F13630   0.181   0.098   4.982  0.8156  0.5931  0.5433
  10023SM  H14F13631   0.100   0.046   4.926  1.0161 -1.7098  2.2780
  10023SM  H14G13632   0.153   0.106   5.089  1.3831 -0.3258  0.7659
  10023SM  C15F13633   0.300  -0.002   4.979 -0.0612  0.1375  0.0677
  10023SM  H15F13634   0.379   0.047   5.039  1.8693  0.0457 -2.2434
  10023SM  H15G13635   0.352   0.019   4.883  0.8391 -0.1799  0.4837
  10023SM  C16F13636   0.264  -0.147   4.992 -0.3701  0.0241  0.0459
  10023SM  H16F13637   0.200  -0.184   4.909  2.4307 -0.1276 -2.1775
  10023SM  H16G13638   0.204  -0.164   5.084  2.1613 -0.7474  1.6668
  10023SM  C17F13639   0.379  -0.253   5.002 -0.5190 -0.1488  0.5208
  10023SM  H17F13640   0.422  -0.266   4.901 -0.6238 -0.2281  0.4859
  10023SM  H17G13641   0.331  -0.351   5.020 -1.7484  0.3523  0.0846
  10023SM  C18F13642   0.485  -0.211   5.108  0.0528  0.5154 -0.1130
  10023SM  H18F13643   0.518  -0.106   5.093 -1.8576  1.2347  0.3272
  10023SM  H18G13644   0.567  -0.286   5.100 -1.6063 -1.5258  0.9651
  10023SM  C19F13645   0.425  -0.215   5.250 -0.6371 -0.1368  0.5605
  10023SM  H19F13646   0.499  -0.256   5.322 -0.1926  2.0745  1.4481
  10023SM  H19G13647   0.344  -0.291   5.245  0.2000 -0.9490 -2.0634
  10023SM  C20F13648   0.372  -0.086   5.310 -0.4668 -0.1062  0.1872
  10023SM  H20F13649   0.277  -0.057   5.259 -0.6435 -1.0930 -0.0611
  10023SM  H20G13650   0.443  -0.003   5.288  0.6159 -0.4289  2.2523
  10023SM  C21F13651   0.339  -0.076   5.460  0.4459 -0.1451  0.8395
  10023SM  H21F13652   0.411  -0.021   5.523 -0.7920 -0.5966  2.7618
  10023SM  H21G13653   0.322  -0.177   5.505  1.1549 -0.0971  1.2204
  10023SM  C22F13654   0.192  -0.024   5.482 -0.0198  0.6126  0.3821
  10023SM  H22F13655   0.125  -0.089   5.421 -0.3430  0.2448  1.1170
  10023SM  H22G13656   0.190   0.078   5.438 -0.1736  0.0450 -1.0128
  10023SM  C23F13657   0.145  -0.036   5.628  0.1286 -0.2892  0.1917
  10023SM  H23F13658   0.126  -0.144   5.644  0.6321 -0.3436  0.4392
  10023SM  H23G13659   0.051   0.023   5.625  0.2733 -0.0020  0.9439
  10023SM  H23H13660   0.222   0.005   5.697  1.7994  0.8306 -2.2026
  101CHL1    C313661   5.629   4.542   6.966  0.4770 -0.3072 -0.1920
  101CHL1    H313662   5.540   4.484   6.999  0.3598  0.8947  1.7804
  101CHL1    O313663   5.683   4.597   7.082  0.1159  0.0272 -0.0487
  101CHL1   H3'13664   5.768   4.631   7.056  0.2525  0.4153  0.8483
  101CHL1    C413665   5.737   4.466   6.886 -1.1798  0.1518 -0.1202
  101CHL1   H4A13666   5.827   4.526   6.863  1.7350 -3.6858  0.1810
  101CHL1   H4B13667   5.765   4.386   6.959 -0.2187 -1.3714 -2.0668
  101CHL1    C513668   5.676   4.403   6.762 -0.3439  0.4565 -0.1588
  101CHL1    C613669   5.694   4.274   6.742 -0.0152 -0.7268  0.6259
  101CHL1    H613670   5.754   4.215   6.813  0.5897  2.0508  2.5861
  101CHL1    C713671   5.658   4.213   6.607  1.2117  0.0624 -0.0784
  101CHL1   H7A13672   5.745   4.148   6.580  2.3658  2.0016 -1.1955
  101CHL1   H7B13673   5.571   4.144   6.618  1.9961 -1.0102 -0.3556
  101CHL1    C813674   5.617   4.317   6.501  0.6292 -0.1216  0.5037
  101CHL1    H813675   5.708   4.358   6.454 -0.2307  2.4878  0.9753
  101CHL1   C1413676   5.543   4.246   6.384 -0.6241  0.0121 -0.5825
  101CHL1   H1413677   5.453   4.195   6.424  0.2001 -1.3249 -0.3482
  101CHL1   C1513678   5.612   4.124   6.318 -0.3798 -0.3715 -0.0130
  101CHL1  H15A13679   5.722   4.131   6.303 -0.4291 -0.6781 -0.5483
  101CHL1  H15B13680   5.598   4.033   6.380  0.8473 -1.3746 -1.1387
  101CHL1   C1613681   5.537   4.110   6.186 -0.1302 -0.2440 -0.0947
  101CHL1  H16A13682   5.623   4.109   6.115  1.7075 -1.0067  1.9948
  101CHL1  H16B13683   5.479   4.016   6.185 -1.0883  0.2655  2.2331
  101CHL1   C1713684   5.446   4.234   6.163 -0.1021 -0.3439  0.2926
  101CHL1   H1713685   5.357   4.189   6.212  1.2873 -1.4782  1.9075
  101CHL1   C1313686   5.509   4.336   6.269  0.8291 -0.7943 -0.1084
  101CHL1   C1813687   5.626   4.399   6.195 -0.0101 -0.3354 -0.3204
  101CHL1  H18A13688   5.702   4.331   6.151  1.6702  1.6218 -0.6233
  101CHL1  H18B13689   5.604   4.473   6.115  1.9871 -0.5836 -1.1553
  101CHL1  H18C13690   5.678   4.476   6.255  0.2949 -1.3397  0.7263
  101CHL1   C1213691   5.418   4.449   6.329  0.3333 -0.6554  0.0231
  101CHL1  H12A13692   5.376   4.528   6.263 -0.4196  1.6025  2.9570
  101CHL1  H12B13693   5.326   4.414   6.380  0.8011 -0.0954  1.3257
  101CHL1   C1113694   5.497   4.524   6.437  0.5780  0.3821 -0.2532
  101CHL1  H11A13695   5.590   4.573   6.402  0.8259 -0.6683 -1.1007
  101CHL1  H11B13696   5.426   4.600   6.477  0.7829  0.9202 -0.9026
  101CHL1    C913697   5.535   4.435   6.557 -0.4473  0.3081 -0.1412
  101CHL1    H913698   5.443   4.392   6.603 -0.4659 -0.4230 -0.8504
  101CHL1   C1013699   5.607   4.509   6.673 -0.1574  0.4898 -0.1977
  101CHL1   C1913700   5.715   4.608   6.619 -0.1686 -0.6028 -0.0440
  101CHL1  H19A13701   5.782   4.645   6.699 -2.0703 -2.4864  2.5646
  101CHL1  H19B13702   5.776   4.561   6.539  1.6762 -1.3236  1.6978
  101CHL1  H19C13703   5.665   4.698   6.577 -1.7011 -0.9836  0.8866
  101CHL1    C113704   5.497   4.593   6.752  0.7424 -0.3804 -0.6403
  101CHL1   H1A13705   5.472   4.680   6.689 -0.6054 -0.9889 -0.9915
  101CHL1   H1B13706   5.414   4.522   6.775 -0.9171  0.9392 -2.3157
  101CHL1    C213707   5.556   4.653   6.881 -0.2080  0.4466 -0.3540
  101CHL1   H2A13708   5.476   4.698   6.943  0.8822  0.8900  0.7665
  101CHL1   H2B13709   5.631   4.731   6.857 -1.6873  1.6913 -1.1003
  101CHL1   C2013710   5.433   4.260   6.017 -0.0132  0.7389 -0.0099
  101CHL1   H2013711   5.520   4.317   5.977  0.4235  0.5345  0.6298
  101CHL1   C2113712   5.324   4.364   6.011 -0.3687  0.7882 -0.3612
  101CHL1  H21A13713   5.353   4.465   6.046 -2.4592  1.6821 -1.0270
  101CHL1  H21B13714   5.237   4.335   6.075  0.5335 -0.3515  0.3848
  101CHL1  H21C13715   5.277   4.381   5.912 -1.6394  0.4969  0.1663
  101CHL1   C2213716   5.404   4.137   5.927  0.7268  0.6481  0.5763
  101CHL1  H22A13717   5.488   4.064   5.936 -0.6229 -1.3351 -1.7832
  101CHL1  H22B13718   5.312   4.083   5.955  0.6656  0.9249  0.9096
  101CHL1   C2313719   5.390   4.160   5.772  0.5352 -0.2181 -0.3289
  101CHL1  H23A13720   5.306   4.232   5.765 -0.4539 -1.4174 -1.4265
  101CHL1  H23B13721   5.474   4.221   5.731  0.4611  1.2132  1.5461
  101CHL1   C2413722   5.366   4.030   5.699 -0.4036  0.3523  0.7445
  101CHL1  H24A13723   5.440   3.956   5.738  0.2217  0.5959  0.0283
  101CHL1  H24B13724   5.262   4.001   5.725 -1.5411  3.8708  0.5147
  101CHL1   C2513725   5.388   4.037   5.550 -0.2514  0.8740 -0.1770
  101CHL1   H2513726   5.496   4.058   5.534  0.9876 -1.4438  3.7690
  101CHL1   C2613727   5.363   3.893   5.495  0.5602 -0.0858  0.2826
  101CHL1  H26A13728   5.361   3.891   5.384  0.0929  2.7199  0.1667
  101CHL1  H26B13729   5.444   3.827   5.531 -0.4310 -1.8626 -0.5688
  101CHL1  H26C13730   5.261   3.867   5.532 -0.3550  2.1735 -0.4577
  101CHL1   C2713731   5.303   4.146   5.480  0.1670  0.0964  0.4991
  101CHL1  H27A13732   5.324   4.249   5.518  1.0713 -0.3726  1.3226
  101CHL1  H27B13733   5.316   4.145   5.370 -0.6779  1.3633  0.3675
  101CHL1  H27C13734   5.199   4.122   5.509  0.6253 -0.1607  2.0294
  102CHL1    C313735   3.507   6.129   6.404 -0.0165 -1.0842  0.5888
  102CHL1    H313736   3.586   6.201   6.374 -1.0741 -0.6014 -1.1767
  102CHL1    O313737   3.508   6.108   6.546  0.1360  0.1915  0.0319
  102CHL1   H3'13738   3.432   6.049   6.551 -0.5935  1.1218  0.0881
  102CHL1    C413739   3.378   6.198   6.367  0.0199 -0.3813  0.3415
  102CHL1   H4A13740   3.294   6.132   6.398  0.2024 -1.0227 -0.4808
  102CHL1   H4B13741   3.371   6.290   6.428 -0.0548 -0.6046  0.6724
  102CHL1    C513742   3.356   6.217   6.219  0.1263  0.0538  0.0259
  102CHL1    C613743   3.340   6.338   6.164  0.6172 -0.0890 -0.2716
  102CHL1    H613744   3.324   6.421   6.235 -0.7295 -0.6630  0.1264
  102CHL1    C713745   3.327   6.356   6.018  0.2542 -0.2657 -0.4670
  102CHL1   H7A13746   3.251   6.430   5.988 -1.5002 -1.8709 -0.1823
  102CHL1   H7B13747   3.424   6.397   5.983 -0.4376  2.0813  0.1867
  102CHL1    C813748   3.313   6.239   5.929 -0.4353  0.5940  0.0438
  102CHL1    H813749   3.207   6.209   5.937  0.3566 -3.3603 -1.7236
  102CHL1   C1413750   3.351   6.273   5.790 -0.6425  0.5126 -0.0318
  102CHL1   H1413751   3.458   6.304   5.787 -0.9891  1.6791 -0.4050
  102CHL1   C1513752   3.277   6.384   5.720 -0.8134  0.2575  0.2007
  102CHL1  H15A13753   3.171   6.375   5.751 -0.9631 -1.8904 -0.7697
  102CHL1  H15B13754   3.318   6.480   5.759  1.3598 -0.3861 -0.3129
  102CHL1   C1613755   3.294   6.358   5.563 -0.0286 -0.3040 -0.2951
  102CHL1  H16A13756   3.192   6.367   5.521  1.1336  1.6964 -3.0056
  102CHL1  H16B13757   3.364   6.434   5.522 -0.1291  0.2983  0.6310
  102CHL1   C1713758   3.368   6.223   5.561  0.1425  0.1614  0.2187
  102CHL1   H1713759   3.477   6.241   5.565  0.0594  1.3654 -1.7366
  102CHL1   C1313760   3.336   6.153   5.695 -0.2032  0.1081 -1.4815
  102CHL1   C1813761   3.183   6.095   5.691  0.1427 -0.3024  1.1042
  102CHL1  H18A13762   3.106   6.163   5.649 -0.0317 -1.1376  0.0437
  102CHL1  H18B13763   3.175   5.999   5.636 -0.9632 -0.1654  0.9965
  102CHL1  H18C13764   3.142   6.066   5.790 -1.6147 -0.0623  0.4800
  102CHL1   C1213765   3.430   6.043   5.737 -0.5484  0.2566  0.3683
  102CHL1  H12A13766   3.429   5.954   5.671 -0.5123  1.0469 -0.7414
  102CHL1  H12B13767   3.536   6.075   5.741  0.4722 -2.2525 -2.7887
  102CHL1   C1113768   3.394   5.994   5.876 -0.6648 -0.2398 -0.7474
  102CHL1  H11A13769   3.295   5.945   5.869 -0.2488 -0.9732 -1.6183
  102CHL1  H11B13770   3.469   5.918   5.906 -0.5318 -0.0986 -0.7195
  102CHL1    C913771   3.398   6.121   5.972 -0.0713 -0.1823 -0.3824
  102CHL1    H913772   3.503   6.157   5.971 -0.5765  1.3945  0.1972
  102CHL1   C1013773   3.377   6.091   6.126 -0.1145  0.6034 -0.2387
  102CHL1   C1913774   3.257   6.000   6.147  0.1674 -0.7349  0.0593
  102CHL1  H19A13775   3.159   6.044   6.114  1.2703  2.7328  0.9257
  102CHL1  H19B13776   3.261   5.906   6.088  0.3351 -0.9072  0.3432
  102CHL1  H19C13777   3.244   5.966   6.251 -2.8743 -1.2059 -0.3816
  102CHL1    C113778   3.508   6.010   6.175  0.5589 -0.3591  0.5658
  102CHL1   H1A13779   3.508   5.913   6.120  1.5438  0.2145 -0.4865
  102CHL1   H1B13780   3.595   6.068   6.137  1.1775 -1.8362 -0.3814
  102CHL1    C213781   3.521   5.994   6.327 -0.3505 -0.6987 -0.7814
  102CHL1   H2A13782   3.626   5.962   6.347  0.3286  2.0016  0.4431
  102CHL1   H2B13783   3.449   5.914   6.353 -1.5798  0.9249  1.0764
  102CHL1   C2013784   3.343   6.132   5.437  0.0047 -0.6780 -0.2894
  102CHL1   H2013785   3.337   6.030   5.479 -1.8945 -0.1281  0.9101
  102CHL1   C2113786   3.471   6.129   5.338  0.7114  0.1672 -0.7562
  102CHL1  H21A13787   3.564   6.116   5.398  0.4778  1.1785 -0.1548
  102CHL1  H21B13788   3.485   6.233   5.301  2.8206  0.3367  0.3523
  102CHL1  H21C13789   3.462   6.058   5.253  1.5081 -1.4059  0.4152
  102CHL1   C2213790   3.225   6.166   5.356 -0.6134 -0.2193  0.6428
  102CHL1  H22A13791   3.138   6.173   5.425  0.0229 -2.2299  1.7476
  102CHL1  H22B13792   3.235   6.260   5.298  0.5881 -0.5646  0.2638
  102CHL1   C2313793   3.176   6.058   5.260 -0.1584 -0.5181  0.1718
  102CHL1  H23A13794   3.247   6.057   5.175  0.9064 -0.2148  1.0394
  102CHL1  H23B13795   3.168   5.961   5.315 -1.1250 -0.1363  0.7187
  102CHL1   C2413796   3.035   6.093   5.206  0.0704 -0.1140 -0.5548
  102CHL1  H24A13797   2.967   6.092   5.293  0.7832  1.4191  0.0552
  102CHL1  H24B13798   3.045   6.195   5.162 -0.6789  0.2040 -0.0134
  102CHL1   C2513799   2.968   6.008   5.097 -0.6550  0.3862 -0.1429
  102CHL1   H2513800   2.865   6.049   5.094 -1.6810 -1.8261  1.5936
  102CHL1   C2613801   3.051   6.021   4.970  0.6280  0.5305  0.4830
  102CHL1  H26A13802   3.067   6.130   4.954 -2.0982  1.2421  1.9246
  102CHL1  H26B13803   3.144   5.961   4.978 -0.7508 -1.8009  0.0439
  102CHL1  H26C13804   2.994   5.979   4.884  0.9951  0.0459  0.4713
  102CHL1   C2713805   2.953   5.870   5.155  0.0104  0.1102 -0.7260
  102CHL1  H27A13806   2.905   5.876   5.255 -1.6817 -0.4532 -1.4514
  102CHL1  H27B13807   2.885   5.808   5.092 -1.6097  1.0790  0.0120
  102CHL1  H27C13808   3.051   5.819   5.166 -0.4010 -0.7812 -1.0275
  103CHL1    C313809   4.664   2.731   6.810  0.7820  0.3981  0.2448
  103CHL1    H313810   4.675   2.624   6.786  1.7037  0.4290  0.5017
  103CHL1    O313811   4.691   2.757   6.955 -0.1567 -0.6465  0.3415
  103CHL1   H3'13812   4.680   2.852   6.964 -0.8432 -0.7884  1.1323
  103CHL1    C413813   4.760   2.816   6.728 -0.3038  0.1387  0.0566
  103CHL1   H4A13814   4.756   2.915   6.780 -2.8593  1.3346 -2.1782
  103CHL1   H4B13815   4.861   2.771   6.737  0.4692  1.6610 -0.6385
  103CHL1    C513816   4.714   2.842   6.583  0.1078 -0.0393  0.2429
  103CHL1    C613817   4.801   2.813   6.489  0.0842 -0.0480  0.2380
  103CHL1    H613818   4.907   2.791   6.504  0.0102 -0.5990 -0.0151
  103CHL1    C713819   4.778   2.827   6.345  0.0981 -0.2226  0.4120
  103CHL1   H7A13820   4.867   2.863   6.289 -0.6525  1.0153 -0.0332
  103CHL1   H7B13821   4.767   2.724   6.306 -0.1067  0.0849 -0.3654
  103CHL1    C813822   4.649   2.903   6.306  0.4025 -0.0106  0.2582
  103CHL1    H813823   4.657   3.013   6.319  0.8312  0.4088 -2.8500
  103CHL1   C1413824   4.596   2.871   6.164  0.8219 -0.5061  0.2579
  103CHL1   H1413825   4.584   2.760   6.164 -0.0638 -0.4176  0.5561
  103CHL1   C1513826   4.695   2.905   6.054 -0.1692  0.3375  0.6211
  103CHL1  H15A13827   4.727   3.010   6.065  0.4697  0.1476  0.6043
  103CHL1  H15B13828   4.780   2.835   6.040 -0.0068  0.3765  1.3652
  103CHL1   C1613829   4.604   2.910   5.929 -0.0371 -0.3658 -1.1240
  103CHL1  H16A13830   4.638   3.001   5.876  1.1698  0.3900  0.8250
  103CHL1  H16B13831   4.636   2.823   5.868 -0.8352  0.3012 -2.5285
  103CHL1   C1713832   4.455   2.901   5.978  0.1122  0.2974 -0.1946
  103CHL1   H1713833   4.431   2.793   5.975  2.1450 -0.2967  2.0685
  103CHL1   C1313834   4.459   2.929   6.133 -0.8332 -0.1448  0.7076
  103CHL1   C1813835   4.468   3.087   6.147  0.1861 -0.2425 -0.3372
  103CHL1  H18A13836   4.525   3.139   6.068  0.1121  0.1721 -0.1217
  103CHL1  H18B13837   4.365   3.128   6.135  1.0787  1.6889 -1.9509
  103CHL1  H18C13838   4.502   3.119   6.248 -1.3656 -0.0355  0.1624
  103CHL1   C1213839   4.360   2.863   6.226  0.1294 -0.6837 -0.0289
  103CHL1  H12A13840   4.252   2.884   6.209 -0.1049 -1.0662  0.9038
  103CHL1  H12B13841   4.364   2.753   6.219 -1.3301 -0.8911  1.6017
  103CHL1   C1113842   4.395   2.895   6.374  0.2409  0.2308  0.2683
  103CHL1  H11A13843   4.382   3.004   6.389 -3.2694 -0.1616  1.0528
  103CHL1  H11B13844   4.310   2.849   6.429 -0.9719  1.5837 -0.4250
  103CHL1    C913845   4.537   2.854   6.404 -0.3015  0.5417 -0.3189
  103CHL1    H913846   4.542   2.744   6.387 -0.9577  0.2028  1.4959
  103CHL1   C1013847   4.567   2.865   6.556 -0.1744  0.0069  0.4659
  103CHL1   C1913848   4.538   3.016   6.595 -0.4973 -0.2301 -0.2034
  103CHL1  H19A13849   4.582   3.090   6.525 -1.5013  1.9297  1.3438
  103CHL1  H19B13850   4.428   3.027   6.604 -0.2218  0.9601  2.5956
  103CHL1  H19C13851   4.582   3.026   6.697 -0.5415 -0.3479 -0.1733
  103CHL1    C113852   4.486   2.754   6.640  0.1393  0.0083  0.1189
  103CHL1   H1A13853   4.380   2.760   6.609 -0.3547 -0.4465  1.6342
  103CHL1   H1B13854   4.523   2.655   6.606  0.6063  0.2334 -0.0352
  103CHL1    C213855   4.509   2.768   6.792 -0.8908 -0.2701 -0.0405
  103CHL1   H2A13856   4.448   2.690   6.843 -0.0224 -1.4817 -0.8162
  103CHL1   H2B13857   4.493   2.870   6.833 -0.2767  0.4879 -1.5964
  103CHL1   C2013858   4.356   2.985   5.894 -0.2589 -0.0543  0.1722
  103CHL1   H2013859   4.364   3.095   5.905 -1.0788 -0.1544  2.0918
  103CHL1   C2113860   4.215   2.951   5.940  0.0368  0.0451  0.0177
  103CHL1  H21A13861   4.140   3.007   5.880  0.1804 -0.6795 -0.8500
  103CHL1  H21B13862   4.199   2.993   6.042 -0.9718  0.0205 -0.1286
  103CHL1  H21C13863   4.199   2.842   5.936 -2.2722  0.3092  0.5077
  103CHL1   C2213864   4.380   2.946   5.744 -0.6785  0.6479 -0.6348
  103CHL1  H22A13865   4.479   2.987   5.713  0.3138  0.4697  2.0267
  103CHL1  H22B13866   4.383   2.836   5.735 -0.2752  0.6932 -1.1139
  103CHL1   C2313867   4.269   3.007   5.651 -0.0173 -0.2457  0.7100
  103CHL1  H23A13868   4.171   2.961   5.674 -0.9567 -0.5022 -3.1900
  103CHL1  H23B13869   4.282   3.117   5.657  0.6371 -0.2873  0.2408
  103CHL1   C2413870   4.298   2.977   5.505  0.9223  0.0575 -0.0171
  103CHL1  H24A13871   4.401   3.009   5.482  0.3962  2.5151  0.6928
  103CHL1  H24B13872   4.296   2.866   5.499  2.1493 -0.0207  0.6357
  103CHL1   C2513873   4.191   3.048   5.413  0.4074 -0.0297 -0.9688
  103CHL1   H2513874   4.098   3.056   5.473  0.9570  2.8138 -0.3462
  103CHL1   C2613875   4.242   3.192   5.365 -0.3118  0.7308  0.0471
  103CHL1  H26A13876   4.340   3.187   5.312  0.8674 -0.9754  2.2197
  103CHL1  H26B13877   4.176   3.232   5.285 -0.5908 -0.7860 -0.5122
  103CHL1  H26C13878   4.245   3.262   5.451 -1.7767  0.3484  0.4413
  103CHL1   C2713879   4.154   2.964   5.294 -0.1521 -0.5019  0.4404
  103CHL1  H27A13880   4.126   2.861   5.324 -0.0804 -0.0688  2.1160
  103CHL1  H27B13881   4.064   3.003   5.243  1.4013  1.3573 -1.0176
  103CHL1  H27C13882   4.232   2.960   5.216  0.6186  0.3120  1.1460
  104CHL1    C313883   6.615   5.382   6.460  0.2098 -0.0694  0.5081
  104CHL1    H313884   6.723   5.369   6.435  0.2090  0.1145  0.4074
  104CHL1    O313885   6.603   5.418   6.592  0.1507  0.1637  0.3505
  104CHL1   H3'13886   6.670   5.366   6.636 -0.1708 -0.5315  0.0250
  104CHL1    C413887   6.561   5.489   6.367 -0.4749 -1.1337  0.6636
  104CHL1   H4A13888   6.454   5.511   6.388  0.0805  2.7325  0.1349
  104CHL1   H4B13889   6.610   5.587   6.385 -2.4631  0.0012  0.1432
  104CHL1    C513890   6.580   5.453   6.220  0.0115 -0.2375  0.1197
  104CHL1    C613891   6.651   5.522   6.127  0.2388  0.8407 -0.5421
  104CHL1    H613892   6.697   5.616   6.160  0.3641 -0.1316  2.3512
  104CHL1    C713893   6.669   5.480   5.981 -0.2073 -0.3215 -0.1819
  104CHL1   H7A13894   6.661   5.569   5.915 -1.5559  2.0362  2.9218
  104CHL1   H7B13895   6.770   5.434   5.969  0.3069  0.2497  1.7134
  104CHL1    C813896   6.563   5.371   5.936 -0.8469 -0.1986  0.3023
  104CHL1    H813897   6.460   5.412   5.929 -2.3439 -3.3600  1.7527
  104CHL1   C1413898   6.615   5.303   5.806 -0.2641 -0.5558 -1.0294
  104CHL1   H1413899   6.713   5.255   5.828 -0.6144 -0.9069 -0.2015
  104CHL1   C1513900   6.645   5.394   5.692 -0.9145  0.0959  0.7216
  104CHL1  H15A13901   6.566   5.472   5.685 -1.0036  0.0395  1.0496
  104CHL1  H15B13902   6.743   5.443   5.701 -1.0243  0.7037 -0.9939
  104CHL1   C1613903   6.645   5.308   5.564 -0.2772  0.8111 -0.3653
  104CHL1  H16A13904   6.574   5.342   5.485 -1.7094 -0.8845  0.1129
  104CHL1  H16B13905   6.750   5.300   5.528 -0.8320 -2.1362 -1.6526
  104CHL1   C1713906   6.605   5.168   5.620  0.7476  0.6358  0.4816
  104CHL1   H1713907   6.697   5.111   5.643 -1.0038 -2.3267  0.7328
  104CHL1   C1313908   6.529   5.190   5.753  0.0312 -0.6293 -0.2719
  104CHL1   C1813909   6.383   5.246   5.733 -0.5939  0.0362  0.3320
  104CHL1  H18A13910   6.384   5.327   5.657  2.6799  0.0381  0.2421
  104CHL1  H18B13911   6.315   5.165   5.699  0.6436 -1.1860  0.6455
  104CHL1  H18C13912   6.341   5.282   5.829 -0.0506 -2.2283  1.5161
  104CHL1   C1213913   6.528   5.077   5.863 -0.7351 -0.9949  0.2148
  104CHL1  H12A13914   6.466   4.991   5.830  0.3948 -1.2872 -1.2378
  104CHL1  H12B13915   6.631   5.045   5.892 -0.8774  0.9648  3.5191
  104CHL1   C1113916   6.483   5.139   5.999 -0.4573  0.7315 -0.0065
  104CHL1  H11A13917   6.373   5.155   5.990 -0.5721 -0.4583 -0.9245
  104CHL1  H11B13918   6.482   5.063   6.079 -0.6215  0.5509 -0.1781
  104CHL1    C913919   6.560   5.263   6.044 -0.2626 -0.6302 -0.9386
  104CHL1    H913920   6.662   5.229   6.072 -0.9853 -1.0476  1.3623
  104CHL1   C1013921   6.517   5.320   6.183  0.1930  0.0800 -0.3634
  104CHL1   C1913922   6.364   5.340   6.192 -0.2803  0.0402 -0.3585
  104CHL1  H19A13923   6.330   5.410   6.113  1.3758  0.9351 -0.3079
  104CHL1  H19B13924   6.309   5.243   6.185 -0.7895  0.0892  2.1756
  104CHL1  H19C13925   6.324   5.366   6.292 -0.7961  0.7559 -0.7392
  104CHL1    C113926   6.555   5.206   6.293 -0.2904  0.1803  0.1697
  104CHL1   H1A13927   6.493   5.115   6.279  0.2194 -0.1419 -0.0290
  104CHL1   H1B13928   6.661   5.179   6.278  0.1954  2.1974 -0.4322
  104CHL1    C213929   6.544   5.250   6.438 -0.0245  0.4618  0.4705
  104CHL1   H2A13930   6.583   5.175   6.509  1.4232 -0.3990 -1.1437
  104CHL1   H2B13931   6.435   5.261   6.455  0.0100  0.7228  0.5361
  104CHL1   C2013932   6.528   5.081   5.520 -0.7149  0.3801  0.3796
  104CHL1   H2013933   6.473   5.008   5.583  0.1617  0.3602  1.1435
  104CHL1   C2113934   6.627   4.992   5.432 -0.4819 -0.9059  0.2082
  104CHL1  H21A13935   6.686   5.057   5.364  1.1320 -1.3265  1.1529
  104CHL1  H21B13936   6.572   4.913   5.376 -1.4335 -0.8149  0.9854
  104CHL1  H21C13937   6.707   4.948   5.496  0.9479  2.4303  0.9289
  104CHL1   C2213938   6.426   5.142   5.431  0.2054  0.3673  0.1147
  104CHL1  H22A13939   6.355   5.209   5.483  0.4213  1.2784 -0.7353
  104CHL1  H22B13940   6.468   5.203   5.348  0.9689  0.0969  0.2861
  104CHL1   C2313941   6.323   5.041   5.376 -0.3107 -0.6959  0.3719
  104CHL1  H23A13942   6.371   4.946   5.341  0.8665 -0.0985  0.3337
  104CHL1  H23B13943   6.256   5.004   5.457 -0.4832  0.5398  0.8132
  104CHL1   C2413944   6.251   5.102   5.250 -0.5632 -0.7386  0.4466
  104CHL1  H24A13945   6.211   5.194   5.296 -0.2746 -1.5666  2.4310
  104CHL1  H24B13946   6.330   5.110   5.172 -1.3109 -0.6455 -0.3128
  104CHL1   C2513947   6.124   5.023   5.199  0.1369 -0.2158 -0.0232
  104CHL1   H2513948   6.062   5.011   5.290  1.5405  2.3299  1.3982
  104CHL1   C2613949   6.037   5.106   5.111  0.2875 -0.5606  0.3834
  104CHL1  H26A13950   5.945   5.051   5.082  0.1663 -0.2922  0.2576
  104CHL1  H26B13951   6.020   5.200   5.166 -1.3619 -0.0139 -0.9829
  104CHL1  H26C13952   6.095   5.116   5.016  0.7765 -2.6874  0.3966
  104CHL1   C2713953   6.155   4.882   5.141 -0.5226  0.4817  0.1400
  104CHL1  H27A13954   6.207   4.881   5.042 -0.8983  0.0771 -0.0578
  104CHL1  H27B13955   6.221   4.822   5.207 -1.8299  0.0765  1.1239
  104CHL1  H27C13956   6.060   4.824   5.139 -0.0064 -0.4017  0.7995
  105CHL1    C313957   7.293   3.276   6.323  0.3715 -1.0401  0.0553
  105CHL1    H313958   7.370   3.305   6.249  0.3793 -2.7956 -0.6754
  105CHL1    O313959   7.305   3.341   6.447  0.1156 -0.1069 -0.1742
  105CHL1   H3'13960   7.393   3.320   6.480  0.2178  1.1006  0.3817
  105CHL1    C413961   7.158   3.312   6.265 -0.7178 -0.1752 -0.1744
  105CHL1   H4A13962   7.085   3.271   6.339 -0.1098  0.2793  0.7002
  105CHL1   H4B13963   7.150   3.422   6.260  1.7969  0.2213  1.9886
  105CHL1    C513964   7.122   3.253   6.130  0.1391  0.2204  0.4959
  105CHL1    C613965   7.068   3.324   6.029 -0.3176  0.0803 -0.3261
  105CHL1    H613966   7.053   3.433   6.034  2.1208  0.5543 -1.6304
  105CHL1    C713967   7.036   3.262   5.894  0.2889 -0.6192 -0.7997
  105CHL1   H7A13968   6.933   3.295   5.866  0.4038 -1.2733 -2.0833
  105CHL1   H7B13969   7.098   3.314   5.818  0.5415  0.0868 -0.1238
  105CHL1    C813970   7.052   3.106   5.895 -0.1836  0.1004 -0.4703
  105CHL1    H813971   6.963   3.063   5.945  0.7286 -0.1309  1.0298
  105CHL1   C1413972   7.064   3.046   5.754  0.4090  0.3984  0.4327
  105CHL1   H1413973   7.162   3.079   5.714  0.4608  0.8768  0.9454
  105CHL1   C1513974   6.959   3.104   5.657  0.5746  0.3384  0.0661
  105CHL1  H15A13975   6.856   3.098   5.700  1.7039 -2.1420  2.7493
  105CHL1  H15B13976   6.987   3.207   5.627 -0.0739  1.1172  1.9405
  105CHL1   C1613977   6.972   3.006   5.542 -0.0848 -0.5869  0.2918
  105CHL1  H16A13978   6.875   2.961   5.513  1.2006 -2.3645 -1.5230
  105CHL1  H16B13979   7.003   3.059   5.450 -0.7944 -0.4946  0.0980
  105CHL1   C1713980   7.064   2.886   5.586  0.4628 -0.6967  0.2470
  105CHL1   H1713981   7.168   2.907   5.553  0.7507 -0.3262  1.3385
  105CHL1   C1313982   7.071   2.893   5.738  0.4993 -0.0705 -0.9465
  105CHL1   C1813983   6.938   2.832   5.791  1.0496  0.3324 -0.8131
  105CHL1  H18A13984   6.942   2.721   5.784 -2.3389 -0.0192  0.9908
  105CHL1  H18B13985   6.918   2.853   5.898  0.2713 -3.8682  0.0260
  105CHL1  H18C13986   6.853   2.875   5.734 -1.4973 -2.4109  0.6629
  105CHL1   C1213987   7.200   2.855   5.808  0.5745 -0.5191  0.2651
  105CHL1  H12A13988   7.200   2.745   5.822  0.2273 -0.3067  2.2068
  105CHL1  H12B13989   7.288   2.885   5.747  1.9363 -0.5699  2.1384
  105CHL1   C1113990   7.217   2.914   5.954 -0.0396  0.1725  0.6849
  105CHL1  H11A13991   7.148   2.848   6.011  0.7407 -1.2466  0.0624
  105CHL1  H11B13992   7.322   2.895   5.984  0.1256 -1.4024 -0.7079
  105CHL1    C913993   7.171   3.060   5.978  0.2588 -0.5197  0.1014
  105CHL1    H913994   7.257   3.114   5.935  0.1007  0.3700  0.8717
  105CHL1   C1013995   7.160   3.107   6.124  0.1993  0.0172 -0.1861
  105CHL1   C1913996   7.041   3.043   6.197 -0.4884 -0.2832 -0.3546
  105CHL1  H19A13997   6.942   3.063   6.150 -0.7101  1.9744  0.9019
  105CHL1  H19B13998   7.067   2.936   6.192 -0.7261 -0.3143 -0.9791
  105CHL1  H19C13999   7.034   3.075   6.304 -2.4304 -1.3944 -0.1074
  105CHL1    C114000   7.288   3.068   6.201 -0.8778 -0.2676 -0.0383
  105CHL1   H1A14001   7.295   2.957   6.203 -1.8944 -0.3362  0.5481
  105CHL1   H1B14002   7.373   3.114   6.148 -1.4797  0.1129 -0.6902
  105CHL1    C214003   7.303   3.127   6.340 -0.2032 -0.2849 -0.5526
  105CHL1   H2A14004   7.400   3.099   6.385 -0.3307 -1.1490 -0.7943
  105CHL1   H2B14005   7.223   3.093   6.410 -0.6308  0.3232 -0.7395
  105CHL1   C2014006   7.008   2.756   5.532 -0.1697 -0.2272  0.2005
  105CHL1   H2014007   6.903   2.744   5.567 -0.9320  1.3695 -1.3991
  105CHL1   C2114008   7.102   2.639   5.576 -0.1127  0.7896 -0.2839
  105CHL1  H21A14009   7.069   2.544   5.527 -2.7272  1.9378 -0.9184
  105CHL1  H21B14010   7.113   2.625   5.686 -0.9829  0.5460 -0.2206
  105CHL1  H21C14011   7.205   2.664   5.541 -0.1645  0.5588 -0.6145
  105CHL1   C2214012   6.999   2.747   5.377 -0.0846 -0.5433 -0.6921
  105CHL1  H22A14013   6.963   2.643   5.357 -0.2594 -0.2365 -2.1030
  105CHL1  H22B14014   6.912   2.808   5.343  1.0889  0.6090 -1.7068
  105CHL1   C2314015   7.127   2.779   5.297  0.0596 -0.5023  0.0204
  105CHL1  H23A14016   7.156   2.878   5.337 -1.3159 -0.8177  1.9423
  105CHL1  H23B14017   7.206   2.701   5.300  0.3059 -0.2339  1.4049
  105CHL1   C2414018   7.094   2.806   5.144 -0.1719  0.4260  0.4410
  105CHL1  H24A14019   7.079   2.706   5.097  0.2009 -0.0030  1.2029
  105CHL1  H24B14020   7.002   2.867   5.132 -0.3275  0.1518  0.2112
  105CHL1   C2514021   7.213   2.860   5.059 -0.2566  0.0687 -0.0228
  105CHL1   H2514022   7.244   2.953   5.111 -0.4292  1.3791 -2.1481
  105CHL1   C2614023   7.333   2.757   5.053  0.6949  0.1535  0.0414
  105CHL1  H26A14024   7.359   2.714   5.152 -1.3838 -1.4181 -0.0068
  105CHL1  H26B14025   7.295   2.670   4.995 -0.6160 -0.1285  1.2365
  105CHL1  H26C14026   7.416   2.808   5.000 -0.0055  0.9271 -0.3300
  105CHL1   C2714027   7.182   2.908   4.919  0.2862  0.1345  0.5155
  105CHL1  H27A14028   7.279   2.914   4.865  0.3122  0.7411  0.6204
  105CHL1  H27B14029   7.118   2.835   4.866 -0.1630  0.9833 -0.1301
  105CHL1  H27C14030   7.123   3.002   4.916 -0.7810 -0.5332 -0.1058
  106CHL1    C314031   2.302   2.887   7.038 -0.4875  0.4612 -0.9557
  106CHL1    H314032   2.333   2.780   7.035  0.7014  0.7417  0.2781
  106CHL1    O314033   2.261   2.913   7.176 -0.7230  0.0921  0.3954
  106CHL1   H3'14034   2.285   3.006   7.169  2.3508 -0.6754 -0.8039
  106CHL1    C414035   2.413   2.979   6.992 -0.0929 -0.8274 -0.8423
  106CHL1   H4A14036   2.379   3.084   6.990 -0.8838 -0.9476  1.8539
  106CHL1   H4B14037   2.498   2.969   7.063 -1.0880  0.9188  0.6532
  106CHL1    C514038   2.457   2.947   6.852  0.1244 -0.3969  0.9678
  106CHL1    C614039   2.580   2.914   6.816  0.3806 -0.7685  0.3969
  106CHL1    H614040   2.657   2.913   6.894  0.2093  1.8382  0.6630
  106CHL1    C714041   2.622   2.889   6.675 -0.4165  0.0252 -0.0289
  106CHL1   H7A14042   2.708   2.956   6.653 -0.6694  0.9425  1.6274
  106CHL1   H7B14043   2.660   2.787   6.655  0.0304  0.3161 -0.7044
  106CHL1    C814044   2.519   2.926   6.570  0.2424 -0.4721 -0.1638
  106CHL1    H814045   2.508   3.036   6.563 -0.1550 -0.4422  0.7619
  106CHL1   C1414046   2.559   2.877   6.432  0.4508 -0.6083  0.0754
  106CHL1   H1414047   2.567   2.767   6.448 -1.1845 -0.6694  0.6436
  106CHL1   C1514048   2.698   2.916   6.377  0.0715 -0.0345 -0.5749
  106CHL1  H15A14049   2.712   3.024   6.400  0.5302 -0.0354 -0.8514
  106CHL1  H15B14050   2.779   2.856   6.422 -0.1009  1.3102  1.6964
  106CHL1   C1614051   2.685   2.910   6.223  0.3677  0.3825  0.2872
  106CHL1  H16A14052   2.680   3.015   6.185 -2.5493  0.3701  0.4008
  106CHL1  H16B14053   2.757   2.841   6.174  0.4378  0.4260  0.3297
  106CHL1   C1714054   2.537   2.852   6.201  0.1753  0.0753  0.2888
  106CHL1   H1714055   2.541   2.742   6.216 -0.7493 -0.1501 -0.9358
  106CHL1   C1314056   2.460   2.907   6.323  0.0683  0.3398  0.4273
  106CHL1   C1814057   2.442   3.065   6.306 -0.5023  0.5183 -0.2522
  106CHL1  H18A14058   2.535   3.119   6.281  0.5527 -1.9055 -1.9909
  106CHL1  H18B14059   2.364   3.086   6.229 -0.0130 -0.6933 -1.1153
  106CHL1  H18C14060   2.400   3.097   6.404  1.0861 -1.2349  1.0797
  106CHL1   C1214061   2.329   2.837   6.361  0.0325 -0.1274  0.4890
  106CHL1  H12A14062   2.259   2.850   6.275 -0.3541  3.1265  1.1525
  106CHL1  H12B14063   2.359   2.730   6.363 -0.6226 -0.3363 -0.2158
  106CHL1   C1114064   2.268   2.883   6.495 -0.1656  0.0350  0.0623
  106CHL1  H11A14065   2.234   2.988   6.476 -2.7932 -0.5951  0.7719
  106CHL1  H11B14066   2.180   2.822   6.524 -0.1011  0.3353  0.9509
  106CHL1    C914067   2.376   2.879   6.605  0.2438  0.3209 -0.1076
  106CHL1    H914068   2.394   2.772   6.629  2.4818  0.2981 -1.5059
  106CHL1   C1014069   2.335   2.943   6.746 -0.3939  0.6948 -0.2265
  106CHL1   C1914070   2.283   3.090   6.722 -0.0624  0.5838 -0.4444
  106CHL1  H19A14071   2.173   3.097   6.705 -0.6474 -1.1794  1.9909
  106CHL1  H19B14072   2.303   3.165   6.802  2.0427 -1.0757  0.6818
  106CHL1  H19C14073   2.334   3.137   6.636  1.3620  1.6724  0.9222
  106CHL1    C114074   2.213   2.865   6.798 -0.8053  0.2062  0.0417
  106CHL1   H1A14075   2.134   2.881   6.721  0.1364 -0.7208 -1.1552
  106CHL1   H1B14076   2.230   2.757   6.784 -0.6962  0.3300 -0.8648
  106CHL1    C214077   2.182   2.899   6.944 -0.2408  0.2050 -0.2849
  106CHL1   H2A14078   2.099   2.833   6.977  1.7707 -2.6203 -0.5902
  106CHL1   H2B14079   2.146   3.003   6.963 -1.9525 -0.4942  0.4519
  106CHL1   C2014080   2.480   2.892   6.067  0.2322 -0.5828  0.2966
  106CHL1   H2014081   2.373   2.908   6.088  0.2463  0.4131 -0.3102
  106CHL1   C2114082   2.481   2.765   5.978 -0.2664  0.1613 -0.3954
  106CHL1  H21A14083   2.419   2.771   5.886 -0.1967  3.8824 -0.3737
  106CHL1  H21B14084   2.437   2.687   6.044  0.6525 -0.1158 -0.1023
  106CHL1  H21C14085   2.580   2.730   5.944 -1.1613 -2.7901 -0.2444
  106CHL1   C2214086   2.535   3.013   5.992 -0.0695 -0.4433 -0.4023
  106CHL1  H22A14087   2.554   3.092   6.067  0.3009 -0.3545 -0.5892
  106CHL1  H22B14088   2.634   2.995   5.944  0.6959  1.9173  0.1916
  106CHL1   C2314089   2.432   3.079   5.888 -0.5330 -0.5811 -0.0051
  106CHL1  H23A14090   2.389   3.010   5.812 -2.2433  0.9746 -0.5494
  106CHL1  H23B14091   2.347   3.123   5.946 -2.0404  0.3117 -2.7211
  106CHL1   C2414092   2.504   3.184   5.800 -0.2243 -0.3297  0.1090
  106CHL1  H24A14093   2.569   3.253   5.858  0.1986  1.0172 -1.8886
  106CHL1  H24B14094   2.569   3.131   5.727 -0.3174 -1.9472  1.1573
  106CHL1   C2514095   2.406   3.277   5.723  0.4695 -0.2834 -0.1530
  106CHL1   H2514096   2.324   3.211   5.688  1.7330 -0.8546 -2.1489
  106CHL1   C2614097   2.334   3.367   5.816  0.4793  0.1074 -0.6075
  106CHL1  H26A14098   2.292   3.461   5.773 -0.2118  0.1293  0.0849
  106CHL1  H26B14099   2.244   3.319   5.860 -0.7331  3.3024  0.7591
  106CHL1  H26C14100   2.401   3.403   5.897  1.8531  0.5248 -1.8797
  106CHL1   C2714101   2.464   3.362   5.609  0.1909  0.1782 -0.3606
  106CHL1  H27A14102   2.393   3.441   5.577  1.4768  0.3878 -2.9787
  106CHL1  H27B14103   2.548   3.429   5.638  1.0029 -0.6846 -0.6572
  106CHL1  H27C14104   2.496   3.297   5.524  2.3351  0.3308  0.2788
  107CHL1    C314105   4.542   6.820   6.545  0.5819 -0.5368 -0.1324
  107CHL1    H314106   4.621   6.891   6.513  0.3140 -0.3470 -0.3839
  107CHL1    O314107   4.549   6.810   6.684  0.5179  0.5464  0.0500
  107CHL1   H3'14108   4.456   6.798   6.706  0.5935  2.0200  1.4019
  107CHL1    C414109   4.394   6.859   6.523 -0.2879 -0.0655 -0.5286
  107CHL1   H4A14110   4.327   6.786   6.574  2.5156 -1.9281  0.7906
  107CHL1   H4B14111   4.394   6.957   6.574 -1.1480  0.1405 -0.9097
  107CHL1    C514112   4.366   6.861   6.376  0.5348  0.1426 -0.9148
  107CHL1    C614113   4.336   6.976   6.315  0.8910 -0.7822 -0.0171
  107CHL1    H614114   4.321   7.068   6.373  2.6953 -0.6597  0.3283
  107CHL1    C714115   4.289   6.980   6.175 -0.1436 -0.1137  0.3951
  107CHL1   H7A14116   4.193   7.036   6.167  0.0629  0.4307  1.6765
  107CHL1   H7B14117   4.363   7.043   6.122 -1.4874  1.8054  0.6846
  107CHL1    C814118   4.276   6.838   6.110 -0.0617 -0.6732  0.2492
  107CHL1    H814119   4.178   6.801   6.148  0.2389 -0.1675  1.5792
  107CHL1   C1414120   4.272   6.849   5.960  0.1187 -0.0660 -0.2783
  107CHL1   H1414121   4.375   6.882   5.935  1.3307 -1.1878  2.7194
  107CHL1   C1514122   4.171   6.949   5.905  0.2557  0.2230 -1.0253
  107CHL1  H15A14123   4.073   6.932   5.954 -1.0322  1.4011 -3.0552
  107CHL1  H15B14124   4.205   7.054   5.918  1.3378 -0.0784 -1.3304
  107CHL1   C1614125   4.152   6.908   5.757 -0.0355  0.3255  0.1763
  107CHL1  H16A14126   4.045   6.910   5.727 -0.4651  1.4706  1.6343
  107CHL1  H16B14127   4.206   6.982   5.695  2.9119 -1.9034 -0.1253
  107CHL1   C1714128   4.225   6.769   5.738 -0.0322 -0.7537  0.1996
  107CHL1   H1714129   4.333   6.785   5.715  0.1630 -0.5765  1.1883
  107CHL1   C1314130   4.242   6.720   5.880  0.7923  0.8481  0.5203
  107CHL1   C1814131   4.103   6.666   5.938 -0.1294 -0.1265 -0.2096
  107CHL1  H18A14132   4.074   6.571   5.889  1.8043 -1.5217  1.1757
  107CHL1  H18B14133   4.100   6.639   6.046 -2.8694 -0.9695 -0.4152
  107CHL1  H18C14134   4.015   6.733   5.926 -0.8039 -0.6949  1.2880
  107CHL1   C1214135   4.353   6.619   5.915  0.2925  0.3203 -0.7441
  107CHL1  H12A14136   4.341   6.521   5.863 -0.6778  0.3835 -0.6679
  107CHL1  H12B14137   4.444   6.663   5.870  1.5226 -2.3793 -1.0989
  107CHL1   C1114138   4.374   6.608   6.067 -0.2422  0.5697  0.5340
  107CHL1  H11A14139   4.299   6.534   6.101 -0.1392 -0.4498 -1.3024
  107CHL1  H11B14140   4.470   6.554   6.082 -0.1100  0.3764 -0.8819
  107CHL1    C914141   4.385   6.741   6.152 -0.1087 -0.3070  0.7643
  107CHL1    H914142   4.478   6.792   6.118  0.3576 -2.0881 -0.8092
  107CHL1   C1014143   4.394   6.723   6.307  0.2503 -0.1042 -0.5637
  107CHL1   C1914144   4.280   6.625   6.347 -0.3908 -0.6241 -0.0875
  107CHL1  H19A14145   4.308   6.522   6.319 -1.6180 -0.6239 -1.3993
  107CHL1  H19B14146   4.268   6.619   6.458 -0.9801 -0.1053 -0.1171
  107CHL1  H19C14147   4.177   6.644   6.311 -1.8289 -0.6445  3.5605
  107CHL1    C114148   4.538   6.675   6.340 -0.0236  0.0036 -0.1132
  107CHL1   H1A14149   4.549   6.571   6.304  0.5676  0.2336 -0.6045
  107CHL1   H1B14150   4.611   6.739   6.286  2.1264 -0.2458  2.2751
  107CHL1    C214151   4.571   6.685   6.487  0.1683  0.4799  0.0096
  107CHL1   H2A14152   4.679   6.664   6.500  0.1000  0.3751  0.3998
  107CHL1   H2B14153   4.508   6.611   6.541 -0.1947 -0.9045 -2.1536
  107CHL1   C2014154   4.161   6.677   5.627 -0.5032  0.4616  0.2149
  107CHL1   H2014155   4.069   6.637   5.674 -0.6823 -1.3048 -1.5117
  107CHL1   C2114156   4.253   6.562   5.592 -0.5909 -0.2385 -0.5635
  107CHL1  H21A14157   4.262   6.482   5.668  4.5862  0.4210 -0.1432
  107CHL1  H21B14158   4.354   6.599   5.563 -0.4557 -0.7391 -0.7251
  107CHL1  H21C14159   4.222   6.510   5.499  0.7366 -0.8541 -0.6775
  107CHL1   C2214160   4.118   6.757   5.499  0.0533  0.2677  0.2715
  107CHL1  H22A14161   4.065   6.689   5.428  0.9316 -1.7803  1.4932
  107CHL1  H22B14162   4.049   6.839   5.528  0.3454  1.4565 -2.1583
  107CHL1   C2314163   4.228   6.833   5.425 -0.7096  0.2109  0.4305
  107CHL1  H23A14164   4.259   6.915   5.493  1.0891 -0.8615  0.9935
  107CHL1  H23B14165   4.313   6.762   5.411  0.2424  1.3001  0.4814
  107CHL1   C2414166   4.169   6.893   5.297 -0.2009  0.2732  1.1709
  107CHL1  H24A14167   4.111   6.821   5.236  0.7004  1.0712 -0.7131
  107CHL1  H24B14168   4.110   6.981   5.329 -0.5257  0.8402 -0.8373
  107CHL1   C2514169   4.265   6.943   5.184  0.1332 -0.0957  0.2834
  107CHL1   H2514170   4.341   6.863   5.166  0.5111  0.5683 -1.1472
  107CHL1   C2614171   4.191   6.979   5.057  0.1160  0.3933 -0.4095
  107CHL1  H26A14172   4.089   7.020   5.068  0.6298  1.4128  0.8171
  107CHL1  H26B14173   4.258   7.047   5.001 -0.1743  0.6056 -0.5028
  107CHL1  H26C14174   4.181   6.891   4.989 -0.0394 -0.2728  0.4469
  107CHL1   C2714175   4.341   7.065   5.238  0.3078 -0.3623 -0.5580
  107CHL1  H27A14176   4.397   7.092   5.145  0.8992  1.2071  0.2140
  107CHL1  H27B14177   4.272   7.141   5.278  0.1283 -0.9538  0.2769
  107CHL1  H27C14178   4.418   7.027   5.309 -0.4254  2.2519  1.8200
  108CHL1    C314179   7.148   2.611   6.673 -0.8381  0.3831  0.0300
  108CHL1    H314180   7.169   2.510   6.715 -1.2988  1.4401  3.0025
  108CHL1    O314181   7.138   2.696   6.783  0.3877 -0.5120  0.1619
  108CHL1   H3'14182   7.135   2.782   6.741 -0.2330 -1.2352 -1.3746
  108CHL1    C414183   7.266   2.655   6.586 -0.1063 -0.5473  0.7915
  108CHL1   H4A14184   7.253   2.757   6.543  2.1821 -0.0272  1.1455
  108CHL1   H4B14185   7.364   2.666   6.638  0.0133  1.4347  0.2377
  108CHL1    C514186   7.279   2.561   6.466 -0.5875  0.6215  0.4594
  108CHL1    C614187   7.388   2.491   6.449 -0.6434 -0.0315  0.4860
  108CHL1    H614188   7.468   2.506   6.524  0.9611 -0.9662 -0.9676
  108CHL1    C714189   7.411   2.400   6.334 -0.3569  0.0394 -0.3772
  108CHL1   H7A14190   7.513   2.405   6.290  0.0017  0.0381  0.4291
  108CHL1   H7B14191   7.409   2.292   6.357 -1.2961  0.5771  2.3643
  108CHL1    C814192   7.309   2.428   6.217 -0.6157 -0.6958 -1.2132
  108CHL1    H814193   7.337   2.527   6.176  1.7486 -0.4462  0.7977
  108CHL1   C1414194   7.305   2.318   6.109 -0.3787 -0.0184 -0.4069
  108CHL1   H1414195   7.274   2.231   6.171  0.3876  0.2275  0.3327
  108CHL1   C1514196   7.438   2.266   6.045 -0.1839 -0.4032 -0.7397
  108CHL1  H15A14197   7.496   2.355   6.011  0.1646 -0.2888  0.1170
  108CHL1  H15B14198   7.508   2.211   6.112  0.4195  1.9130  0.6486
  108CHL1   C1614199   7.394   2.188   5.921  0.7925 -0.1959  0.7374
  108CHL1  H16A14200   7.435   2.238   5.830 -1.2354  0.4988  0.1642
  108CHL1  H16B14201   7.425   2.081   5.920  1.7421  0.0306  2.2944
  108CHL1   C1714202   7.238   2.204   5.919 -0.7431  0.5197  0.4688
  108CHL1   H1714203   7.204   2.115   5.977 -1.0452  1.1714  1.3071
  108CHL1   C1314204   7.193   2.327   6.001 -0.3201 -0.1018  0.4223
  108CHL1   C1814205   7.229   2.453   5.920  0.8227  0.5822  0.0717
  108CHL1  H18A14206   7.171   2.459   5.826  1.8516  2.1213 -0.5080
  108CHL1  H18B14207   7.201   2.536   5.987 -1.7189 -0.7805  0.8191
  108CHL1  H18C14208   7.334   2.460   5.884  1.4902 -0.1858  1.7301
  108CHL1   C1214209   7.056   2.320   6.066 -0.1553  0.3712 -1.1617
  108CHL1  H12A14210   6.974   2.335   5.993 -1.3912 -1.3680 -0.1874
  108CHL1  H12B14211   7.043   2.216   6.101 -0.2087  1.3578  2.0374
  108CHL1   C1114212   7.048   2.428   6.177 -0.2602 -0.4270 -1.0158
  108CHL1  H11A14213   7.036   2.525   6.126  0.0801  0.0042 -0.2993
  108CHL1  H11B14214   6.950   2.408   6.226  0.3404 -1.5491 -0.2068
  108CHL1    C914215   7.166   2.436   6.278  0.2278  0.3394 -0.6062
  108CHL1    H914216   7.156   2.340   6.332 -1.6965  1.2804  0.8015
  108CHL1   C1014217   7.158   2.550   6.377 -0.1051  0.2497 -0.0788
  108CHL1   C1914218   7.135   2.678   6.290 -0.1308 -0.0594 -0.2343
  108CHL1  H19A14219   7.109   2.763   6.356 -0.5884  0.9703 -1.6956
  108CHL1  H19B14220   7.216   2.702   6.218  0.8993  0.3983  1.0346
  108CHL1  H19C14221   7.042   2.670   6.230 -0.0373 -1.0654 -0.2646
  108CHL1    C114222   7.030   2.526   6.470  0.3936  0.6066 -0.8734
  108CHL1   H1A14223   6.937   2.534   6.411 -0.3258  2.8083  0.4250
  108CHL1   H1B14224   7.041   2.424   6.513  0.5038  0.5215 -1.1048
  108CHL1    C214225   7.017   2.627   6.594 -0.1576  0.1145  1.3352
  108CHL1   H2A14226   6.929   2.603   6.658 -0.6845 -4.3361 -0.7472
  108CHL1   H2B14227   7.006   2.732   6.559 -1.3167 -0.0640  1.1151
  108CHL1   C2014228   7.177   2.187   5.777  0.1020 -0.0437  0.8009
  108CHL1   H2014229   7.068   2.208   5.779  0.1351  0.9995 -2.3232
  108CHL1   C2114230   7.186   2.033   5.751  0.1631  0.9796  0.1535
  108CHL1  H21A14231   7.290   1.995   5.741  0.2334  1.0647  0.5773
  108CHL1  H21B14232   7.131   1.994   5.662 -2.2663  0.2996  1.8689
  108CHL1  H21C14233   7.150   1.974   5.838  1.6496  0.3963  0.3973
  108CHL1   C2214234   7.246   2.259   5.655  0.7126 -0.1658  0.2807
  108CHL1  H22A14235   7.221   2.368   5.659 -0.0647 -0.3037 -0.5095
  108CHL1  H22B14236   7.356   2.259   5.649  0.6976  2.3104 -2.1632
  108CHL1   C2314237   7.189   2.222   5.519 -0.4339 -0.4089 -0.9107
  108CHL1  H23A14238   7.225   2.119   5.501  1.5707  0.2689 -0.9620
  108CHL1  H23B14239   7.079   2.240   5.522 -0.6288 -1.3243  3.2293
  108CHL1   C2414240   7.252   2.315   5.403 -0.3375 -0.0366  0.2327
  108CHL1  H24A14241   7.252   2.420   5.439 -1.4983  0.2402 -0.5302
  108CHL1  H24B14242   7.355   2.282   5.376 -0.3481 -1.8248  2.1477
  108CHL1   C2514243   7.175   2.296   5.269 -0.2906 -0.2425  0.1009
  108CHL1   H2514244   7.067   2.315   5.284 -0.2480 -1.3127  2.0600
  108CHL1   C2614245   7.229   2.388   5.161  0.4711  0.3799  0.0749
  108CHL1  H26A14246   7.336   2.367   5.142  0.0649  0.0677 -2.1537
  108CHL1  H26B14247   7.176   2.367   5.066  1.9863 -0.1774 -0.6849
  108CHL1  H26C14248   7.225   2.497   5.183  1.8339  0.5024 -0.2007
  108CHL1   C2714249   7.185   2.149   5.229 -0.2613 -0.4335  1.0277
  108CHL1  H27A14250   7.151   2.136   5.124  1.3477 -0.5143  0.4858
  108CHL1  H27B14251   7.291   2.116   5.229  0.4205  1.4378 -1.3698
  108CHL1  H27C14252   7.125   2.086   5.298  1.4026 -1.9222  1.1841
  109CHL1    C314253   3.441   6.797   6.625 -0.0229 -0.7076  0.7799
  109CHL1    H314254   3.342   6.832   6.660 -0.8402 -0.9999 -1.1461
  109CHL1    O314255   3.537   6.786   6.733  0.0735  0.8935  0.2971
  109CHL1   H3'14256   3.534   6.868   6.782  1.6861  1.8915 -1.1524
  109CHL1    C414257   3.423   6.666   6.544 -0.0351 -0.6542  0.3128
  109CHL1   H4A14258   3.528   6.640   6.517  0.9032 -1.5366  4.2577
  109CHL1   H4B14259   3.399   6.582   6.612  2.1001 -1.4049  0.2291
  109CHL1    C514260   3.317   6.687   6.433 -0.2243  0.7288 -0.6848
  109CHL1    C614261   3.203   6.622   6.427  0.2974  0.4141  0.6857
  109CHL1    H614262   3.191   6.540   6.499  2.0054 -0.8712 -0.4087
  109CHL1    C714263   3.097   6.639   6.320  0.2756  0.4942 -0.4923
  109CHL1   H7A14264   3.051   6.540   6.304  1.7124 -0.2599 -0.1244
  109CHL1   H7B14265   3.032   6.719   6.363  0.3845 -0.3485  1.3437
  109CHL1    C814266   3.159   6.707   6.193 -0.3576 -0.2658  0.1396
  109CHL1    H814267   3.212   6.629   6.135  2.1665  0.8110  0.8603
  109CHL1   C1414268   3.045   6.768   6.116  0.0211 -0.2309  0.0345
  109CHL1   H1414269   3.004   6.846   6.184  0.3672 -0.5842  0.6541
  109CHL1   C1514270   2.925   6.677   6.092 -0.0081 -0.3527 -0.0955
  109CHL1  H15A14271   2.964   6.575   6.076  2.8046  0.4938  0.8723
  109CHL1  H15B14272   2.854   6.670   6.177  3.0406 -1.4652  2.5269
  109CHL1   C1614273   2.849   6.738   5.971 -0.1702  0.2083  0.0536
  109CHL1  H16A14274   2.825   6.660   5.895  0.3519  0.1502 -0.0555
  109CHL1  H16B14275   2.759   6.785   6.015 -0.7951  0.0241 -0.9727
  109CHL1   C1714276   2.938   6.856   5.924 -0.0382  0.0212 -0.9414
  109CHL1   H1714277   2.909   6.950   5.977  0.7683 -1.1302  1.7275
  109CHL1   C1314278   3.086   6.827   5.980  1.1427 -0.0265 -0.6901
  109CHL1   C1814279   3.142   6.715   5.895 -0.0586  0.4125 -0.3548
  109CHL1  H18A14280   3.234   6.679   5.945  0.0543  2.9645  1.5144
  109CHL1  H18B14281   3.070   6.634   5.874 -1.8537  1.5465  1.1183
  109CHL1  H18C14282   3.170   6.754   5.794  2.9209 -1.0872 -0.2291
  109CHL1   C1214283   3.181   6.939   6.012  0.3932  0.4608  0.9286
  109CHL1  H12A14284   3.216   6.991   5.920  1.0973 -0.0057  0.9219
  109CHL1  H12B14285   3.125   7.012   6.073 -3.1282 -0.3393 -1.0422
  109CHL1   C1114286   3.298   6.893   6.098 -0.3362  0.5504 -0.1928
  109CHL1  H11A14287   3.360   6.827   6.033 -0.0656  2.0384 -1.5161
  109CHL1  H11B14288   3.362   6.981   6.123 -1.0888  0.8451  0.7624
  109CHL1    C914289   3.254   6.822   6.231  0.6032  0.0899 -0.7291
  109CHL1    H914290   3.188   6.890   6.288 -1.4750 -3.1059  1.0203
  109CHL1   C1014291   3.368   6.784   6.332 -0.2578 -0.2571  0.3854
  109CHL1   C1914292   3.488   6.728   6.254  0.1055 -0.2321  0.4880
  109CHL1  H19A14293   3.566   6.701   6.328 -0.1559  0.8336  1.1777
  109CHL1  H19B14294   3.448   6.642   6.195  1.6643 -0.8853  0.3271
  109CHL1  H19C14295   3.518   6.796   6.171 -2.9128 -0.0937 -0.6361
  109CHL1    C114296   3.407   6.915   6.405  0.1749  0.0741 -0.6570
  109CHL1   H1A14297   3.458   6.984   6.336  1.1910 -1.0172 -1.0386
  109CHL1   H1B14298   3.317   6.965   6.448 -1.3514  0.1961 -3.7349
  109CHL1    C214299   3.497   6.903   6.526 -0.4004 -0.6153 -0.2269
  109CHL1   H2A14300   3.507   6.996   6.586 -1.3280 -0.3336 -0.4806
  109CHL1   H2B14301   3.602   6.884   6.496  0.0454 -0.6420  1.3020
  109CHL1   C2014302   2.936   6.886   5.776  0.2671 -0.1428  0.8234
  109CHL1   H2014303   2.955   6.790   5.723  0.5215 -0.0897  0.8151
  109CHL1   C2114304   3.045   6.989   5.719 -0.1803 -0.3421 -0.6420
  109CHL1  H21A14305   3.149   6.952   5.728  0.4462  1.2386 -1.0962
  109CHL1  H21B14306   3.052   7.082   5.780  0.6164 -0.2533 -0.8544
  109CHL1  H21C14307   3.037   7.013   5.611  0.1109  0.7201 -0.4453
  109CHL1   C2214308   2.794   6.948   5.734  0.2182  0.3171  0.1548
  109CHL1  H22A14309   2.719   6.893   5.796  0.7091  1.6743  2.0366
  109CHL1  H22B14310   2.802   7.055   5.760  0.9880  0.1898  0.4775
  109CHL1   C2314311   2.763   6.929   5.579 -0.2319  0.8265 -0.4922
  109CHL1  H23A14312   2.861   6.948   5.530  0.2204  1.9272  0.7824
  109CHL1  H23B14313   2.747   6.820   5.566  1.7592  0.5772 -1.3121
  109CHL1   C2414314   2.647   6.999   5.509  0.2843  0.2950  0.4594
  109CHL1  H24A14315   2.566   7.026   5.581  0.6260  2.1487  0.1996
  109CHL1  H24B14316   2.679   7.104   5.490  0.4181  0.1616 -0.0682
  109CHL1   C2514317   2.606   6.942   5.373 -0.0168  0.7579  0.1367
  109CHL1   H2514318   2.551   6.846   5.386  0.5780  0.3839 -0.0716
  109CHL1   C2614319   2.511   7.033   5.286  0.1591  0.0195  0.2384
  109CHL1  H26A14320   2.412   7.054   5.334  0.8037  0.7477  1.2936
  109CHL1  H26B14321   2.558   7.132   5.269  0.5440 -0.2920 -0.5676
  109CHL1  H26C14322   2.479   6.993   5.188 -1.3037  0.7124  0.4057
  109CHL1   C2714323   2.729   6.899   5.288  0.7196  0.5915 -0.0068
  109CHL1  H27A14324   2.781   6.821   5.348 -3.3175 -3.1392 -0.8725
  109CHL1  H27B14325   2.696   6.848   5.195  0.6172  0.5994  0.0249
  109CHL1  H27C14326   2.785   6.993   5.266  0.2435  0.6440 -1.0478
  110CHL1    C314327   2.246   6.087   6.038 -0.1021 -0.4600  0.2403
  110CHL1    H314328   2.229   5.981   6.009 -0.1047  0.1298 -2.0853
  110CHL1    O314329   2.313   6.096   6.163  0.1649 -0.4028 -0.0092
  110CHL1   H3'14330   2.323   6.189   6.185  0.7777 -0.6009  0.5914
  110CHL1    C414331   2.324   6.155   5.923  0.6197 -1.0481  0.0634
  110CHL1   H4A14332   2.337   6.263   5.947  0.9188 -1.2331  0.7963
  110CHL1   H4B14333   2.423   6.105   5.922  0.8818 -0.6562  1.8745
  110CHL1    C514334   2.261   6.141   5.787  0.5852  0.3536 -0.1414
  110CHL1    C614335   2.324   6.079   5.683  0.3672 -0.3558  0.7792
  110CHL1    H614336   2.429   6.052   5.702  0.0746 -0.1080  3.1320
  110CHL1    C714337   2.264   6.060   5.547 -0.1483  0.3673  0.3616
  110CHL1   H7A14338   2.332   6.085   5.464  0.0785 -0.3579  0.3232
  110CHL1   H7B14339   2.236   5.954   5.531  0.9239  0.0257  0.7043
  110CHL1    C814340   2.134   6.144   5.523 -0.5494 -0.5057  0.1482
  110CHL1    H814341   2.178   6.244   5.500 -1.5453  0.0526  0.6035
  110CHL1   C1414342   2.063   6.079   5.401 -0.0950 -0.4276 -0.9281
  110CHL1   H1414343   2.030   5.978   5.435 -0.8832 -0.1524 -0.8513
  110CHL1   C1514344   2.141   6.049   5.277  0.0475 -0.5269 -0.5714
  110CHL1  H15A14345   2.208   6.129   5.240 -1.6296  0.8721 -0.7213
  110CHL1  H15B14346   2.199   5.959   5.307  0.2031  0.0690  0.9803
  110CHL1   C1614347   2.040   6.026   5.171  0.3066 -0.0103 -0.5560
  110CHL1  H16A14348   2.051   6.097   5.087  3.0450 -1.9069 -1.9751
  110CHL1  H16B14349   2.037   5.924   5.127  1.4014  1.2314 -3.7868
  110CHL1   C1714350   1.901   6.065   5.238  0.2325  0.0950  0.5456
  110CHL1   H1714351   1.857   5.973   5.281 -0.1918 -0.2139 -0.5185
  110CHL1   C1314352   1.938   6.155   5.362  0.2018 -0.3147  0.9651
  110CHL1   C1814353   1.978   6.303   5.320  0.1010 -0.0050 -0.3959
  110CHL1  H18A14354   1.893   6.374   5.308 -0.8009 -0.7647  1.1671
  110CHL1  H18B14355   2.029   6.357   5.403 -0.6601  0.5492 -0.2688
  110CHL1  H18C14356   2.040   6.294   5.229 -0.5132 -0.5838 -0.7678
  110CHL1   C1214357   1.845   6.148   5.482 -0.7481 -0.0135 -0.1322
  110CHL1  H12A14358   1.748   6.189   5.448 -0.5947 -0.2514 -0.8710
  110CHL1  H12B14359   1.832   6.045   5.520  1.3112  0.8525  3.4553
  110CHL1   C1114360   1.907   6.209   5.611  0.1366  0.0627  0.2477
  110CHL1  H11A14361   1.925   6.318   5.597  1.6897 -0.4126 -2.0322
  110CHL1  H11B14362   1.844   6.196   5.702 -0.4432 -1.6763 -0.3566
  110CHL1    C914363   2.044   6.142   5.648  0.2666 -0.4674 -0.5270
  110CHL1    H914364   2.012   6.037   5.669 -1.3540 -0.0002 -0.5267
  110CHL1   C1014365   2.111   6.190   5.777  0.2045 -0.2070  0.0120
  110CHL1   C1914366   2.133   6.343   5.781 -0.0933 -0.1765  0.2973
  110CHL1  H19A14367   2.044   6.395   5.741  0.5243  0.4903 -0.2468
  110CHL1  H19B14368   2.164   6.396   5.873 -0.4292  1.0771 -0.2764
  110CHL1  H19C14369   2.209   6.362   5.701  0.1219 -3.3660 -0.3856
  110CHL1    C114370   2.034   6.141   5.905 -0.0555 -0.5397 -0.3287
  110CHL1   H1A14371   1.936   6.194   5.911 -0.8607 -2.1120  1.4266
  110CHL1   H1B14372   2.003   6.035   5.898 -0.8484 -0.6235  2.6863
  110CHL1    C214373   2.109   6.153   6.040  0.1615  0.2602  0.4478
  110CHL1   H2A14374   2.052   6.097   6.117 -0.1534  1.2130  0.9255
  110CHL1   H2B14375   2.117   6.259   6.073 -1.2430  0.1697  1.2118
  110CHL1   C2014376   1.809   6.126   5.134  0.5765 -0.0207 -0.2043
  110CHL1   H2014377   1.862   6.216   5.098  1.4704  0.1463  1.4274
  110CHL1   C2114378   1.671   6.179   5.191 -0.5799 -0.2675 -0.1433
  110CHL1  H21A14379   1.695   6.272   5.247  0.6877 -0.8842  0.3786
  110CHL1  H21B14380   1.628   6.112   5.268  2.5474  0.0407  2.0900
  110CHL1  H21C14381   1.612   6.192   5.098  3.1097 -2.5405 -3.1087
  110CHL1   C2214382   1.792   6.040   5.003 -0.5869  0.4744 -0.3494
  110CHL1  H22A14383   1.892   6.016   4.961  0.8662  3.1566  1.2883
  110CHL1  H22B14384   1.744   5.945   5.034 -2.8351  1.6661  0.0305
  110CHL1   C2314385   1.721   6.088   4.881 -0.3859  0.3478 -1.1123
  110CHL1  H23A14386   1.702   6.000   4.816  0.2875 -1.3420  0.8788
  110CHL1  H23B14387   1.622   6.132   4.905 -0.4028  0.2731 -1.0461
  110CHL1   C2414388   1.801   6.189   4.792 -0.0621 -0.6518  0.0279
  110CHL1  H24A14389   1.802   6.289   4.840 -3.2797  0.4230 -1.8510
  110CHL1  H24B14390   1.902   6.146   4.778  0.3457 -0.0452  0.9818
  110CHL1   C2514391   1.739   6.224   4.655  0.7343 -0.7068  0.4075
  110CHL1   H2514392   1.632   6.247   4.676  0.7295 -1.3518  1.1503
  110CHL1   C2614393   1.813   6.342   4.589  0.2017 -0.6298 -0.2195
  110CHL1  H26A14394   1.921   6.323   4.571  0.3646 -1.0162  1.0970
  110CHL1  H26B14395   1.769   6.368   4.490 -0.7415 -0.2430  0.2939
  110CHL1  H26C14396   1.791   6.429   4.654  1.6945 -1.3709  1.3762
  110CHL1   C2714397   1.739   6.102   4.555  0.3153 -0.1274  0.2619
  110CHL1  H27A14398   1.699   6.011   4.604  1.7550 -0.2716  1.2627
  110CHL1  H27B14399   1.675   6.117   4.466 -1.4678 -1.0890  1.3401
  110CHL1  H27C14400   1.843   6.081   4.521  1.4337  1.5425  2.3419
  111CHL1    C314401   3.903   0.846   6.475 -0.3621  0.5101  0.6878
  111CHL1    H314402   3.898   0.941   6.418  1.0974  0.8098  1.0112
  111CHL1    O314403   3.951   0.870   6.606 -0.0973 -0.0062 -0.8888
  111CHL1   H3'14404   3.934   0.785   6.647  0.5712 -0.0805 -0.7474
  111CHL1    C414405   3.765   0.771   6.468 -0.2480  0.3747 -0.5377
  111CHL1   H4A14406   3.779   0.677   6.526  0.0691  0.0147 -1.1839
  111CHL1   H4B14407   3.688   0.835   6.516 -1.1284 -0.8210 -0.2893
  111CHL1    C514408   3.728   0.751   6.326  0.3503  0.0684  0.1062
  111CHL1    C614409   3.612   0.803   6.280 -0.0054  0.2212 -0.0655
  111CHL1    H614410   3.552   0.864   6.350  0.9004  1.7210 -0.5640
  111CHL1    C714411   3.545   0.768   6.152 -0.2197 -0.1374  0.4529
  111CHL1   H7A14412   3.445   0.726   6.173 -0.4113  0.4493  0.7373
  111CHL1   H7B14413   3.541   0.854   6.081  0.2897  0.2107  0.8377
  111CHL1    C814414   3.619   0.650   6.078  0.3273 -0.7669 -0.1609
  111CHL1    H814415   3.585   0.556   6.127 -0.5430  0.2441  1.2810
  111CHL1   C1414416   3.581   0.654   5.927  0.0333 -0.4149  0.9568
  111CHL1   H1414417   3.610   0.757   5.895  1.8235 -0.6271  1.7693
  111CHL1   C1514418   3.429   0.639   5.890 -0.0157  0.1173  0.5787
  111CHL1  H15A14419   3.399   0.551   5.949  0.8425  0.2736  1.2625
  111CHL1  H15B14420   3.377   0.730   5.927  1.1555 -0.1408  3.0788
  111CHL1   C1614421   3.439   0.614   5.737  0.4446  0.8052  0.8253
  111CHL1  H16A14422   3.364   0.532   5.730 -1.1215  2.1651  1.1954
  111CHL1  H16B14423   3.403   0.699   5.675  3.0432 -0.0843 -2.1475
  111CHL1   C1714424   3.587   0.582   5.699  0.0592 -0.4434 -0.3744
  111CHL1   H1714425   3.627   0.682   5.669 -0.1575  0.0070  0.7528
  111CHL1   C1314426   3.657   0.554   5.836 -0.7190 -0.1803  0.4862
  111CHL1   C1814427   3.621   0.414   5.884  0.3501 -0.3523  0.0956
  111CHL1  H18A14428   3.514   0.393   5.862 -0.5914  1.3439  2.5430
  111CHL1  H18B14429   3.674   0.330   5.835 -1.2021 -1.0542 -0.4458
  111CHL1  H18C14430   3.633   0.394   5.993  0.1030 -2.6698 -0.2490
  111CHL1   C1214431   3.807   0.585   5.854 -0.3837 -0.6599  0.4157
  111CHL1  H12A14432   3.869   0.526   5.783 -2.7423 -3.1086  0.1979
  111CHL1  H12B14433   3.823   0.692   5.828  0.1345 -0.3659  1.8593
  111CHL1   C1114434   3.856   0.577   5.998  0.6805  0.4158 -0.5718
  111CHL1  H11A14435   3.851   0.471   6.033 -1.7946  1.1246  1.5116
  111CHL1  H11B14436   3.963   0.605   5.989  1.2831 -2.0594 -2.1077
  111CHL1    C914437   3.770   0.667   6.091 -0.0632 -0.7273 -0.2027
  111CHL1    H914438   3.791   0.768   6.049 -1.1841 -0.5771 -0.4315
  111CHL1   C1014439   3.824   0.663   6.238  0.5246 -0.7752  1.0232
  111CHL1   C1914440   3.828   0.514   6.284  0.7347 -1.0581  0.3559
  111CHL1  H19A14441   3.732   0.458   6.274  0.6956 -0.9543  0.1530
  111CHL1  H19B14442   3.901   0.454   6.226 -0.6479 -1.4821 -1.0254
  111CHL1  H19C14443   3.865   0.511   6.388 -0.3235 -0.4454  0.7671
  111CHL1    C114444   3.974   0.719   6.256  0.2792 -1.1567 -1.0529
  111CHL1   H1A14445   4.060   0.658   6.220  1.9059  0.1448  0.4107
  111CHL1   H1B14446   3.996   0.810   6.197  3.9082 -0.1898  1.4150
  111CHL1    C214447   4.012   0.756   6.408  0.5574  0.6744  0.1819
  111CHL1   H2A14448   4.112   0.803   6.417  0.2563  1.1044  1.5608
  111CHL1   H2B14449   4.018   0.661   6.465 -2.0859  0.3816  0.0733
  111CHL1   C2014450   3.603   0.484   5.580  0.2057  0.0642 -0.4012
  111CHL1   H2014451   3.565   0.386   5.616  0.0335 -1.2260 -3.7629
  111CHL1   C2114452   3.749   0.474   5.544 -0.2498  0.0548 -0.3866
  111CHL1  H21A14453   3.798   0.573   5.542  0.3142 -0.2233 -1.6630
  111CHL1  H21B14454   3.759   0.422   5.446  0.8171 -1.1597  0.3323
  111CHL1  H21C14455   3.797   0.402   5.614 -1.0321 -0.7345 -0.6346
  111CHL1   C2214456   3.517   0.521   5.458 -0.2198 -0.2738 -0.3738
  111CHL1  H22A14457   3.412   0.531   5.492 -0.0925  2.0252 -0.5337
  111CHL1  H22B14458   3.549   0.622   5.424  0.1181 -0.0956  0.4314
  111CHL1   C2314459   3.491   0.413   5.348 -0.0734 -0.3638 -0.2450
  111CHL1  H23A14460   3.583   0.374   5.299 -0.0556  0.8035 -1.1898
  111CHL1  H23B14461   3.433   0.327   5.387 -0.2283 -0.2744 -0.2797
  111CHL1   C2414462   3.392   0.463   5.239  0.5071  0.1511  0.3426
  111CHL1  H24A14463   3.288   0.473   5.276 -0.3963  1.0735 -2.2300
  111CHL1  H24B14464   3.418   0.564   5.199  0.3754 -0.3679 -1.1142
  111CHL1   C2514465   3.384   0.369   5.121  0.2149 -0.1457  0.4678
  111CHL1   H2514466   3.488   0.347   5.089  0.2134  0.3339  0.1189
  111CHL1   C2614467   3.309   0.237   5.151  0.1557  0.8348  1.3224
  111CHL1  H26A14468   3.368   0.147   5.179 -2.3265 -1.4669 -0.4189
  111CHL1  H26B14469   3.223   0.256   5.219 -0.9146  0.6660  0.0502
  111CHL1  H26C14470   3.270   0.214   5.050  0.5247  2.0636  0.8780
  111CHL1   C2714471   3.315   0.447   5.002 -0.6100  0.0897  0.1131
  111CHL1  H27A14472   3.300   0.380   4.915 -1.1177 -2.1990  1.8733
  111CHL1  H27B14473   3.212   0.475   5.031 -0.7997  0.1898 -0.6413
  111CHL1  H27C14474   3.361   0.546   4.980 -0.5445  0.3218  1.2238
  112CHL1    C314475   5.233   1.172   6.613 -0.8236 -0.0713 -0.1447
  112CHL1    H314476   5.338   1.148   6.588  0.2456  2.0028  1.8929
  112CHL1    O314477   5.232   1.280   6.704 -0.3863 -0.7018  0.1533
  112CHL1   H3'14478   5.150   1.329   6.692 -0.1514  0.6132  2.9772
  112CHL1    C414479   5.179   1.236   6.481 -0.5711  0.1107  0.0338
  112CHL1   H4A14480   5.084   1.287   6.511 -0.7951 -1.4938  2.3048
  112CHL1   H4B14481   5.251   1.316   6.451  1.1322 -0.2089  2.8890
  112CHL1    C514482   5.149   1.138   6.367  0.2114  0.1726 -0.2529
  112CHL1    C614483   5.193   1.156   6.243  0.2682  0.0569  0.4660
  112CHL1    H614484   5.232   1.257   6.221 -1.9333  0.7069 -0.6882
  112CHL1    C714485   5.166   1.056   6.132 -0.0232 -0.1569 -0.1041
  112CHL1   H7A14486   5.128   1.118   6.048  0.0762  2.0552  1.3715
  112CHL1   H7B14487   5.264   1.012   6.102 -1.1131 -2.7082 -0.1507
  112CHL1    C814488   5.062   0.957   6.159 -0.4275 -0.1665  0.4250
  112CHL1    H814489   4.970   1.019   6.155  0.4085  1.1164  0.4194
  112CHL1   C1414490   5.043   0.853   6.055 -0.1971 -0.5998 -0.6343
  112CHL1   H1414491   5.137   0.794   6.062  0.7446  1.0052  3.4200
  112CHL1   C1514492   5.034   0.907   5.911 -0.4317  0.6654 -0.7691
  112CHL1  H15A14493   4.966   0.995   5.912 -2.4657 -0.8136 -1.8573
  112CHL1  H15B14494   5.137   0.932   5.877  1.3339 -2.5962  1.5627
  112CHL1   C1614495   4.976   0.791   5.834 -0.0950 -0.2893  0.2272
  112CHL1  H16A14496   4.885   0.823   5.780 -2.4620 -1.6849  3.1323
  112CHL1  H16B14497   5.046   0.750   5.758 -2.3822 -1.5704 -1.2978
  112CHL1   C1714498   4.932   0.683   5.937  1.0583  0.5549  0.3400
  112CHL1   H1714499   5.022   0.618   5.946  1.0338  0.7317  2.3274
  112CHL1   C1314500   4.921   0.757   6.078 -0.1483 -0.3374 -0.1774
  112CHL1   C1814501   4.782   0.823   6.083  0.8317 -0.0540 -0.0642
  112CHL1  H18A14502   4.708   0.745   6.112  1.7762 -0.5533  1.0472
  112CHL1  H18B14503   4.781   0.900   6.163  4.8397  1.1001 -0.9305
  112CHL1  H18C14504   4.752   0.872   5.988  0.2074  3.7684  1.9220
  112CHL1   C1214505   4.957   0.683   6.212 -0.3495 -0.7214  0.1939
  112CHL1  H12A14506   4.878   0.607   6.231  0.2576 -1.2419  0.6760
  112CHL1  H12B14507   5.048   0.621   6.204  0.6598  0.7698 -0.4305
  112CHL1   C1114508   4.982   0.778   6.333  0.8434 -0.0789 -0.2282
  112CHL1  H11A14509   4.880   0.803   6.369 -0.5692 -2.6712 -2.0505
  112CHL1  H11B14510   5.033   0.712   6.407  1.9239 -1.2026 -1.8966
  112CHL1    C914511   5.076   0.896   6.299  0.4154  0.3930  0.0387
  112CHL1    H914512   5.173   0.842   6.302  1.3500  1.9973 -0.3525
  112CHL1   C1014513   5.077   1.009   6.407  0.7072 -0.8830 -1.1854
  112CHL1   C1914514   4.924   1.062   6.428 -0.9268  0.6314  0.0956
  112CHL1  H19A14515   4.866   1.080   6.334 -1.4741 -0.3790  0.2239
  112CHL1  H19B14516   4.863   0.990   6.487  1.2353 -1.2085  0.2385
  112CHL1  H19C14517   4.916   1.156   6.485  1.6108 -0.3528  2.2782
  112CHL1    C114518   5.139   0.944   6.542  0.9010  0.0202 -0.2047
  112CHL1   H1A14519   5.071   0.865   6.580  0.3814  1.4152  1.9564
  112CHL1   H1B14520   5.236   0.891   6.526 -0.1091 -2.2559  0.8374
  112CHL1    C214521   5.154   1.048   6.659 -0.2461 -0.0096 -0.2468
  112CHL1   H2A14522   5.183   0.992   6.750  0.0354  0.8760  0.2180
  112CHL1   H2B14523   5.048   1.077   6.675 -1.0353 -1.1978 -2.7154
  112CHL1   C2014524   4.824   0.584   5.890 -0.6135  0.8926  0.0832
  112CHL1   H2014525   4.727   0.632   5.915 -0.4590  0.2372  2.1705
  112CHL1   C2114526   4.828   0.451   5.973 -0.0380  0.0892  0.4353
  112CHL1  H21A14527   4.781   0.472   6.072  1.9543 -2.1846  1.9839
  112CHL1  H21B14528   4.931   0.410   5.968  0.3637  1.1233  0.1592
  112CHL1  H21C14529   4.765   0.375   5.922 -0.7312  1.0816 -0.2318
  112CHL1   C2214530   4.825   0.540   5.740 -0.3506 -0.1044 -0.2394
  112CHL1  H22A14531   4.745   0.463   5.732 -0.6942  0.1903  0.2488
  112CHL1  H22B14532   4.786   0.620   5.673 -0.5859 -1.5693 -1.9217
  112CHL1   C2314533   4.956   0.489   5.671 -0.4697 -0.0459 -0.6832
  112CHL1  H23A14534   5.042   0.559   5.681  0.8158 -1.4540 -1.4679
  112CHL1  H23B14535   4.979   0.389   5.714 -1.4402  0.2072  0.4773
  112CHL1   C2414536   4.954   0.468   5.521 -0.1906  0.0757  0.2298
  112CHL1  H24A14537   4.875   0.397   5.488 -0.1298  1.1197 -2.3639
  112CHL1  H24B14538   4.929   0.564   5.471  0.0571 -0.4553 -0.9350
  112CHL1   C2514539   5.089   0.418   5.465 -0.2244  0.5024 -0.6156
  112CHL1   H2514540   5.169   0.477   5.514 -0.3379 -0.9532  1.4147
  112CHL1   C2614541   5.112   0.267   5.508 -0.0904  0.6449 -0.7095
  112CHL1  H26A14542   5.105   0.244   5.617  0.7481 -1.4332 -1.0487
  112CHL1  H26B14543   5.034   0.216   5.447  0.4814  0.2450 -1.1097
  112CHL1  H26C14544   5.209   0.229   5.470 -0.5892  1.0682 -2.5050
  112CHL1   C2714545   5.099   0.429   5.314 -0.1887 -0.0563 -0.1652
  112CHL1  H27A14546   5.063   0.348   5.247  1.6013  0.5086 -1.9292
  112CHL1  H27B14547   5.046   0.524   5.292  0.9502  0.9319  1.1942
  112CHL1  H27C14548   5.207   0.442   5.290  0.1324 -2.7760 -0.5333
  113CHL1    C314549   1.371   5.762   6.438 -0.2756 -1.1170 -0.0677
  113CHL1    H314550   1.328   5.860   6.466  3.1781  1.3880 -2.6269
  113CHL1    O314551   1.453   5.733   6.549 -0.3921  0.4685  0.4100
  113CHL1   H3'14552   1.506   5.654   6.533 -1.6398 -0.2918 -0.1841
  113CHL1    C414553   1.260   5.653   6.411 -0.5038 -0.9703 -0.3184
  113CHL1   H4A14554   1.319   5.561   6.391 -0.9332 -1.4055  0.3532
  113CHL1   H4B14555   1.199   5.640   6.503 -0.0284 -0.9660 -0.0007
  113CHL1    C514556   1.185   5.687   6.286  0.0580  0.2919 -0.3224
  113CHL1    C614557   1.046   5.712   6.285 -0.8224  0.0272 -0.2401
  113CHL1    H614558   0.993   5.714   6.381 -2.1599  0.4179 -0.9691
  113CHL1    C714559   0.965   5.745   6.166  0.1577  0.5649  0.4713
  113CHL1   H7A14560   0.876   5.679   6.161 -0.9132  1.8548  1.7675
  113CHL1   H7B14561   0.923   5.846   6.180 -0.1450  0.3782  0.9557
  113CHL1    C814562   1.042   5.726   6.033  1.0686  0.8845 -0.3311
  113CHL1    H814563   1.044   5.616   6.022 -0.7192  0.7229  0.6812
  113CHL1   C1414564   0.971   5.793   5.917  0.1694 -0.3153  0.2774
  113CHL1   H1414565   0.975   5.901   5.942 -0.8994 -0.2047  0.0245
  113CHL1   C1514566   0.820   5.761   5.898 -0.7551  0.6319  0.4889
  113CHL1  H15A14567   0.813   5.651   5.906 -0.4128  0.5219 -0.5265
  113CHL1  H15B14568   0.765   5.818   5.975 -1.4586  0.1085  0.3874
  113CHL1   C1614569   0.789   5.811   5.757  0.5130 -0.0776 -0.0183
  113CHL1  H16A14570   0.741   5.728   5.701  2.7147 -2.3797  1.2682
  113CHL1  H16B14571   0.728   5.903   5.760 -1.8805 -1.6037  1.3609
  113CHL1   C1714572   0.932   5.843   5.696  0.3794  0.5815 -0.5626
  113CHL1   H1714573   0.961   5.950   5.706 -0.0275  0.5733  1.0080
  113CHL1   C1314574   1.030   5.770   5.785  0.0220 -0.3659 -0.4277
  113CHL1   C1814575   1.037   5.616   5.756  0.4083 -0.0910  0.0321
  113CHL1  H18A14576   0.933   5.580   5.774  0.1792  0.0110 -1.0147
  113CHL1  H18B14577   1.062   5.601   5.649  0.5544  3.4597 -0.5668
  113CHL1  H18C14578   1.106   5.560   5.821 -2.2877 -2.3941  1.1377
  113CHL1   C1214579   1.168   5.837   5.790  0.2186  0.5742 -0.1427
  113CHL1  H12A14580   1.219   5.829   5.691 -1.0886  1.3945 -0.9259
  113CHL1  H12B14581   1.158   5.947   5.805  1.1837  0.7001 -0.3793
  113CHL1   C1114582   1.255   5.780   5.907  0.2497 -1.2752  0.5006
  113CHL1  H11A14583   1.275   5.675   5.878  0.8571 -1.3551  1.1635
  113CHL1  H11B14584   1.352   5.835   5.909  0.6700 -2.0141  0.9727
  113CHL1    C914585   1.182   5.782   6.047  0.8360 -0.0778  0.4221
  113CHL1    H914586   1.170   5.890   6.070  1.2121  0.2611 -0.8951
  113CHL1   C1014587   1.266   5.714   6.160  0.3785  0.4566  0.0370
  113CHL1   C1914588   1.313   5.573   6.110 -0.0360 -0.4791  0.1966
  113CHL1  H19A14589   1.368   5.515   6.188 -2.6590 -3.5169 -0.0189
  113CHL1  H19B14590   1.223   5.511   6.092 -0.3487  0.2134 -0.6992
  113CHL1  H19C14591   1.372   5.574   6.016  0.3489  2.2760  0.3725
  113CHL1    C114592   1.378   5.815   6.192 -0.0276  0.5682 -0.4868
  113CHL1   H1A14593   1.441   5.815   6.101  1.1529  1.2941  0.2951
  113CHL1   H1B14594   1.332   5.915   6.209  0.0784  0.9861 -2.4603
  113CHL1    C214595   1.465   5.783   6.317  0.0027 -0.1433  0.1330
  113CHL1   H2A14596   1.533   5.867   6.343  0.2320 -0.0831 -0.6372
  113CHL1   H2B14597   1.525   5.689   6.313  1.2408  0.4309  2.7759
  113CHL1   C2014598   0.936   5.806   5.543 -0.6413 -0.3409  0.0191
  113CHL1   H2014599   0.915   5.697   5.534  0.4397 -0.6804  1.3781
  113CHL1   C2114600   1.076   5.831   5.481  0.9623 -0.2319  0.0785
  113CHL1  H21A14601   1.071   5.812   5.371  1.1865 -1.5590  0.2777
  113CHL1  H21B14602   1.159   5.764   5.511  4.0528  1.8540 -2.9345
  113CHL1  H21C14603   1.100   5.937   5.503 -0.5426  0.2116 -0.2588
  113CHL1   C2214604   0.824   5.879   5.466  0.8476  0.3262  0.4327
  113CHL1  H22A14605   0.727   5.869   5.520  1.5397 -2.4818  1.3152
  113CHL1  H22B14606   0.853   5.985   5.486 -0.7569  0.7526  0.6104
  113CHL1   C2314607   0.810   5.850   5.316 -0.2626 -0.4772 -0.0686
  113CHL1  H23A14608   0.899   5.879   5.256  0.1875 -2.0951 -0.2086
  113CHL1  H23B14609   0.799   5.740   5.305 -0.2970 -0.5350  0.5057
  113CHL1   C2414610   0.682   5.920   5.262  0.5943  0.0271  0.0248
  113CHL1  H24A14611   0.590   5.886   5.313  0.9142  0.4619  0.9111
  113CHL1  H24B14612   0.707   6.027   5.277  2.5270 -0.4814  0.8385
  113CHL1   C2514613   0.658   5.889   5.114 -0.2511  0.0694  0.4364
  113CHL1   H2514614   0.738   5.925   5.046  0.8831 -0.9948  1.1643
  113CHL1   C2614615   0.654   5.741   5.097 -0.0937  0.1402 -1.0364
  113CHL1  H26A14616   0.593   5.703   5.181  1.2458  0.9148  0.3455
  113CHL1  H26B14617   0.600   5.718   5.003 -1.2686 -0.6422 -0.1923
  113CHL1  H26C14618   0.751   5.688   5.109 -0.8348 -0.8238  1.1273
  113CHL1   C2714619   0.523   5.938   5.067 -0.0746  0.1543  0.0422
  113CHL1  H27A14620   0.534   6.049   5.064  0.7217  0.0581 -1.2216
  113CHL1  H27B14621   0.508   5.904   4.962  0.1569  0.1374  0.0159
  113CHL1  H27C14622   0.433   5.911   5.126  0.7944 -1.1199  0.8212
  114CHL1    C314623   5.487   6.425   6.398 -0.2431 -0.2774  0.0992
  114CHL1    H314624   5.380   6.409   6.374  0.1254 -2.6859 -0.1851
  114CHL1    O314625   5.494   6.440   6.536 -0.3467  0.4665  0.2959
  114CHL1   H3'14626   5.588   6.434   6.556  0.0086 -0.4884 -1.4517
  114CHL1    C414627   5.579   6.310   6.342  0.3256  0.5196 -0.1027
  114CHL1   H4A14628   5.682   6.317   6.381  0.0803 -0.7238  0.8322
  114CHL1   H4B14629   5.544   6.220   6.396  0.7370  2.6253  4.0444
  114CHL1    C514630   5.575   6.306   6.186  0.3869 -0.2035 -0.4529
  114CHL1    C614631   5.535   6.195   6.117  0.1063  0.1063  0.1425
  114CHL1    H614632   5.521   6.099   6.169  2.3084  0.2658  1.1265
  114CHL1    C714633   5.507   6.184   5.969  0.3368 -0.0670 -0.1563
  114CHL1   H7A14634   5.538   6.087   5.926 -0.7816 -0.5556  0.0909
  114CHL1   H7B14635   5.398   6.193   5.950  0.1982 -1.1258  0.1146
  114CHL1    C814636   5.587   6.300   5.901 -0.1154  0.0823 -0.5012
  114CHL1    H814637   5.693   6.265   5.900 -0.2610 -0.4148 -2.0505
  114CHL1   C1414638   5.554   6.313   5.752 -0.3406 -0.7671 -0.4226
  114CHL1   H1414639   5.446   6.335   5.741 -0.2296  0.7042  1.0338
  114CHL1   C1514640   5.573   6.189   5.665  0.1698  0.3195 -0.3626
  114CHL1  H15A14641   5.672   6.143   5.688  0.3782  1.1571  0.4859
  114CHL1  H15B14642   5.496   6.115   5.697  1.4770 -0.5518  0.9412
  114CHL1   C1614643   5.556   6.238   5.513 -0.6004  0.0345 -0.0667
  114CHL1  H16A14644   5.645   6.190   5.467 -0.0534  0.6880  0.2848
  114CHL1  H16B14645   5.464   6.188   5.475 -2.4813  0.2713  3.6315
  114CHL1   C1714646   5.564   6.394   5.528  0.4030 -0.0425  0.5773
  114CHL1   H1714647   5.458   6.428   5.531  0.6212  0.7172  0.1029
  114CHL1   C1314648   5.622   6.422   5.667 -0.1384 -0.3924 -0.9472
  114CHL1   C1814649   5.773   6.402   5.672 -0.2212 -0.8810 -0.1260
  114CHL1  H18A14650   5.832   6.492   5.645  1.4635 -2.0580 -0.4834
  114CHL1  H18B14651   5.803   6.383   5.777 -0.7172  0.5101  0.2838
  114CHL1  H18C14652   5.811   6.320   5.607  0.6852 -1.6698  1.3463
  114CHL1   C1214653   5.573   6.554   5.731  0.3953  0.5926  0.0712
  114CHL1  H12A14654   5.615   6.644   5.681  0.1479  0.7697  0.1769
  114CHL1  H12B14655   5.463   6.555   5.721  0.1362 -3.1378  1.1350
  114CHL1   C1114656   5.612   6.545   5.881  0.0321 -0.1660 -0.5514
  114CHL1  H11A14657   5.723   6.551   5.884  0.1034 -1.1988 -0.7894
  114CHL1  H11B14658   5.576   6.640   5.927 -0.1023 -1.5826  2.5651
  114CHL1    C914659   5.569   6.433   5.969  0.3990 -0.0122  0.7422
  114CHL1    H914660   5.459   6.441   5.973  0.3775 -0.1831  0.5022
  114CHL1   C1014661   5.602   6.440   6.119 -0.2702 -0.8434 -0.0031
  114CHL1   C1914662   5.750   6.451   6.141 -0.3456 -0.0914  0.3281
  114CHL1  H19A14663   5.785   6.550   6.105  0.4620 -0.5653 -0.2229
  114CHL1  H19B14664   5.781   6.452   6.248 -1.1126 -0.9035  0.5667
  114CHL1  H19C14665   5.807   6.379   6.078  0.7030  1.1687 -0.2319
  114CHL1    C114666   5.518   6.553   6.184  0.0376 -0.1439  0.8035
  114CHL1   H1A14667   5.555   6.650   6.143 -0.9332 -0.7369 -1.6433
  114CHL1   H1B14668   5.410   6.546   6.157  0.3523 -0.3359 -0.4796
  114CHL1    C214669   5.531   6.561   6.340  0.2226  0.9705 -0.0843
  114CHL1   H2A14670   5.473   6.646   6.382 -1.2741  0.2202 -0.5531
  114CHL1   H2B14671   5.639   6.566   6.366  0.6083  0.3707 -1.4679
  114CHL1   C2014672   5.633   6.465   5.407 -0.3579  0.4724  0.1547
  114CHL1   H2014673   5.725   6.405   5.392 -0.8777 -0.0447 -1.1984
  114CHL1   C2114674   5.668   6.613   5.429  0.5723  0.0786  0.0563
  114CHL1  H21A14675   5.753   6.631   5.498  1.4033 -1.7191 -0.4435
  114CHL1  H21B14676   5.568   6.649   5.461 -0.5307 -1.3956 -1.5691
  114CHL1  H21C14677   5.699   6.675   5.342  0.9421  1.3611  1.0783
  114CHL1   C2214678   5.550   6.453   5.271 -0.1872  0.6956  0.6076
  114CHL1  H22A14679   5.617   6.509   5.202  0.1737 -0.2015  0.1989
  114CHL1  H22B14680   5.549   6.344   5.247  0.5409  0.4521  1.6071
  114CHL1   C2314681   5.412   6.511   5.272 -0.2992  0.2909 -0.9739
  114CHL1  H23A14682   5.371   6.480   5.370  1.5672  2.1085  0.4753
  114CHL1  H23B14683   5.414   6.622   5.257  1.1161  0.2084 -1.5289
  114CHL1   C2414684   5.311   6.462   5.163  0.1490 -0.6958  0.0043
  114CHL1  H24A14685   5.297   6.353   5.153 -2.5786 -0.3614 -0.4846
  114CHL1  H24B14686   5.219   6.500   5.212 -0.1135 -2.3445  0.8323
  114CHL1   C2514687   5.315   6.525   5.016 -0.1044 -0.2441  0.2111
  114CHL1   H2514688   5.345   6.632   5.014 -1.9009  0.3252  1.4147
  114CHL1   C2614689   5.421   6.447   4.928  0.7082  0.5320  0.1059
  114CHL1  H26A14690   5.387   6.344   4.903 -1.1389  0.8523  1.1507
  114CHL1  H26B14691   5.450   6.509   4.840  2.9349  0.7402  0.9189
  114CHL1  H26C14692   5.517   6.445   4.984  0.6335  2.7489  0.4169
  114CHL1   C2714693   5.174   6.517   4.958  0.2439  0.0367 -0.0211
  114CHL1  H27A14694   5.098   6.561   5.026  1.3876  3.4828 -0.7365
  114CHL1  H27B14695   5.166   6.573   4.862 -2.3164  0.2305  0.2498
  114CHL1  H27C14696   5.167   6.410   4.932  0.4243  0.6951 -3.2816
  115CHL1    C314697   2.901   1.457   6.679 -0.2770  0.4197  0.1295
  115CHL1    H314698   3.000   1.406   6.672 -0.4168 -0.0119  1.1751
  115CHL1    O314699   2.857   1.473   6.811  0.2666  0.4702 -0.2357
  115CHL1   H3'14700   2.764   1.494   6.804 -0.1335 -0.8709  0.6759
  115CHL1    C414701   2.914   1.595   6.625 -0.6226  0.5715 -0.0814
  115CHL1   H4A14702   2.810   1.632   6.632 -0.9140  0.2474 -2.0337
  115CHL1   H4B14703   2.982   1.654   6.691 -0.5719  0.9494 -0.4674
  115CHL1    C514704   2.957   1.601   6.480  0.5412 -0.3308  0.2870
  115CHL1    C614705   3.069   1.672   6.445  1.2791  0.0003  0.6148
  115CHL1    H614706   3.127   1.719   6.525  1.2053  1.9554 -0.4109
  115CHL1    C714707   3.120   1.688   6.307  0.2494  0.7243 -0.3590
  115CHL1   H7A14708   3.147   1.793   6.283 -1.3836  1.2072 -0.2135
  115CHL1   H7B14709   3.208   1.621   6.295  0.7604  1.3634 -0.2799
  115CHL1    C814710   3.016   1.632   6.201 -0.1324 -0.0343  0.1430
  115CHL1    H814711   2.948   1.717   6.180  0.2562 -0.6167 -4.3300
  115CHL1   C1414712   3.083   1.610   6.061  0.5723  0.0244  0.2157
  115CHL1   H1414713   3.156   1.528   6.079  3.2242  2.2900  0.4516
  115CHL1   C1514714   3.177   1.716   6.007  0.3050 -1.0931  0.5796
  115CHL1  H15A14715   3.133   1.818   6.005 -0.2594 -1.3230  1.0332
  115CHL1  H15B14716   3.268   1.736   6.068  2.4842  2.5292 -3.3033
  115CHL1   C1614717   3.197   1.679   5.856  0.1673 -0.6199 -0.5929
  115CHL1  H16A14718   3.194   1.773   5.797 -0.1711 -1.1211 -1.4008
  115CHL1  H16B14719   3.298   1.635   5.839 -0.1547 -1.2912 -0.7790
  115CHL1   C1714720   3.087   1.571   5.825 -0.2439 -0.4707 -0.3466
  115CHL1   H1714721   3.148   1.478   5.834 -0.7805 -0.8367 -0.4162
  115CHL1   C1314722   2.987   1.572   5.942  0.5262  0.1583 -0.0686
  115CHL1   C1814723   2.895   1.689   5.908  0.4122 -0.4828 -0.2637
  115CHL1  H18A14724   2.949   1.781   5.877 -2.6422  0.6870 -2.6911
  115CHL1  H18B14725   2.822   1.667   5.828  1.3308  2.2868 -2.0352
  115CHL1  H18C14726   2.850   1.713   6.007 -1.2585 -2.9150 -0.3614
  115CHL1   C1214727   2.904   1.446   5.983 -0.0719  0.0289 -0.1387
  115CHL1  H12A14728   2.825   1.412   5.913  0.5902  1.8262 -1.8833
  115CHL1  H12B14729   2.976   1.361   5.986 -0.8397 -0.6152  0.2839
  115CHL1   C1114730   2.850   1.448   6.129  0.1517  0.0785 -0.1043
  115CHL1  H11A14731   2.768   1.523   6.127 -0.1602 -0.1087  2.2652
  115CHL1  H11B14732   2.814   1.348   6.160  0.0470 -0.9661 -3.2328
  115CHL1    C914733   2.942   1.501   6.243 -0.3533  0.2588 -0.4742
  115CHL1    H914734   3.018   1.422   6.260 -1.5558 -0.7191  0.5846
  115CHL1   C1014735   2.878   1.512   6.383 -0.0254 -0.4669  0.4072
  115CHL1   C1914736   2.741   1.594   6.358  0.0982 -0.0930 -0.7823
  115CHL1  H19A14737   2.761   1.687   6.300 -1.0340 -0.6885 -2.2092
  115CHL1  H19B14738   2.670   1.526   6.307 -0.7387  1.6955 -2.1294
  115CHL1  H19C14739   2.675   1.614   6.444  0.0569 -1.0312 -0.5858
  115CHL1    C114740   2.838   1.372   6.455  0.2049  0.2908  0.2070
  115CHL1   H1A14741   2.755   1.327   6.396  0.6345 -0.6629  0.3049
  115CHL1   H1B14742   2.924   1.302   6.462 -1.4565 -1.7003  2.6970
  115CHL1    C214743   2.796   1.384   6.601 -0.6774  0.2113  0.1890
  115CHL1   H2A14744   2.770   1.287   6.648 -2.2105  1.0395  1.1542
  115CHL1   H2B14745   2.698   1.437   6.603 -0.7332  0.3021 -2.1257
  115CHL1   C2014746   3.042   1.579   5.681  0.7239  0.1981  0.1089
  115CHL1   H2014747   2.987   1.673   5.658  1.2147  0.4134 -0.1955
  115CHL1   C2114748   2.938   1.464   5.654 -0.3554 -0.5133  0.3675
  115CHL1  H21A14749   2.837   1.498   5.686 -0.4480 -0.0073 -0.4287
  115CHL1  H21B14750   2.969   1.362   5.685  1.0837 -0.2112  0.0121
  115CHL1  H21C14751   2.927   1.459   5.543 -1.3660 -2.1367  0.5025
  115CHL1   C2214752   3.160   1.559   5.590  0.9741  0.1566  0.5702
  115CHL1  H22A14753   3.239   1.633   5.616 -0.8052  2.4393 -0.1073
  115CHL1  H22B14754   3.200   1.456   5.598 -1.2217 -0.7337  0.6339
  115CHL1   C2314755   3.123   1.587   5.442  0.3138  0.4140 -0.1566
  115CHL1  H23A14756   3.207   1.568   5.371  2.6598 -2.8937  3.1191
  115CHL1  H23B14757   3.039   1.524   5.406 -0.2611  1.0147  0.1095
  115CHL1   C2414758   3.087   1.737   5.432 -0.5214  0.0779  0.3329
  115CHL1  H24A14759   2.989   1.750   5.483 -0.6933 -1.1092  0.3509
  115CHL1  H24B14760   3.164   1.804   5.475 -1.4123  0.6572  1.0671
  115CHL1   C2514761   3.079   1.787   5.283 -0.1041 -0.2660  0.7104
  115CHL1   H2514762   3.178   1.776   5.234 -0.4069 -0.5844  0.1597
  115CHL1   C2614763   2.969   1.711   5.195  0.4977 -0.1157 -0.6698
  115CHL1  H26A14764   2.958   1.763   5.098  1.6133  1.0574 -0.1919
  115CHL1  H26B14765   2.997   1.603   5.193 -1.1304 -0.5534 -1.2541
  115CHL1  H26C14766   2.869   1.721   5.241  0.1115 -0.4128 -1.4305
  115CHL1   C2714767   3.043   1.934   5.275 -0.5306  0.3642 -0.2771
  115CHL1  H27A14768   3.122   2.000   5.317  0.4854 -1.4654  0.7593
  115CHL1  H27B14769   3.034   1.966   5.169  1.9855 -0.9396 -0.9678
  115CHL1  H27C14770   2.945   1.957   5.322 -0.0649  0.7559  0.5230
  116CHL1    C314771   3.203   1.025   6.586 -0.3193  0.0599 -0.0562
  116CHL1    H314772   3.098   0.990   6.596 -0.2614 -0.1146 -0.0588
  116CHL1    O314773   3.249   1.037   6.721  0.0762 -0.2993 -0.0889
  116CHL1   H3'14774   3.233   0.957   6.772  0.1296  0.9143  1.9260
  116CHL1    C414775   3.282   0.914   6.513  0.8870 -0.4465 -0.4799
  116CHL1   H4A14776   3.385   0.955   6.504 -0.4974  3.2798 -0.8066
  116CHL1   H4B14777   3.272   0.823   6.576 -4.1047 -1.2890 -2.0524
  116CHL1    C514778   3.230   0.898   6.370  0.8709  0.1600 -0.3397
  116CHL1    C614779   3.198   0.777   6.320 -0.2960 -0.7491  0.8192
  116CHL1    H614780   3.217   0.693   6.388  3.7621 -0.4466  0.3116
  116CHL1    C714781   3.145   0.751   6.185  0.6900 -0.0200  0.4281
  116CHL1   H7A14782   3.184   0.655   6.145 -2.1427 -0.7341 -0.8818
  116CHL1   H7B14783   3.040   0.717   6.201  0.7049 -0.2453  0.0615
  116CHL1    C814784   3.162   0.870   6.088 -0.1952 -0.0399  0.1108
  116CHL1    H814785   3.270   0.875   6.061 -0.6829  1.7034 -1.7170
  116CHL1   C1414786   3.080   0.856   5.967 -0.3820 -0.2276  0.1003
  116CHL1   H1414787   2.976   0.866   6.003  0.1480  0.2529  1.5833
  116CHL1   C1514788   3.075   0.715   5.903 -0.2728  0.3069  0.1985
  116CHL1  H15A14789   3.176   0.681   5.873  0.0755  0.6142  1.0057
  116CHL1  H15B14790   3.040   0.638   5.974  3.6470 -0.7047  1.2695
  116CHL1   C1614791   2.987   0.741   5.778  0.3730 -0.7680  0.3558
  116CHL1  H16A14792   2.999   0.666   5.697 -2.3678 -2.5084  1.3996
  116CHL1  H16B14793   2.881   0.728   5.810 -0.2579  2.0082 -0.3631
  116CHL1   C1714794   3.001   0.897   5.748 -0.1456  0.3559 -0.1455
  116CHL1   H1714795   2.901   0.942   5.764  0.1549  1.3873 -1.0132
  116CHL1   C1314796   3.093   0.958   5.854 -1.1258  0.7979 -0.3729
  116CHL1   C1814797   3.244   0.950   5.804 -0.0164 -1.0188 -0.8421
  116CHL1  H18A14798   3.315   0.984   5.882  1.1367  1.0215 -2.6579
  116CHL1  H18B14799   3.266   0.848   5.764 -0.3275 -0.7867 -1.6308
  116CHL1  H18C14800   3.258   1.033   5.732  0.8202  0.5781  1.0720
  116CHL1   C1214801   3.054   1.097   5.919 -0.1880  0.4133 -0.2509
  116CHL1  H12A14802   3.071   1.184   5.851 -1.3825  1.0335  0.2107
  116CHL1  H12B14803   2.946   1.089   5.943 -1.1026  4.2303 -2.2174
  116CHL1   C1114804   3.139   1.126   6.050 -0.2637 -0.0927 -0.4977
  116CHL1  H11A14805   3.243   1.144   6.016  0.4287 -1.3521  0.8491
  116CHL1  H11B14806   3.090   1.216   6.092 -0.2932 -0.4854  0.3297
  116CHL1    C914807   3.124   1.007   6.159  0.8110  0.3204 -0.2112
  116CHL1    H914808   3.016   1.007   6.185  0.8284  0.5990 -0.1323
  116CHL1   C1014809   3.208   1.025   6.289 -0.0344 -0.0824 -0.7449
  116CHL1   C1914810   3.357   1.065   6.255  0.6632  0.6073 -0.2107
  116CHL1  H19A14811   3.413   1.001   6.184 -1.5238 -0.6225 -0.9121
  116CHL1  H19B14812   3.354   1.170   6.217 -0.0529  1.0134  0.8889
  116CHL1  H19C14813   3.417   1.072   6.349  0.3818  1.4293 -0.0772
  116CHL1    C114814   3.144   1.136   6.380 -1.5620  0.1402 -0.0531
  116CHL1   H1A14815   3.142   1.230   6.320 -1.9736 -0.3180 -0.7674
  116CHL1   H1B14816   3.035   1.118   6.393 -1.7106  1.5034  0.8940
  116CHL1    C214817   3.213   1.158   6.521 -0.6664  0.1737 -0.4838
  116CHL1   H2A14818   3.166   1.239   6.580 -0.8514  0.3429 -0.8623
  116CHL1   H2B14819   3.319   1.181   6.499 -0.5664 -0.2724 -0.4861
  116CHL1   C2014820   3.031   0.932   5.601 -0.2462 -0.3230  0.5310
  116CHL1   H2014821   3.133   0.896   5.574  0.2915 -1.3241  3.5461
  116CHL1   C2114822   3.007   1.089   5.587 -0.0720 -0.2476  0.6762
  116CHL1  H21A14823   3.011   1.125   5.482 -0.4559 -0.7342  0.4861
  116CHL1  H21B14824   3.080   1.140   5.653 -1.1378  0.9669  0.9484
  116CHL1  H21C14825   2.903   1.102   5.624  0.1119 -0.1234  1.1571
  116CHL1   C2214826   2.928   0.863   5.507  0.8455  0.1282 -0.3484
  116CHL1  H22A14827   2.935   0.753   5.516  0.6380 -0.0459 -2.0198
  116CHL1  H22B14828   2.825   0.884   5.541  0.0118  1.5756 -3.3711
  116CHL1   C2314829   2.937   0.877   5.353 -0.8570  0.7763  0.4682
  116CHL1  H23A14830   2.850   0.842   5.294  0.1929  0.5942 -1.0311
  116CHL1  H23B14831   2.938   0.984   5.326 -2.1143  0.5452 -0.5798
  116CHL1   C2414832   3.060   0.811   5.293 -0.6644  0.3640  0.1879
  116CHL1  H24A14833   3.150   0.865   5.330 -0.5097 -0.9981  1.9530
  116CHL1  H24B14834   3.077   0.708   5.332  0.2173  0.0922 -0.8675
  116CHL1   C2514835   3.049   0.805   5.147 -0.4977 -0.2147  0.6447
  116CHL1   H2514836   2.961   0.748   5.109 -0.2709 -1.3196  1.7226
  116CHL1   C2614837   3.028   0.948   5.089 -0.5154  0.4647 -0.1103
  116CHL1  H26A14838   3.065   0.943   4.984 -0.4603 -0.6910 -0.0566
  116CHL1  H26B14839   2.923   0.983   5.077 -0.7707 -0.3075 -0.2235
  116CHL1  H26C14840   3.097   1.024   5.131  0.1108 -0.5009  0.6546
  116CHL1   C2714841   3.175   0.748   5.085  0.0266 -0.9696 -0.1519
  116CHL1  H27A14842   3.181   0.641   5.118  1.6673 -1.1075 -0.8185
  116CHL1  H27B14843   3.157   0.762   4.977 -2.8068 -1.0519  0.2400
  116CHL1  H27C14844   3.272   0.793   5.116 -0.8503  0.2755  0.8812
  117CHL1    C314845   6.226   7.063   6.439 -0.2939  0.3513  0.1040
  117CHL1    H314846   6.123   7.102   6.420 -0.5037 -0.7713 -1.1995
  117CHL1    O314847   6.270   7.090   6.576 -0.4100 -0.2904  0.1997
  117CHL1   H3'14848   6.348   7.035   6.578 -0.3618 -0.2288  0.0731
  117CHL1    C414849   6.226   6.907   6.414 -0.1374 -0.2934 -1.1620
  117CHL1   H4A14850   6.325   6.869   6.446  0.0540 -0.9924 -2.5238
  117CHL1   H4B14851   6.149   6.856   6.477  1.3078 -1.0079  0.0914
  117CHL1    C514852   6.200   6.873   6.271  0.0366 -0.3950 -0.0557
  117CHL1    C614853   6.089   6.803   6.233  0.7226  0.1205 -0.2302
  117CHL1    H614854   6.025   6.767   6.315 -0.1713  0.3464 -0.8113
  117CHL1    C714855   6.050   6.766   6.101  0.6159 -0.0773  0.6324
  117CHL1   H7A14856   6.023   6.658   6.105  1.4955 -0.3084  0.4212
  117CHL1   H7B14857   5.958   6.818   6.067  0.6403 -1.0092 -0.9688
  117CHL1    C814858   6.163   6.799   5.999 -0.5138  0.2803 -1.1249
  117CHL1    H814859   6.234   6.715   6.017 -2.8083 -1.3122  1.2647
  117CHL1   C1414860   6.099   6.800   5.857 -0.2160  0.2639 -0.2365
  117CHL1   H1414861   6.033   6.889   5.853 -2.3469 -1.1398  1.0220
  117CHL1   C1514862   6.016   6.675   5.831  0.4464  0.2948  0.5643
  117CHL1  H15A14863   6.074   6.591   5.877  1.7153  0.9277  0.1743
  117CHL1  H15B14864   5.911   6.671   5.867 -0.8493  3.1731 -2.3653
  117CHL1   C1614865   6.034   6.659   5.679  0.3440  0.3735 -0.3779
  117CHL1  H16A14866   6.078   6.561   5.650  0.8379  0.5233 -0.1494
  117CHL1  H16B14867   5.942   6.661   5.618  1.2110 -0.9170 -1.7777
  117CHL1   C1714868   6.124   6.780   5.630  0.5466  0.2099  0.4016
  117CHL1   H1714869   6.054   6.866   5.627  0.6317  0.2641 -0.2073
  117CHL1   C1314870   6.209   6.817   5.754 -0.2131  0.3896  0.0132
  117CHL1   C1814871   6.314   6.700   5.765 -0.9123  0.4418 -0.0649
  117CHL1  H18A14872   6.404   6.697   5.700  0.4114  0.7368  1.6772
  117CHL1  H18B14873   6.354   6.700   5.868 -1.6828  1.0446  0.2433
  117CHL1  H18C14874   6.256   6.607   5.748 -0.4760  0.3771 -1.3425
  117CHL1   C1214875   6.274   6.956   5.766 -0.0475  0.3621 -0.4045
  117CHL1  H12A14876   6.355   6.966   5.690 -0.2971  0.1765 -0.6967
  117CHL1  H12B14877   6.192   7.028   5.744  0.5195  0.6889 -1.5568
  117CHL1   C1114878   6.338   6.978   5.907 -0.0986 -0.1129  0.7620
  117CHL1  H11A14879   6.420   6.904   5.915 -0.3098 -0.4699 -0.2688
  117CHL1  H11B14880   6.380   7.080   5.923 -1.1281  0.1326  2.0605
  117CHL1    C914881   6.239   6.931   6.022 -0.8353 -0.2604  0.3333
  117CHL1    H914882   6.165   7.013   6.014  0.2687  0.6814 -0.7179
  117CHL1   C1014883   6.294   6.945   6.168  0.7659  1.1809 -0.0659
  117CHL1   C1914884   6.437   6.878   6.177  0.7010 -0.0372  0.6012
  117CHL1  H19A14885   6.424   6.769   6.161 -1.6582  0.5988 -3.0423
  117CHL1  H19B14886   6.515   6.906   6.103  0.0095  1.0847  0.2730
  117CHL1  H19C14887   6.471   6.895   6.281  0.3480  1.2309  0.5222
  117CHL1    C114888   6.310   7.100   6.197 -0.5384  0.8275  0.6765
  117CHL1   H1A14889   6.397   7.128   6.134 -1.3669 -0.5046 -1.1220
  117CHL1   H1B14890   6.224   7.151   6.149 -1.1612 -1.1899 -0.4795
  117CHL1    C214891   6.322   7.131   6.349 -0.0919 -0.6860  0.4076
  117CHL1   H2A14892   6.321   7.240   6.369 -0.8693 -0.4139 -0.9216
  117CHL1   H2B14893   6.424   7.102   6.383  1.0600  1.0635 -1.3394
  117CHL1   C2014894   6.185   6.760   5.488 -0.1890  0.2188  0.0852
  117CHL1   H2014895   6.253   6.673   5.484 -0.3955 -0.0560  1.9278
  117CHL1   C2114896   6.262   6.882   5.435  0.2355  0.1110  0.0916
  117CHL1  H21A14897   6.315   6.862   5.339  3.0434 -2.3050  1.9777
  117CHL1  H21B14898   6.345   6.915   5.500  0.2796  1.6072 -0.6886
  117CHL1  H21C14899   6.193   6.966   5.411 -2.2700 -2.1826 -1.3041
  117CHL1   C2214900   6.074   6.721   5.385  0.4432  0.5734  0.5108
  117CHL1  H22A14901   6.004   6.642   5.420 -0.8528  1.4298 -0.0465
  117CHL1  H22B14902   6.020   6.813   5.353 -0.2785 -0.3046 -0.9098
  117CHL1   C2314903   6.122   6.655   5.258  0.3270 -0.2602  0.0801
  117CHL1  H23A14904   6.177   6.737   5.207  1.7219 -0.9518  0.4224
  117CHL1  H23B14905   6.191   6.573   5.289 -0.9872 -1.2807  0.3690
  117CHL1   C2414906   6.007   6.599   5.168 -0.4120  0.0219 -0.1756
  117CHL1  H24A14907   5.957   6.517   5.225 -0.1929 -0.3973 -0.5817
  117CHL1  H24B14908   5.929   6.676   5.149 -0.8029  0.0294  1.3535
  117CHL1   C2514909   6.050   6.522   5.040  0.8591 -0.0163 -0.0637
  117CHL1   H2514910   6.122   6.444   5.073  0.4819 -1.4928 -2.5359
  117CHL1   C2614911   5.924   6.457   4.978 -0.6797  0.8180 -0.1042
  117CHL1  H26A14912   5.894   6.371   5.041 -3.2854  1.4380 -0.3836
  117CHL1  H26B14913   5.832   6.515   4.959 -1.5135 -0.1677  0.8305
  117CHL1  H26C14914   5.953   6.417   4.878  3.1049  1.6057  0.5141
  117CHL1   C2714915   6.116   6.607   4.929  0.1504  1.0746  0.2010
  117CHL1  H27A14916   6.136   6.540   4.843 -0.3221 -0.1857  1.0465
  117CHL1  H27B14917   6.046   6.676   4.877 -1.3293 -1.0279 -0.7326
  117CHL1  H27C14918   6.203   6.669   4.962 -0.5463  1.0637  2.1983
  118CHL1    C314919   0.155   2.759   6.517  0.2252  0.4881 -0.3172
  118CHL1    H314920   0.127   2.653   6.535  0.4771  0.4408 -0.2048
  118CHL1    O314921   0.170   2.818   6.650  0.5682  0.0375  0.5983
  118CHL1   H3'14922   0.245   2.877   6.636 -0.6962  1.2334 -1.7061
  118CHL1    C414923   0.294   2.763   6.448  0.1398  0.4023  0.2015
  118CHL1   H4A14924   0.335   2.867   6.447 -1.3792  1.0417  0.5813
  118CHL1   H4B14925   0.366   2.700   6.503 -0.8075 -3.4942 -2.5729
  118CHL1    C514926   0.286   2.703   6.308 -0.0433 -0.2928 -0.0017
  118CHL1    C614927   0.356   2.592   6.273  0.3292 -0.4358  0.6996
  118CHL1    H614928   0.421   2.538   6.343  0.1570  1.7769  2.6881
  118CHL1    C714929   0.334   2.530   6.140 -0.1398 -0.0260 -0.7599
  118CHL1   H7A14930   0.421   2.473   6.103 -0.0285  0.1404 -0.7561
  118CHL1   H7B14931   0.253   2.458   6.165  1.7606 -1.7020  0.9134
  118CHL1    C814932   0.281   2.617   6.032 -0.7763 -0.3037 -0.2913
  118CHL1    H814933   0.352   2.698   6.002  1.9938 -2.2329  0.6815
  118CHL1   C1414934   0.243   2.527   5.911  0.4194 -0.1332  0.2085
  118CHL1   H1414935   0.162   2.457   5.940  2.3087 -1.7349  1.9125
  118CHL1   C1514936   0.339   2.432   5.830 -0.1959 -0.1934  0.4603
  118CHL1  H15A14937   0.438   2.483   5.825 -0.1782 -0.1419  1.2311
  118CHL1  H15B14938   0.356   2.343   5.893  0.2602 -0.4855 -0.0620
  118CHL1   C1614939   0.270   2.407   5.696  0.1842  0.1932 -0.2787
  118CHL1  H16A14940   0.341   2.427   5.613  1.3119 -3.0558 -0.2399
  118CHL1  H16B14941   0.239   2.301   5.685  0.4058  0.1890 -0.9048
  118CHL1   C1714942   0.149   2.501   5.685 -0.2488 -0.4245  0.3085
  118CHL1   H1714943   0.060   2.445   5.721 -0.0759 -0.3417  0.8869
  118CHL1   C1314944   0.173   2.609   5.791 -0.5599 -0.0508 -0.2128
  118CHL1   C1814945   0.272   2.721   5.740 -0.6540 -1.2471 -0.4838
  118CHL1  H18A14946   0.313   2.789   5.817  0.1042  0.1099 -2.0059
  118CHL1  H18B14947   0.365   2.670   5.706  0.9699  0.4795  1.0856
  118CHL1  H18C14948   0.217   2.779   5.663  0.6729  0.5868 -0.1361
  118CHL1   C1214949   0.050   2.674   5.859 -0.3765 -0.8765  0.1013
  118CHL1  H12A14950  -0.013   2.733   5.788  0.8878  2.5501  1.5852
  118CHL1  H12B14951  -0.013   2.590   5.892 -0.6586 -1.0114 -0.7544
  118CHL1   C1114952   0.079   2.765   5.976  0.3153 -0.1337 -0.6572
  118CHL1  H11A14953   0.127   2.860   5.943 -1.3181  0.8537 -0.3334
  118CHL1  H11B14954  -0.014   2.804   6.023  0.0365  1.6725 -2.5602
  118CHL1    C914955   0.158   2.691   6.082 -0.5962  0.8364  0.2337
  118CHL1    H914956   0.087   2.612   6.114  0.9610 -0.6253  0.2190
  118CHL1   C1014957   0.181   2.771   6.213 -0.3354  0.2209 -0.3277
  118CHL1   C1914958   0.231   2.912   6.174  0.0398  0.4472 -1.0513
  118CHL1  H19A14959   0.331   2.903   6.128  0.7757 -0.7093  0.6588
  118CHL1  H19B14960   0.170   2.981   6.112 -1.2577  1.6651  1.4172
  118CHL1  H19C14961   0.233   2.967   6.271 -0.5035  1.3950 -1.5702
  118CHL1    C114962   0.044   2.775   6.286  0.2516  0.0039  0.3115
  118CHL1   H1A14963  -0.041   2.824   6.234 -1.7381 -1.7676  1.6789
  118CHL1   H1B14964   0.011   2.671   6.308  0.5780 -0.6459 -1.9930
  118CHL1    C214965   0.055   2.835   6.431  0.1047 -0.3745  0.0381
  118CHL1   H2A14966  -0.046   2.835   6.478  0.4118  0.2350  0.7044
  118CHL1   H2B14967   0.081   2.942   6.416  0.7699 -0.4495  0.6233
  118CHL1   C2014968   0.113   2.545   5.538 -0.3903 -0.3867  0.0536
  118CHL1   H2014969   0.198   2.610   5.509  1.2647 -1.5898  1.9268
  118CHL1   C2114970  -0.019   2.619   5.524  0.1682  0.0654 -0.9535
  118CHL1  H21A14971  -0.046   2.647   5.420 -2.1390 -1.6192 -0.8855
  118CHL1  H21B14972  -0.029   2.708   5.590  0.5615  0.2808 -1.1825
  118CHL1  H21C14973  -0.099   2.552   5.561  0.4044  0.8622  1.1633
  118CHL1   C2214974   0.115   2.424   5.446 -0.1454  0.5764 -0.1901
  118CHL1  H22A14975   0.204   2.360   5.465 -0.2114  0.9176  1.4373
  118CHL1  H22B14976   0.028   2.362   5.477  0.2547  0.1249  0.0501
  118CHL1   C2314977   0.082   2.450   5.296  0.3681  0.8418  0.6384
  118CHL1  H23A14978   0.063   2.347   5.259 -1.7204  2.0293 -1.9184
  118CHL1  H23B14979  -0.013   2.501   5.269 -1.1366 -1.9883  0.1799
  118CHL1   C2414980   0.199   2.512   5.217 -0.9769 -0.1578  0.8285
  118CHL1  H24A14981   0.225   2.605   5.271 -2.6992  1.2060 -0.5621
  118CHL1  H24B14982   0.286   2.444   5.218 -1.4847 -0.8698 -0.4106
  118CHL1   C2514983   0.167   2.550   5.078 -0.3362 -0.4594 -0.0321
  118CHL1   H2514984   0.084   2.624   5.081 -0.1579 -0.2496 -0.1762
  118CHL1   C2614985   0.286   2.632   5.023 -0.6105  1.0574  0.4724
  118CHL1  H26A14986   0.379   2.572   5.010 -0.2664  1.3409  1.4846
  118CHL1  H26B14987   0.259   2.678   4.926  0.6717  0.8371 -0.0173
  118CHL1  H26C14988   0.316   2.708   5.099  0.5783 -0.2420  1.3431
  118CHL1   C2714989   0.128   2.429   4.992 -0.1620  0.3962  0.2182
  118CHL1  H27A14990   0.043   2.378   5.041  0.2172 -0.5215 -0.0602
  118CHL1  H27B14991   0.085   2.464   4.896  1.3744  1.4801 -0.1247
  118CHL1  H27C14992   0.212   2.360   4.970 -0.4712  0.6808 -2.0913
  119CHL1    C314993   2.352   1.349   6.624 -0.6335  0.2139 -0.0526
  119CHL1    H314994   2.461   1.369   6.636  0.0684 -1.2942 -2.8745
  119CHL1    O314995   2.315   1.290   6.750 -0.3648 -0.0398  0.5806
  119CHL1   H3'14996   2.221   1.277   6.733 -0.2485 -1.3321  0.7824
  119CHL1    C414997   2.269   1.477   6.610  0.1617 -0.0929 -0.6215
  119CHL1   H4A14998   2.163   1.448   6.625  0.4890 -0.9824  0.0436
  119CHL1   H4B14999   2.307   1.543   6.692  3.1386  1.8752 -3.3396
  119CHL1    C515000   2.300   1.541   6.480 -0.3956 -0.0608 -0.1583
  119CHL1    C615001   2.343   1.671   6.469  0.8685  0.1972  0.2155
  119CHL1    H615002   2.343   1.729   6.563  1.0949 -0.2613  0.4995
  119CHL1    C715003   2.380   1.739   6.336 -0.3934 -0.4450  0.3548
  119CHL1   H7A15004   2.339   1.841   6.323 -0.1178 -0.0107  2.5154
  119CHL1   H7B15005   2.488   1.759   6.324 -0.4916 -0.0602  0.1095
  119CHL1    C815006   2.340   1.664   6.203  0.2275 -0.1875  0.2699
  119CHL1    H815007   2.234   1.688   6.180  0.8862 -0.0843 -3.1900
  119CHL1   C1415008   2.431   1.715   6.087 -0.6146 -0.4810  0.2312
  119CHL1   H1415009   2.534   1.683   6.115  0.0475  2.1105  1.0208
  119CHL1   C1515010   2.440   1.863   6.062  0.5573  0.0424 -0.5845
  119CHL1  H15A15011   2.348   1.924   6.074  0.7966  0.0562  1.4349
  119CHL1  H15B15012   2.516   1.919   6.119 -0.3538  2.1332 -1.3079
  119CHL1   C1615013   2.499   1.863   5.919 -0.6232  0.3819 -0.5935
  119CHL1  H16A15014   2.428   1.927   5.862 -1.9622  0.0860  0.6673
  119CHL1  H16B15015   2.597   1.915   5.918 -0.7199  0.6679  0.9584
  119CHL1   C1715016   2.506   1.721   5.863  0.1312 -0.1385 -0.2932
  119CHL1   H1715017   2.601   1.677   5.901 -0.1640 -1.1240 -0.6794
  119CHL1   C1315018   2.398   1.651   5.950  0.4187 -0.3728 -0.4521
  119CHL1   C1815019   2.250   1.692   5.902 -0.4891 -0.2886  0.3608
  119CHL1  H18A15020   2.243   1.801   5.884  3.3834 -0.2353 -1.7161
  119CHL1  H18B15021   2.222   1.638   5.808  2.7203 -0.2820 -0.7022
  119CHL1  H18C15022   2.173   1.673   5.980  0.0920 -0.8000  0.8212
  119CHL1   C1215023   2.405   1.501   5.967 -0.1122  0.0926 -0.3174
  119CHL1  H12A15024   2.383   1.446   5.873  0.8649 -0.2596 -0.3517
  119CHL1  H12B15025   2.510   1.467   5.978 -0.2263 -0.2989 -0.4280
  119CHL1   C1115026   2.330   1.436   6.085 -0.1023 -0.0456 -0.0109
  119CHL1  H11A15027   2.221   1.432   6.064 -0.5512 -0.6507  2.2567
  119CHL1  H11B15028   2.355   1.328   6.093  0.2361 -0.0429 -0.8816
  119CHL1    C915029   2.359   1.514   6.219 -0.5427 -0.0090 -0.1719
  119CHL1    H915030   2.466   1.503   6.248 -1.2856 -0.5843  2.5764
  119CHL1   C1015031   2.293   1.452   6.352 -0.0763 -0.3197 -0.3188
  119CHL1   C1915032   2.147   1.426   6.323 -0.3423  0.0841  0.4835
  119CHL1  H19A15033   2.144   1.344   6.248  1.7565 -0.6968  1.1661
  119CHL1  H19B15034   2.091   1.393   6.412  1.3516  0.3368  1.7070
  119CHL1  H19C15035   2.106   1.517   6.274 -0.7093 -0.4719 -0.2681
  119CHL1    C115036   2.376   1.318   6.376 -0.3679  0.4323  0.0994
  119CHL1   H1A15037   2.363   1.245   6.293 -1.5074 -0.4524  1.0389
  119CHL1   H1B15038   2.481   1.350   6.390  0.6703 -3.0929  1.3887
  119CHL1    C215039   2.335   1.249   6.513 -0.1828 -0.0566  0.6971
  119CHL1   H2A15040   2.403   1.162   6.529 -0.2402 -0.1927  0.2409
  119CHL1   H2B15041   2.230   1.216   6.502 -0.1479 -0.2418  0.9156
  119CHL1   C2015042   2.505   1.722   5.708 -0.2567  0.2494 -0.2652
  119CHL1   H2015043   2.419   1.779   5.666 -2.2146 -0.4227  2.5133
  119CHL1   C2115044   2.480   1.577   5.662 -0.7154 -1.3747 -0.1684
  119CHL1  H21A15045   2.554   1.510   5.711  1.4111  0.2615 -1.0115
  119CHL1  H21B15046   2.496   1.569   5.552  2.0186 -0.0676  0.0671
  119CHL1  H21C15047   2.375   1.549   5.689 -1.4145  2.8246  2.2686
  119CHL1   C2215048   2.637   1.770   5.644  0.4448  0.0739  0.0178
  119CHL1  H22A15049   2.665   1.861   5.702 -2.2177  0.2957  1.1368
  119CHL1  H22B15050   2.713   1.691   5.659  0.5192  0.0024 -0.6991
  119CHL1   C2315051   2.615   1.810   5.497  0.0830 -0.2599 -0.0114
  119CHL1  H23A15052   2.701   1.811   5.427 -2.0208 -0.4115 -2.7817
  119CHL1  H23B15053   2.553   1.733   5.447 -0.1866  0.6725 -1.1494
  119CHL1   C2415054   2.553   1.949   5.485 -1.0402  0.1048  0.3890
  119CHL1  H24A15055   2.497   1.949   5.388  0.7167  1.0010 -0.6740
  119CHL1  H24B15056   2.477   1.969   5.563 -1.2610 -0.3031  0.2814
  119CHL1   C2515057   2.646   2.068   5.455 -0.4986 -0.5742 -0.1802
  119CHL1   H2515058   2.701   2.063   5.359 -0.0220 -1.5896  0.1399
  119CHL1   C2615059   2.575   2.200   5.447  0.9195  0.3023 -0.1316
  119CHL1  H26A15060   2.493   2.181   5.375 -0.0226  0.2990  0.9113
  119CHL1  H26B15061   2.526   2.228   5.543  1.8388 -0.6123  0.6388
  119CHL1  H26C15062   2.646   2.279   5.415  1.2993  0.8593  1.8952
  119CHL1   C2715063   2.758   2.092   5.569  0.3803  0.1530  0.1442
  119CHL1  H27A15064   2.710   2.077   5.668 -1.3258 -1.5602 -0.8684
  119CHL1  H27B15065   2.843   2.023   5.551  0.6418  0.3809  0.4917
  119CHL1  H27C15066   2.806   2.192   5.564 -0.1634  0.3912 -0.4248
  120CHL1    C315067   1.783   0.831   6.422  0.3724  0.0985 -0.5665
  120CHL1    H315068   1.702   0.903   6.449  0.1507  0.3858 -1.9396
  120CHL1    O315069   1.855   0.801   6.538 -0.1669  0.9896 -0.1524
  120CHL1   H3'15070   1.887   0.712   6.523  0.9464  1.5872 -1.5971
  120CHL1    C415071   1.714   0.704   6.374 -0.0859 -0.0144 -0.3492
  120CHL1   H4A15072   1.792   0.633   6.339  0.3986 -0.9572  2.4220
  120CHL1   H4B15073   1.660   0.657   6.459 -1.1445  1.3125 -0.2451
  120CHL1    C515074   1.620   0.747   6.255  0.2921  0.2169 -0.5629
  120CHL1    C615075   1.486   0.739   6.269 -0.2336  0.3319 -0.4828
  120CHL1    H615076   1.435   0.697   6.357 -2.1403  0.6476 -1.3833
  120CHL1    C715077   1.390   0.777   6.158 -0.5362 -0.5424  0.0589
  120CHL1   H7A15078   1.328   0.688   6.134  1.2516 -2.0520  0.7833
  120CHL1   H7B15079   1.318   0.854   6.193  0.4954  0.5557 -0.1934
  120CHL1    C815080   1.461   0.822   6.022  0.6920  0.5512 -0.5108
  120CHL1    H815081   1.490   0.727   5.973 -1.0358 -0.5783  0.5294
  120CHL1   C1415082   1.369   0.902   5.933 -0.4087 -0.2831 -0.6073
  120CHL1   H1415083   1.345   0.996   5.985  2.0571  0.4439 -0.6583
  120CHL1   C1515084   1.235   0.831   5.901 -0.1607 -0.4190  0.3289
  120CHL1  H15A15085   1.246   0.723   5.878 -1.9936 -0.2222 -1.7979
  120CHL1  H15B15086   1.158   0.835   5.981  2.2653 -0.8532  2.8259
  120CHL1   C1615087   1.196   0.899   5.770 -0.6954  0.5264  0.5053
  120CHL1  H16A15088   1.181   0.830   5.685 -2.1096  0.4149  0.8165
  120CHL1  H16B15089   1.105   0.963   5.779  0.3039  2.1125 -0.2634
  120CHL1   C1715090   1.309   1.003   5.728 -0.5010  0.4063 -0.4931
  120CHL1   H1715091   1.285   1.100   5.777  1.5876  1.4645 -1.4162
  120CHL1   C1315092   1.436   0.943   5.801  0.1891 -0.5730  0.0332
  120CHL1   C1815093   1.480   0.825   5.717  0.5807 -0.6709 -0.6046
  120CHL1  H18A15094   1.392   0.762   5.692 -0.1414 -0.0290  0.2681
  120CHL1  H18B15095   1.523   0.871   5.625  0.0867 -0.0322 -0.5197
  120CHL1  H18C15096   1.562   0.768   5.765 -0.1700 -1.0897  0.2022
  120CHL1   C1215097   1.547   1.041   5.828  0.4556 -0.2601  0.1213
  120CHL1  H12A15098   1.600   1.074   5.736 -1.8835  0.6908 -0.9624
  120CHL1  H12B15099   1.504   1.123   5.889 -0.0928 -0.6766  0.3006
  120CHL1   C1115100   1.653   0.977   5.913  0.8219  0.5607 -0.8520
  120CHL1  H11A15101   1.708   0.899   5.855  1.1128  0.8661 -0.9866
  120CHL1  H11B15102   1.720   1.060   5.943  0.9937  0.9900 -2.3357
  120CHL1    C915103   1.587   0.911   6.041 -0.2918  0.2884 -0.4754
  120CHL1    H915104   1.557   1.000   6.101  0.8246  0.3866 -0.0289
  120CHL1   C1015105   1.684   0.832   6.139 -0.5803 -0.2464  0.3529
  120CHL1   C1915106   1.755   0.733   6.049  0.5108  0.3671 -0.4295
  120CHL1  H19A15107   1.687   0.665   5.993 -0.1614 -0.1990  1.0285
  120CHL1  H19B15108   1.812   0.788   5.971 -0.1173 -0.2771 -1.3745
  120CHL1  H19C15109   1.823   0.666   6.106 -1.2021  0.8655  2.3623
  120CHL1    C115110   1.784   0.940   6.192  0.5904  0.6528  0.2250
  120CHL1   H1A15111   1.859   0.969   6.115  0.7637 -1.4744 -0.4784
  120CHL1   H1B15112   1.720   1.025   6.226 -1.1382 -0.3661 -0.3182
  120CHL1    C215113   1.874   0.895   6.313  0.2529 -0.7173 -0.1962
  120CHL1   H2A15114   1.938   0.977   6.351 -0.3607 -0.6395  0.6855
  120CHL1   H2B15115   1.939   0.813   6.274 -1.7076 -1.5043 -1.9776
  120CHL1   C2015116   1.307   1.028   5.576 -0.2593  0.3712  0.3944
  120CHL1   H2015117   1.339   0.933   5.526  1.3556  1.4181 -0.6599
  120CHL1   C2115118   1.409   1.144   5.537 -0.6601  0.9797 -0.9662
  120CHL1  H21A15119   1.369   1.244   5.565  1.0873  1.5910 -0.5654
  120CHL1  H21B15120   1.398   1.157   5.427 -1.7275 -2.1614 -1.3193
  120CHL1  H21C15121   1.515   1.126   5.564 -1.8621 -0.0954  4.0786
  120CHL1   C2215122   1.163   1.069   5.525 -0.6578  0.2037 -0.3630
  120CHL1  H22A15123   1.172   1.092   5.417  0.9038  1.5916  0.0264
  120CHL1  H22B15124   1.092   0.983   5.527  0.3546 -0.6531  1.8550
  120CHL1   C2315125   1.098   1.186   5.592  0.3387  0.3142  0.1198
  120CHL1  H23A15126   1.078   1.166   5.700  1.1153  0.4756  0.2984
  120CHL1  H23B15127   1.164   1.275   5.599  3.1989 -1.6711  0.1983
  120CHL1   C2415128   0.957   1.223   5.529 -0.2732  0.1999  0.2518
  120CHL1  H24A15129   0.960   1.318   5.472 -0.4919 -0.7487 -1.3993
  120CHL1  H24B15130   0.928   1.139   5.461 -0.3221  0.6536 -0.2936
  120CHL1   C2515131   0.845   1.254   5.625  0.5013  0.0193 -0.2878
  120CHL1   H2515132   0.839   1.161   5.685 -1.3556  0.6573  0.5679
  120CHL1   C2615133   0.867   1.389   5.701  0.5596 -0.1176 -0.0923
  120CHL1  H26A15134   0.849   1.480   5.640 -0.8106  0.7767  1.5815
  120CHL1  H26B15135   0.787   1.387   5.778  0.6171  0.6198 -0.0059
  120CHL1  H26C15136   0.964   1.392   5.755 -0.2136 -1.0241  1.4045
  120CHL1   C2715137   0.714   1.263   5.558 -0.5693 -0.2127 -0.1293
  120CHL1  H27A15138   0.726   1.335   5.474  2.1705 -0.5910 -0.1538
  120CHL1  H27B15139   0.679   1.166   5.517 -1.6690  0.2772 -0.3866
  120CHL1  H27C15140   0.644   1.291   5.639  2.4627 -0.3287  2.7205
  121CHL1    C315141   5.087   4.269   3.648 -0.4580  0.4243  0.4900
  121CHL1    H315142   5.071   4.160   3.667 -2.3290  0.4223 -0.8140
  121CHL1    O315143   5.032   4.281   3.514 -0.3834 -0.0360  0.2559
  121CHL1   H3'15144   5.091   4.234   3.455  1.5791  0.7928  1.4631
  121CHL1    C415145   5.019   4.364   3.744 -0.4001 -0.3829 -0.3855
  121CHL1   H4A15146   5.027   4.470   3.712 -0.8736  0.1120  1.0725
  121CHL1   H4B15147   4.909   4.351   3.738 -0.7445  1.7457  0.5644
  121CHL1    C515148   5.068   4.359   3.886 -0.9927 -0.8535  0.6807
  121CHL1    C615149   4.991   4.332   3.987 -0.6334  0.0108  0.4822
  121CHL1    H615150   4.885   4.312   3.965 -1.0736  2.1348  0.4360
  121CHL1    C715151   5.038   4.321   4.126  0.1175 -0.0454 -0.6202
  121CHL1   H7A15152   4.979   4.380   4.200  3.0770  1.6999  0.4991
  121CHL1   H7B15153   5.034   4.218   4.167  0.7815  0.4337  0.6867
  121CHL1    C815154   5.184   4.371   4.150  0.1076 -0.2733 -0.8182
  121CHL1    H815155   5.177   4.481   4.157 -0.2729 -0.3842  1.0108
  121CHL1   C1415156   5.246   4.318   4.280  0.6750  0.6639 -0.5810
  121CHL1   H1415157   5.230   4.208   4.274  0.6030  0.4563  2.1833
  121CHL1   C1515158   5.168   4.352   4.408 -0.3997 -0.2839  1.2094
  121CHL1  H15A15159   5.125   4.454   4.405  1.9675  0.7455 -0.5056
  121CHL1  H15B15160   5.076   4.293   4.427 -0.3141 -0.7094  0.3627
  121CHL1   C1615161   5.268   4.351   4.525  0.2201 -0.0852  0.2633
  121CHL1  H16A15162   5.280   4.456   4.559 -2.3537  0.1704  0.5795
  121CHL1  H16B15163   5.233   4.292   4.612 -0.1003 -0.4800 -0.1305
  121CHL1   C1715164   5.400   4.300   4.458  1.1029  0.6725 -0.0106
  121CHL1   H1715165   5.393   4.190   4.444  2.7081  0.3886  1.0807
  121CHL1   C1315166   5.389   4.352   4.315 -1.1655 -1.0490  0.5404
  121CHL1   C1815167   5.407   4.511   4.324  0.8091  0.0868  0.7931
  121CHL1  H18A15168   5.388   4.565   4.229  0.6817  0.8652  1.2538
  121CHL1  H18B15169   5.337   4.557   4.397 -0.7873 -1.0651  0.0366
  121CHL1  H18C15170   5.510   4.538   4.357  1.6421 -0.1025 -1.4598
  121CHL1   C1215171   5.479   4.301   4.206  0.2821 -0.1369  0.3585
  121CHL1  H12A15172   5.584   4.332   4.223  0.1582 -0.6936  2.4437
  121CHL1  H12B15173   5.481   4.192   4.230 -0.2266 -0.0546  0.8016
  121CHL1   C1115174   5.431   4.336   4.062 -0.7327 -0.0031  0.4453
  121CHL1  H11A15175   5.466   4.440   4.044  0.2134 -0.7495 -2.7366
  121CHL1  H11B15176   5.488   4.278   3.986 -1.9452 -0.5807 -0.0474
  121CHL1    C915177   5.275   4.326   4.034 -0.0339  0.3791 -0.5997
  121CHL1    H915178   5.259   4.216   4.032  2.7838 -0.0878 -1.2574
  121CHL1   C1015179   5.221   4.373   3.896  0.5617  0.3460 -0.5649
  121CHL1   C1915180   5.254   4.519   3.877 -0.4576 -0.5608  0.5530
  121CHL1  H19A15181   5.201   4.566   3.791  2.0146 -0.6971 -1.1527
  121CHL1  H19B15182   5.238   4.567   3.976  1.5488  1.1804  0.1007
  121CHL1  H19C15183   5.363   4.534   3.859 -0.3379  1.0781  2.3380
  121CHL1    C115184   5.286   4.280   3.792  0.3089 -0.3101  0.0277
  121CHL1   H1A15185   5.397   4.290   3.799  0.2173  1.1446 -0.3643
  121CHL1   H1B15186   5.266   4.172   3.809 -2.2169  0.0937 -0.0301
  121CHL1    C215187   5.236   4.293   3.644 -0.4108 -0.2802 -0.4631
  121CHL1   H2A15188   5.286   4.222   3.575 -1.0023  0.1663 -1.3648
  121CHL1   H2B15189   5.246   4.395   3.602 -2.8835  0.3238  0.2303
  121CHL1   C2015190   5.524   4.308   4.542  0.3318 -0.2599  0.5052
  121CHL1   H2015191   5.569   4.403   4.505 -0.7538  0.5574  1.2296
  121CHL1   C2115192   5.628   4.193   4.522  0.1569  0.1471 -0.2599
  121CHL1  H21A15193   5.587   4.100   4.567  0.1879  0.9974  1.6546
  121CHL1  H21B15194   5.734   4.215   4.548  0.8806 -1.4736 -1.6599
  121CHL1  H21C15195   5.639   4.179   4.413  2.6630 -1.8121  0.1541
  121CHL1   C2215196   5.498   4.337   4.684  0.0161  0.2718 -0.2583
  121CHL1  H22A15197   5.441   4.431   4.697 -0.8936 -0.0539 -1.7265
  121CHL1  H22B15198   5.435   4.260   4.734  0.2795  0.6871  0.7427
  121CHL1   C2315199   5.629   4.336   4.769 -0.3071  1.3022  0.7080
  121CHL1  H23A15200   5.672   4.235   4.786 -1.5873  0.0498 -2.7258
  121CHL1  H23B15201   5.713   4.396   4.729  2.5291 -1.6616  1.8191
  121CHL1   C2415202   5.605   4.396   4.908  0.0122 -0.4471 -0.3106
  121CHL1  H24A15203   5.552   4.492   4.887  0.4507 -0.8374 -3.6340
  121CHL1  H24B15204   5.537   4.320   4.952 -0.9871  0.1207 -0.8504
  121CHL1   C2515205   5.729   4.414   4.995 -0.1764  0.5290  0.0275
  121CHL1   H2515206   5.776   4.314   5.007  1.2877  1.1645 -0.1361
  121CHL1   C2615207   5.833   4.509   4.939 -0.6032  0.5679  0.8051
  121CHL1  H26A15208   5.860   4.489   4.833 -1.1165  0.4204  0.7005
  121CHL1  H26B15209   5.792   4.612   4.941  0.5149  1.0241  1.8698
  121CHL1  H26C15210   5.924   4.481   4.997 -2.2175 -2.7995  1.9888
  121CHL1   C2715211   5.680   4.470   5.127  0.2931  0.0324  0.3566
  121CHL1  H27A15212   5.762   4.488   5.200  2.4549  1.5186 -2.2327
  121CHL1  H27B15213   5.626   4.565   5.108 -4.6501 -2.7729 -1.5467
  121CHL1  H27C15214   5.600   4.402   5.164  0.8915 -0.5154  0.6645
  122CHL1    C315215   3.391   4.316   3.815  0.3790  0.4973  0.9968
  122CHL1    H315216   3.283   4.320   3.790  0.3580 -1.1657  0.7192
  122CHL1    O315217   3.471   4.296   3.701  0.3965 -0.0054  0.3086
  122CHL1   H3'15218   3.427   4.226   3.653  2.1966 -1.0854  0.1436
  122CHL1    C415219   3.430   4.446   3.880  0.3374  0.2690 -0.3431
  122CHL1   H4A15220   3.541   4.451   3.881  0.4837 -1.1883 -2.1458
  122CHL1   H4B15221   3.396   4.521   3.806  0.7438  0.2496 -0.5537
  122CHL1    C515222   3.384   4.464   4.023 -0.0356 -0.0027  0.2642
  122CHL1    C615223   3.309   4.572   4.062  0.3454  0.3579  0.0175
  122CHL1    H615224   3.286   4.656   3.996  0.3096  1.1534  1.0120
  122CHL1    C715225   3.266   4.598   4.200 -0.1376  0.2262  0.1502
  122CHL1   H7A15226   3.298   4.701   4.226  2.6996 -0.5037 -0.1655
  122CHL1   H7B15227   3.157   4.578   4.205 -0.4544  1.6191 -0.6314
  122CHL1    C815228   3.338   4.503   4.303 -0.3417  0.3864 -0.1546
  122CHL1    H815229   3.443   4.539   4.313 -1.0488  3.1430 -1.5598
  122CHL1   C1415230   3.255   4.507   4.438 -0.5505 -0.2566 -0.5971
  122CHL1   H1415231   3.149   4.477   4.424 -0.4110 -0.5487 -1.0512
  122CHL1   C1515232   3.252   4.647   4.496  0.1917 -0.4209  0.5652
  122CHL1  H15A15233   3.351   4.698   4.498  0.0628 -0.1191 -0.4779
  122CHL1  H15B15234   3.182   4.719   4.448 -0.7409 -0.3886  1.8950
  122CHL1   C1615235   3.199   4.625   4.638 -0.1228 -0.2284 -0.0405
  122CHL1  H16A15236   3.264   4.669   4.717 -0.4510 -1.5935  1.0270
  122CHL1  H16B15237   3.090   4.646   4.648 -1.0144 -3.4874 -1.6478
  122CHL1   C1715238   3.203   4.465   4.661 -0.7509  0.7272 -1.0299
  122CHL1   H1715239   3.105   4.415   4.646 -0.2632 -0.1616 -1.3301
  122CHL1   C1315240   3.298   4.414   4.548 -0.0218  0.0099 -0.1213
  122CHL1   C1815241   3.444   4.447   4.595  0.1495 -0.0964  0.1491
  122CHL1  H18A15242   3.479   4.364   4.660 -0.0412 -1.1113 -1.0158
  122CHL1  H18B15243   3.502   4.462   4.501 -1.1915 -0.1485 -0.7095
  122CHL1  H18C15244   3.449   4.541   4.655  0.2778  1.8939 -2.7694
  122CHL1   C1215245   3.298   4.267   4.498 -0.3532 -0.3287 -0.5210
  122CHL1  H12A15246   3.335   4.193   4.572 -0.8508 -0.8140 -0.7465
  122CHL1  H12B15247   3.192   4.239   4.480 -0.6975  0.2336  0.5522
  122CHL1   C1115248   3.384   4.257   4.368 -0.1202 -0.0321 -0.3081
  122CHL1  H11A15249   3.493   4.257   4.392  0.1238 -0.9288 -1.3333
  122CHL1  H11B15250   3.363   4.159   4.321 -0.9390  0.3301 -0.7132
  122CHL1    C915251   3.345   4.356   4.253  0.2403  0.3010 -0.5073
  122CHL1    H915252   3.240   4.334   4.225  0.8615 -0.4542 -2.4698
  122CHL1   C1015253   3.411   4.345   4.116 -0.2811  0.8176 -0.7347
  122CHL1   C1915254   3.564   4.341   4.151  0.1895 -0.5314  0.3906
  122CHL1  H19A15255   3.594   4.439   4.192 -1.3714 -0.8252  2.4615
  122CHL1  H19B15256   3.584   4.257   4.222 -0.0867 -0.3715  0.6588
  122CHL1  H19C15257   3.618   4.314   4.058 -1.5813 -4.3761  0.2491
  122CHL1    C115258   3.355   4.214   4.049 -0.7236  0.4136  0.0464
  122CHL1   H1A15259   3.394   4.130   4.110  1.3312 -0.0752 -1.8061
  122CHL1   H1B15260   3.244   4.206   4.051 -0.7100  0.3462  0.4845
  122CHL1    C215261   3.420   4.196   3.909 -0.1404 -0.1605 -0.2058
  122CHL1   H2A15262   3.388   4.104   3.855  0.4005 -1.3936  1.5149
  122CHL1   H2B15263   3.529   4.176   3.914 -0.4298 -1.6711  0.4298
  122CHL1   C2015264   3.248   4.435   4.808 -0.0495  0.1643 -0.0635
  122CHL1   H2015265   3.356   4.450   4.830  0.1875 -0.2198 -0.9279
  122CHL1   C2115266   3.220   4.284   4.835 -0.0363 -0.5610  0.6952
  122CHL1  H21A15267   3.219   4.247   4.939  0.2030 -0.8727  0.5901
  122CHL1  H21B15268   3.288   4.218   4.777 -1.7436 -1.4373 -0.3926
  122CHL1  H21C15269   3.117   4.266   4.798 -1.2477  3.5184  1.6255
  122CHL1   C2215270   3.171   4.514   4.922 -0.4863 -0.3449  0.0068
  122CHL1  H22A15271   3.190   4.465   5.020  0.3804 -1.3015 -0.6094
  122CHL1  H22B15272   3.227   4.610   4.922  0.9299 -1.1452  0.8508
  122CHL1   C2315273   3.019   4.522   4.923 -0.1656 -0.5934 -0.1547
  122CHL1  H23A15274   2.979   4.566   4.829 -0.2627 -0.3038  0.0195
  122CHL1  H23B15275   2.985   4.418   4.936  3.1453 -1.9876 -1.5118
  122CHL1   C2415276   2.953   4.609   5.038  0.4432 -0.0781  0.3786
  122CHL1  H24A15277   2.849   4.637   5.013  0.8566  0.1437 -1.2214
  122CHL1  H24B15278   2.952   4.548   5.131 -0.0384 -1.0173 -0.2215
  122CHL1   C2515279   3.025   4.743   5.067  0.7194  0.0881  0.2836
  122CHL1   H2515280   3.127   4.721   5.104  1.3934  0.9989 -0.9530
  122CHL1   C2615281   3.035   4.836   4.952  0.1787  0.2801 -0.3440
  122CHL1  H26A15282   3.096   4.926   4.975  0.0165  0.5727 -1.0190
  122CHL1  H26B15283   3.086   4.798   4.860 -0.1418  0.9304 -0.7964
  122CHL1  H26C15284   2.929   4.862   4.930 -0.4841 -1.4533  0.6200
  122CHL1   C2715285   2.966   4.821   5.187  0.1257 -1.3901 -0.0583
  122CHL1  H27A15286   3.027   4.909   5.216  2.2995 -2.3441 -1.5096
  122CHL1  H27B15287   2.861   4.847   5.160  0.9292 -0.2809 -2.2861
  122CHL1  H27C15288   2.960   4.756   5.277 -0.3347  0.9051  1.6646
  123CHL1    C315289   5.589   3.952   3.236 -0.5235  0.2455 -0.1992
  123CHL1    H315290   5.551   3.847   3.236  0.4929 -0.1374 -0.4672
  123CHL1    O315291   5.561   4.010   3.109  0.5568  0.4085 -0.0927
  123CHL1   H3'15292   5.615   3.957   3.050 -0.3118 -0.6019 -0.0267
  123CHL1    C415293   5.516   4.027   3.346 -0.5772 -0.1466 -0.0283
  123CHL1   H4A15294   5.524   4.136   3.326  0.7936 -0.4504 -1.3216
  123CHL1   H4B15295   5.408   4.010   3.326 -0.7586  1.8484 -0.9863
  123CHL1    C515296   5.566   3.989   3.485  0.3484 -0.2372 -0.5934
  123CHL1    C615297   5.481   3.935   3.574 -0.0495 -0.2755 -0.0649
  123CHL1    H615298   5.376   3.918   3.544  0.2927  0.0147 -1.5104
  123CHL1    C715299   5.519   3.908   3.716 -0.1457  0.6545 -0.4764
  123CHL1   H7A15300   5.442   3.936   3.790  0.9165 -1.5263  1.6047
  123CHL1   H7B15301   5.530   3.798   3.725  1.9076  0.8004 -0.6485
  123CHL1    C815302   5.650   3.983   3.758  0.0045 -0.0902  0.7817
  123CHL1    H815303   5.605   4.084   3.754 -1.8249 -0.8669  0.9205
  123CHL1   C1415304   5.695   3.946   3.892 -0.1597  0.5861  0.0594
  123CHL1   H1415305   5.715   3.837   3.883 -0.3276  0.6025 -0.5804
  123CHL1   C1515306   5.594   3.953   4.011  0.1677  0.3472 -0.0933
  123CHL1  H15A15307   5.530   4.043   3.993 -2.8104 -1.2562  1.5612
  123CHL1  H15B15308   5.535   3.859   4.003  2.1578 -0.8337 -1.7041
  123CHL1   C1615309   5.688   3.963   4.135  0.7339  0.3841 -0.1393
  123CHL1  H16A15310   5.666   4.058   4.188 -0.7095 -0.0884  0.1709
  123CHL1  H16B15311   5.663   3.872   4.194  0.8991  0.4857  0.0888
  123CHL1   C1715312   5.835   3.950   4.084 -0.4100  0.1682 -0.2799
  123CHL1   H1715313   5.859   3.844   4.060  1.6784  0.6573 -0.5579
  123CHL1   C1315314   5.825   4.011   3.946  0.1906  0.2707 -0.1390
  123CHL1   C1815315   5.804   4.162   3.961 -0.0424 -1.0724  0.1486
  123CHL1  H18A15316   5.786   4.207   3.862 -0.3032 -1.6526 -0.0734
  123CHL1  H18B15317   5.714   4.188   4.020 -1.5015 -0.5417 -2.1975
  123CHL1  H18C15318   5.889   4.224   3.997 -0.1158  1.3310 -3.3711
  123CHL1   C1215319   5.926   3.980   3.839  0.3891  0.2725 -0.2559
  123CHL1  H12A15320   6.014   4.046   3.856  0.9413 -0.2098 -1.2076
  123CHL1  H12B15321   5.959   3.875   3.828  2.0139  0.8883 -1.7759
  123CHL1   C1115322   5.894   4.031   3.699 -0.0563  0.1634 -0.3177
  123CHL1  H11A15323   5.893   4.142   3.699 -1.0376  0.1820  1.6057
  123CHL1  H11B15324   5.975   3.988   3.635  0.2659 -0.9723  0.8051
  123CHL1    C915325   5.755   3.965   3.649  0.1452 -0.4641 -0.0662
  123CHL1    H915326   5.780   3.857   3.636 -4.3469 -1.3242 -4.7446
  123CHL1   C1015327   5.712   4.007   3.505  0.2850 -0.7371 -0.1896
  123CHL1   C1915328   5.735   4.159   3.498 -0.7529 -0.1483 -0.2452
  123CHL1  H19A15329   5.694   4.220   3.582  0.5660 -1.7040  1.6208
  123CHL1  H19B15330   5.843   4.179   3.483 -0.6033  0.4820  1.4262
  123CHL1  H19C15331   5.704   4.200   3.400  0.4895  1.4918 -0.0049
  123CHL1    C115332   5.788   3.936   3.392 -0.1620 -0.2302 -0.6356
  123CHL1   H1A15333   5.895   3.960   3.411 -0.4259 -0.4916  1.3563
  123CHL1   H1B15334   5.796   3.830   3.424  1.8484  0.0819  0.0143
  123CHL1    C215335   5.744   3.960   3.249 -0.4170 -0.3420  0.7112
  123CHL1   H2A15336   5.784   3.886   3.176  0.0151 -0.9408  1.5413
  123CHL1   H2B15337   5.784   4.062   3.230  0.6307 -0.9021 -0.2174
  123CHL1   C2015338   5.946   3.991   4.181 -0.1294  0.9628  0.2869
  123CHL1   H2015339   5.924   4.100   4.187 -2.3133  0.7050 -1.5141
  123CHL1   C2115340   6.086   3.961   4.123 -0.1996  0.2592  0.1122
  123CHL1  H21A15341   6.088   3.858   4.082 -1.4081  0.0241  0.5962
  123CHL1  H21B15342   6.162   3.969   4.204 -0.8668  1.8029  0.6232
  123CHL1  H21C15343   6.118   4.038   4.050  0.9687  0.3939  0.7451
  123CHL1   C2215344   5.929   3.956   4.330 -0.4038  0.1343  0.3167
  123CHL1  H22A15345   5.820   3.955   4.351 -0.9722 -0.3907 -2.2658
  123CHL1  H22B15346   5.974   3.856   4.345 -1.2877 -0.4084 -0.5427
  123CHL1   C2315347   6.007   4.052   4.424 -0.3651 -0.1707 -0.2417
  123CHL1  H23A15348   6.117   4.049   4.410 -0.3776 -1.3767 -0.2061
  123CHL1  H23B15349   5.971   4.152   4.391  0.2942 -0.5103 -2.1280
  123CHL1   C2415350   5.963   4.025   4.561  0.4628 -0.6791 -0.4293
  123CHL1  H24A15351   5.854   4.034   4.580  0.8565  2.0260  0.9484
  123CHL1  H24B15352   6.000   3.928   4.602 -2.6782 -1.4639  0.8371
  123CHL1   C2515353   6.014   4.132   4.666 -0.6631 -0.4604  0.2857
  123CHL1   H2515354   5.975   4.233   4.641 -0.6835  0.1493  2.6065
  123CHL1   C2615355   5.959   4.095   4.799  0.4067 -0.6923 -0.2516
  123CHL1  H26A15356   5.976   3.986   4.810 -1.6085 -1.2415 -1.8645
  123CHL1  H26B15357   6.014   4.138   4.885 -0.3141  1.4796 -0.7918
  123CHL1  H26C15358   5.849   4.108   4.806  0.6324  0.5101  2.0278
  123CHL1   C2715359   6.171   4.125   4.667 -0.0411  0.0803  0.0994
  123CHL1  H27A15360   6.203   4.020   4.685  0.8706 -0.1613 -2.4759
  123CHL1  H27B15361   6.210   4.162   4.570  1.3085 -2.5815 -0.4730
  123CHL1  H27C15362   6.207   4.197   4.742 -0.9438  0.5158  0.1280
  124CHL1    C315363   4.342   4.812   3.761  0.4937 -0.2206  1.1136
  124CHL1    H315364   4.405   4.720   3.760  0.3150 -0.3678 -0.6405
  124CHL1    O315365   4.303   4.827   3.625  0.1389  0.5205 -0.5970
  124CHL1   H3'15366   4.387   4.840   3.579 -0.0612 -1.1988 -1.5213
  124CHL1    C415367   4.208   4.797   3.840  0.5022 -0.5765 -0.5193
  124CHL1   H4A15368   4.144   4.883   3.812 -1.2470 -1.1852  1.3537
  124CHL1   H4B15369   4.155   4.702   3.816 -0.7364 -0.1514  0.3808
  124CHL1    C515370   4.230   4.800   3.993 -0.2783  0.0240 -0.1874
  124CHL1    C615371   4.190   4.692   4.070 -0.3285 -0.6047  0.3768
  124CHL1    H615372   4.135   4.613   4.018  1.0237 -1.1887 -0.1991
  124CHL1    C715373   4.211   4.686   4.217 -0.3746  0.3946 -0.0245
  124CHL1   H7A15374   4.124   4.648   4.274  0.2502  0.6242  1.1238
  124CHL1   H7B15375   4.300   4.621   4.234 -1.1990 -0.3524  1.6793
  124CHL1    C815376   4.252   4.818   4.282  0.2538  0.0114 -0.7630
  124CHL1    H815377   4.162   4.884   4.278  0.7507  0.6831 -1.1214
  124CHL1   C1415378   4.307   4.799   4.427 -0.1117 -0.6465 -0.2783
  124CHL1   H1415379   4.396   4.735   4.408 -0.4724 -0.8032 -1.5179
  124CHL1   C1515380   4.231   4.720   4.534 -0.2825  0.2828  0.9753
  124CHL1  H15A15381   4.124   4.747   4.543 -0.6957  0.0773 -2.1884
  124CHL1  H15B15382   4.248   4.613   4.510  1.0736  0.9732 -1.4199
  124CHL1   C1615383   4.301   4.759   4.665 -0.2046 -0.2622 -1.1365
  124CHL1  H16A15384   4.217   4.766   4.737  0.4647 -1.3308 -0.2172
  124CHL1  H16B15385   4.375   4.685   4.702 -2.1786 -1.9356 -0.3224
  124CHL1   C1715386   4.393   4.886   4.639  0.4228 -0.0442 -0.3108
  124CHL1   H1715387   4.497   4.849   4.633  0.3278 -0.5000  0.7549
  124CHL1   C1315388   4.350   4.931   4.496 -0.7098  0.6969  0.7842
  124CHL1   C1815389   4.229   5.034   4.499 -0.0391  0.0732 -0.3046
  124CHL1  H18A15390   4.188   5.055   4.397  0.5778  0.9402 -0.3785
  124CHL1  H18B15391   4.138   4.999   4.552 -0.5886 -2.4862 -2.6449
  124CHL1  H18C15392   4.266   5.132   4.535  0.8949 -0.5352  0.4232
  124CHL1   C1215393   4.463   4.986   4.410  0.1324  0.3392  0.7148
  124CHL1  H12A15394   4.492   5.085   4.450 -1.1154  0.7019  0.7800
  124CHL1  H12B15395   4.552   4.920   4.420  0.2288 -0.2914 -2.8294
  124CHL1   C1115396   4.423   5.005   4.259 -0.5965  0.1461  0.0948
  124CHL1  H11A15397   4.362   5.098   4.259  1.2303  1.4248  1.1430
  124CHL1  H11B15398   4.516   5.033   4.205 -0.6585  1.3288  0.5753
  124CHL1    C915399   4.356   4.882   4.192  0.3882 -0.0984  0.2906
  124CHL1    H915400   4.439   4.808   4.192 -0.2730 -0.8782 -0.8220
  124CHL1   C1015401   4.314   4.914   4.047 -0.2020 -0.0099  0.4690
  124CHL1   C1915402   4.227   5.043   4.048 -0.4806 -0.5430  0.2089
  124CHL1  H19A15403   4.192   5.074   3.947  1.2881  0.0845 -0.2502
  124CHL1  H19B15404   4.132   5.040   4.105 -0.7360  1.7656  0.0162
  124CHL1  H19C15405   4.290   5.129   4.079  1.1452 -0.9674 -1.6781
  124CHL1    C115406   4.437   4.942   3.957  0.2455 -0.2883 -0.3814
  124CHL1   H1A15407   4.478   5.041   3.987 -2.2535  0.2269  1.6249
  124CHL1   H1B15408   4.518   4.871   3.984  1.2809  0.8774 -0.3459
  124CHL1    C215409   4.410   4.943   3.804 -0.4328 -0.6351  0.2881
  124CHL1   H2A15410   4.504   4.965   3.749  0.7597  1.1939  2.9001
  124CHL1   H2B15411   4.349   5.035   3.788  0.0019 -0.5114 -0.7297
  124CHL1   C2015412   4.401   4.990   4.752  0.7066 -0.0813  0.6205
  124CHL1   H2015413   4.303   5.042   4.749  0.0234 -1.3765 -1.5735
  124CHL1   C2115414   4.521   5.077   4.727 -0.0495  0.3577  0.3382
  124CHL1  H21A15415   4.517   5.136   4.633  1.6004  0.8949  0.5778
  124CHL1  H21B15416   4.614   5.018   4.718 -0.2788  0.3083 -2.7259
  124CHL1  H21C15417   4.526   5.156   4.805 -0.9537 -0.7661  1.5759
  124CHL1   C2215418   4.409   4.926   4.888  0.2702  0.0327 -0.3134
  124CHL1  H22A15419   4.317   4.866   4.903  0.6523 -0.3464  0.6123
  124CHL1  H22B15420   4.502   4.865   4.895 -0.0284 -0.4880 -0.8264
  124CHL1   C2315421   4.419   5.021   5.011 -0.0153 -0.4180 -0.0875
  124CHL1  H23A15422   4.429   4.947   5.094 -0.6141 -1.0387 -0.5605
  124CHL1  H23B15423   4.509   5.086   5.004  2.7422 -3.9849 -0.8458
  124CHL1   C2415424   4.298   5.106   5.025  0.6434 -0.7682  0.9020
  124CHL1  H24A15425   4.282   5.176   4.940 -0.5076 -1.9786  0.0637
  124CHL1  H24B15426   4.209   5.042   5.044 -0.5410  0.0071 -1.5246
  124CHL1   C2515427   4.300   5.193   5.151  0.8774  0.3920  0.6409
  124CHL1   H2515428   4.392   5.255   5.160  0.7619  0.4064  2.0724
  124CHL1   C2615429   4.171   5.286   5.146 -0.1260  0.3917  0.1112
  124CHL1  H26A15430   4.160   5.351   5.235 -0.7826 -0.1786  0.4525
  124CHL1  H26B15431   4.170   5.352   5.056 -1.6986 -1.4008 -1.2736
  124CHL1  H26C15432   4.083   5.219   5.138  2.0283 -2.4306 -1.3557
  124CHL1   C2715433   4.299   5.109   5.272 -0.5475  0.2052 -0.0851
  124CHL1  H27A15434   4.403   5.072   5.282 -1.0475 -1.5037 -0.7516
  124CHL1  H27B15435   4.279   5.176   5.358 -1.1772 -0.4243  0.2653
  124CHL1  H27C15436   4.228   5.023   5.274  0.4732 -0.6403  0.9926
  125CHL1    C315437   4.810   5.207   3.126 -0.2493  0.2058 -1.1177
  125CHL1    H315438   4.768   5.104   3.121 -1.9275  0.8326 -0.5981
  125CHL1    O315439   4.809   5.265   2.999  0.7145 -0.0002  0.4210
  125CHL1   H3'15440   4.721   5.299   2.979  0.9020  1.1065  1.3642
  125CHL1    C415441   4.720   5.296   3.217  0.8636  0.2750 -0.4703
  125CHL1   H4A15442   4.758   5.400   3.202  1.8634  0.1765  1.1207
  125CHL1   H4B15443   4.618   5.285   3.177  0.3436 -0.7461  1.0467
  125CHL1    C515444   4.720   5.267   3.365  0.3497  0.3823 -0.3529
  125CHL1    C615445   4.611   5.238   3.440 -0.8980 -0.2248  0.8208
  125CHL1    H615446   4.516   5.225   3.387  0.3440 -1.1899 -1.3081
  125CHL1    C715447   4.610   5.203   3.584  0.4989 -0.1373 -0.5908
  125CHL1   H7A15448   4.515   5.233   3.633  0.9402  1.6782 -0.7681
  125CHL1   H7B15449   4.620   5.093   3.598  1.2537 -0.1376 -1.0598
  125CHL1    C815450   4.740   5.257   3.653  0.2598  0.3163 -0.2447
  125CHL1    H815451   4.722   5.366   3.660 -2.6931 -0.0810 -0.6120
  125CHL1   C1415452   4.759   5.208   3.797  0.4978  0.7301 -0.3909
  125CHL1   H1415453   4.751   5.098   3.786 -0.6931  0.7855 -0.2378
  125CHL1   C1515454   4.646   5.256   3.895  0.6669 -0.5255  0.3870
  125CHL1  H15A15455   4.626   5.363   3.875  0.8804 -0.1934  1.8140
  125CHL1  H15B15456   4.562   5.191   3.864  0.4295 -0.2485  0.4430
  125CHL1   C1615457   4.704   5.232   4.037 -0.2792 -0.4040  0.2830
  125CHL1  H16A15458   4.705   5.331   4.088  1.9437  0.5244 -1.3949
  125CHL1  H16B15459   4.641   5.153   4.082  0.3301 -2.0462 -1.6326
  125CHL1   C1715460   4.855   5.190   4.014  0.2353  0.0224 -0.1308
  125CHL1   H1715461   4.853   5.079   4.015  3.1575 -0.0939 -0.3971
  125CHL1   C1315462   4.890   5.243   3.876 -0.7086 -0.0662  0.8589
  125CHL1   C1815463   4.910   5.398   3.880 -0.1275  0.2316 -0.2378
  125CHL1  H18A15464   4.826   5.443   3.938  0.9158 -0.9947  2.3635
  125CHL1  H18B15465   5.002   5.438   3.928 -1.2209  3.3180 -0.4908
  125CHL1  H18C15466   4.911   5.441   3.777  2.2675  0.3328 -0.2329
  125CHL1   C1215467   5.008   5.181   3.794 -0.2483 -0.4266 -0.1955
  125CHL1  H12A15468   5.102   5.205   3.847 -0.8123  0.5423  0.4070
  125CHL1  H12B15469   4.987   5.072   3.785 -1.5548 -0.0924 -1.6408
  125CHL1   C1115470   5.009   5.230   3.651  0.0616  0.2507 -0.1639
  125CHL1  H11A15471   5.048   5.334   3.653 -1.2680  0.7581  1.3215
  125CHL1  H11B15472   5.088   5.170   3.601  0.5177  1.5317 -1.0312
  125CHL1    C915473   4.867   5.213   3.578  0.0286 -0.1523 -0.8450
  125CHL1    H915474   4.838   5.106   3.575 -1.9990  0.3079  0.5989
  125CHL1   C1015475   4.867   5.261   3.429  0.2656 -0.1325 -0.3620
  125CHL1   C1915476   4.926   5.403   3.419 -0.1124  0.0336  0.0356
  125CHL1  H19A15477   4.867   5.478   3.477 -1.0441  0.7288 -1.7211
  125CHL1  H19B15478   5.033   5.405   3.447 -1.0110 -1.0333  4.2640
  125CHL1  H19C15479   4.927   5.446   3.317  0.1028  0.9721  0.4221
  125CHL1    C115480   4.945   5.165   3.334  0.0895 -0.0036 -0.4414
  125CHL1   H1A15481   5.049   5.144   3.367  0.1595 -0.9778 -1.2172
  125CHL1   H1B15482   4.909   5.060   3.338  1.1407 -0.3370  2.5198
  125CHL1    C215483   4.947   5.214   3.184 -0.2942  0.4599  0.9846
  125CHL1   H2A15484   5.001   5.134   3.130 -3.3830 -0.6935 -0.6471
  125CHL1   H2B15485   4.986   5.315   3.160 -0.8865  0.5257  0.2881
  125CHL1   C2015486   4.948   5.235   4.131 -0.4972  0.0858  0.4085
  125CHL1   H2015487   4.939   5.345   4.145 -3.7637 -0.0454  0.0762
  125CHL1   C2115488   5.100   5.202   4.107  0.1559 -1.0031 -1.0489
  125CHL1  H21A15489   5.112   5.093   4.094  0.3107 -0.9043 -1.7819
  125CHL1  H21B15490   5.152   5.249   4.193  1.8539 -0.6427 -2.2406
  125CHL1  H21C15491   5.150   5.258   4.026  1.4744  1.1662  1.1446
  125CHL1   C2215492   4.909   5.176   4.269  0.0853  0.5572  0.4920
  125CHL1  H22A15493   4.800   5.174   4.290 -0.0897  0.0736 -0.3801
  125CHL1  H22B15494   4.946   5.071   4.264  0.7336  0.7902  0.3262
  125CHL1   C2315495   4.966   5.241   4.397  0.1455 -0.5265 -0.5784
  125CHL1  H23A15496   4.915   5.191   4.482  1.0678  2.9557  2.2724
  125CHL1  H23B15497   5.069   5.203   4.416 -0.0411 -0.0686  1.6066
  125CHL1   C2415498   4.958   5.393   4.418  0.7797  0.4781 -0.3576
  125CHL1  H24A15499   5.013   5.421   4.511 -0.0598  0.7227  0.0753
  125CHL1  H24B15500   5.006   5.446   4.333 -0.3240 -2.7707 -3.2691
  125CHL1   C2515501   4.805   5.429   4.444 -0.4497 -0.1802 -0.0826
  125CHL1   H2515502   4.754   5.438   4.346 -1.8018 -1.1946  0.4971
  125CHL1   C2615503   4.725   5.335   4.535  0.3310 -0.5230 -0.3681
  125CHL1  H26A15504   4.776   5.288   4.622 -1.4589 -0.9219  0.5039
  125CHL1  H26B15505   4.637   5.389   4.575  1.2762  1.2278 -0.5711
  125CHL1  H26C15506   4.686   5.255   4.469 -0.7351  1.6786 -2.5518
  125CHL1   C2715507   4.793   5.572   4.507  0.5059 -0.1490  0.4544
  125CHL1  H27A15508   4.823   5.574   4.614 -1.2643 -0.0624  0.9746
  125CHL1  H27B15509   4.865   5.640   4.457 -0.0632 -0.6020 -1.0302
  125CHL1  H27C15510   4.693   5.612   4.484  0.7018  0.4460  0.6270
  126CHL1    C315511   4.278   5.690   3.376  0.4046  0.0742  0.1199
  126CHL1    H315512   4.321   5.792   3.364 -1.0052  0.5209 -1.5939
  126CHL1    O315513   4.235   5.646   3.247  0.1805  0.4741  0.5157
  126CHL1   H3'15514   4.195   5.561   3.266 -1.5829  1.4650  1.5346
  126CHL1    C415515   4.378   5.583   3.435 -0.5305  0.4495  0.3067
  126CHL1   H4A15516   4.321   5.488   3.439 -1.8019  1.2135  1.0710
  126CHL1   H4B15517   4.458   5.568   3.359 -1.5460 -1.5323 -0.4405
  126CHL1    C515518   4.429   5.633   3.570  0.7634 -0.1059  0.0316
  126CHL1    C615519   4.561   5.636   3.604 -0.0322 -0.3572 -0.8356
  126CHL1    H615520   4.628   5.598   3.526 -1.2207  2.3355 -3.3292
  126CHL1    C715521   4.619   5.667   3.740 -0.3474  0.1195  0.5664
  126CHL1   H7A15522   4.690   5.592   3.782 -0.2510  0.1670  0.4881
  126CHL1   H7B15523   4.690   5.750   3.723 -1.9397  1.1692 -1.4350
  126CHL1    C815524   4.502   5.683   3.842 -0.6865  0.0642  0.5965
  126CHL1    H815525   4.475   5.581   3.877 -1.5637  0.3416  0.7630
  126CHL1   C1415526   4.557   5.758   3.956  0.4514 -0.4974 -0.2397
  126CHL1   H1415527   4.576   5.862   3.921  1.6723 -0.2289  1.1027
  126CHL1   C1515528   4.689   5.708   4.021 -0.4105 -0.1129  1.2336
  126CHL1  H15A15529   4.676   5.603   4.052 -1.9091 -0.1101  0.6638
  126CHL1  H15B15530   4.777   5.725   3.955  1.0787 -1.5525  2.7420
  126CHL1   C1615531   4.689   5.783   4.155  0.3261 -0.7425  0.9571
  126CHL1  H16A15532   4.740   5.719   4.230  3.0321 -0.0987 -0.2114
  126CHL1  H16B15533   4.752   5.874   4.155  0.7404 -0.9654 -1.4353
  126CHL1   C1715534   4.541   5.822   4.191 -0.3585 -0.1303 -0.3561
  126CHL1   H1715535   4.543   5.932   4.175  3.2175  0.1231  0.9266
  126CHL1   C1315536   4.451   5.768   4.080 -0.1807  0.1217  0.3890
  126CHL1   C1815537   4.423   5.624   4.127 -0.0773 -0.2470  0.5686
  126CHL1  H18A15538   4.354   5.623   4.213 -1.2180 -1.1647 -0.3340
  126CHL1  H18B15539   4.370   5.565   4.050  2.1796 -1.5061 -0.1208
  126CHL1  H18C15540   4.517   5.578   4.165 -1.5556 -1.6055  2.7705
  126CHL1   C1215541   4.329   5.843   4.026 -0.0369  0.0886 -0.4631
  126CHL1  H12A15542   4.243   5.851   4.095  0.1265 -0.7638 -0.1505
  126CHL1  H12B15543   4.363   5.948   4.013 -1.4085  0.6496  0.3507
  126CHL1   C1115544   4.265   5.778   3.902 -0.5661 -0.2900  0.3742
  126CHL1  H11A15545   4.221   5.680   3.930 -0.7369  0.1411  1.7123
  126CHL1  H11B15546   4.191   5.845   3.854  1.1683  1.6551  0.2406
  126CHL1    C915547   4.378   5.751   3.793  0.1601  0.7694  0.2579
  126CHL1    H915548   4.402   5.856   3.765 -1.1525  0.7900 -0.9053
  126CHL1   C1015549   4.323   5.678   3.672  0.2907 -0.3527  0.5883
  126CHL1   C1915550   4.250   5.542   3.717  0.0453  0.7437  0.5184
  126CHL1  H19A15551   4.212   5.492   3.625  2.3110  1.6653 -1.0018
  126CHL1  H19B15552   4.327   5.475   3.762  1.8391  2.0765 -0.4065
  126CHL1  H19C15553   4.174   5.550   3.797  1.9082 -2.1543  2.8187
  126CHL1    C115554   4.219   5.769   3.599  0.2375 -0.0103  0.4038
  126CHL1   H1A15555   4.123   5.790   3.652 -0.2213 -0.7915 -0.1056
  126CHL1   H1B15556   4.271   5.866   3.581  0.1702  0.1108  0.8623
  126CHL1    C215557   4.159   5.720   3.464  0.2285 -0.8071  0.5653
  126CHL1   H2A15558   4.098   5.800   3.416 -0.4266 -0.3815  2.0699
  126CHL1   H2B15559   4.101   5.626   3.467 -0.3657 -0.4319  0.8341
  126CHL1   C2015560   4.501   5.809   4.344  0.1457  0.2403 -0.0568
  126CHL1   H2015561   4.496   5.701   4.371  3.0704  0.3469  1.2498
  126CHL1   C2115562   4.360   5.865   4.368  0.3424  0.0630  0.4705
  126CHL1  H21A15563   4.284   5.820   4.300 -0.0002 -1.0781  1.5790
  126CHL1  H21B15564   4.350   5.975   4.364 -3.3187  0.0250  3.4324
  126CHL1  H21C15565   4.332   5.843   4.473  0.9815 -0.6567  0.4973
  126CHL1   C2215566   4.607   5.871   4.436  0.4956 -0.1422 -0.2877
  126CHL1  H22A15567   4.705   5.833   4.399 -0.2951 -1.4525 -1.1282
  126CHL1  H22B15568   4.616   5.981   4.421  1.0426 -0.0471  0.6564
  126CHL1   C2315569   4.587   5.845   4.582  0.5679  0.1129 -0.3136
  126CHL1  H23A15570   4.510   5.919   4.615  0.0700 -0.5339  0.0114
  126CHL1  H23B15571   4.546   5.743   4.598 -0.4425  0.5345 -0.0682
  126CHL1   C2415572   4.707   5.867   4.667 -0.7656  0.1772 -0.0896
  126CHL1  H24A15573   4.789   5.804   4.625 -1.5464 -0.3547 -0.8707
  126CHL1  H24B15574   4.741   5.972   4.656  1.0388  0.0575  3.2469
  126CHL1   C2515575   4.686   5.844   4.814 -0.4210  0.4168 -0.0316
  126CHL1   H2515576   4.656   5.738   4.830  2.0142 -0.4783 -0.9314
  126CHL1   C2615577   4.827   5.856   4.886 -0.2957  0.3346 -0.3073
  126CHL1  H26A15578   4.877   5.953   4.870 -0.2097  0.3284 -0.0734
  126CHL1  H26B15579   4.810   5.844   4.995 -0.6426  0.1139 -0.3837
  126CHL1  H26C15580   4.889   5.767   4.862 -1.3436 -1.5459  3.1905
  126CHL1   C2715581   4.580   5.940   4.877 -0.2287  0.1585  0.0790
  126CHL1  H27A15582   4.615   6.042   4.850 -1.5846  0.1584 -1.8483
  126CHL1  H27B15583   4.483   5.931   4.824 -0.1036 -0.9763  0.0004
  126CHL1  H27C15584   4.570   5.928   4.987 -1.0194 -0.0505 -0.0123
  127CHL1    C315585   4.256   6.045   3.211  0.2729  0.0247  0.7093
  127CHL1    H315586   4.200   5.960   3.254  1.7127 -1.0112  0.6336
  127CHL1    O315587   4.207   6.069   3.082  0.1778  0.6809 -0.1238
  127CHL1   H3'15588   4.263   6.133   3.038 -1.2379  2.6633  0.8544
  127CHL1    C415589   4.228   6.170   3.284  0.5949 -1.0193 -0.4150
  127CHL1   H4A15590   4.269   6.254   3.225  2.0018 -2.3154 -1.3552
  127CHL1   H4B15591   4.118   6.189   3.286  0.6155 -0.7631 -1.4838
  127CHL1    C515592   4.286   6.183   3.424  0.5046  0.4790 -0.5889
  127CHL1    C615593   4.207   6.200   3.530  0.3616 -0.3903 -0.4223
  127CHL1    H615594   4.097   6.193   3.517  0.3904 -2.1698  0.0381
  127CHL1    C715595   4.263   6.207   3.677  0.3205 -1.0131  0.5609
  127CHL1   H7A15596   4.220   6.291   3.735  1.1550 -1.3317  1.6781
  127CHL1   H7B15597   4.225   6.115   3.725  0.3646 -1.4093 -0.1466
  127CHL1    C815598   4.417   6.222   3.682  0.3390  0.4952 -0.1003
  127CHL1    H815599   4.428   6.332   3.674 -2.1931  0.7777 -0.4598
  127CHL1   C1415600   4.477   6.175   3.817  0.6753 -0.3636  0.1123
  127CHL1   H1415601   4.456   6.066   3.824  0.2724 -0.6232 -3.4562
  127CHL1   C1515602   4.406   6.246   3.947 -0.3059 -0.0610 -0.1837
  127CHL1  H15A15603   4.385   6.354   3.927 -0.7987  0.2538  1.7851
  127CHL1  H15B15604   4.308   6.205   3.981 -0.8125  1.7306  0.6417
  127CHL1   C1615605   4.512   6.227   4.050 -1.1907 -0.4404 -0.2848
  127CHL1  H16A15606   4.545   6.327   4.087 -1.4282 -0.0160 -1.1824
  127CHL1  H16B15607   4.484   6.166   4.138 -1.2257  0.8566  0.6378
  127CHL1   C1715608   4.649   6.166   3.985  0.0757  0.2969  0.1755
  127CHL1   H1715609   4.627   6.057   3.986  2.5338 -0.2572  1.7903
  127CHL1   C1315610   4.626   6.190   3.832  0.1084 -0.1710  0.1268
  127CHL1   C1815611   4.651   6.340   3.817 -0.2794 -0.3317 -0.4382
  127CHL1  H18A15612   4.613   6.377   3.719 -1.0019  0.2958  0.0700
  127CHL1  H18B15613   4.615   6.399   3.904  0.6319 -0.9228  0.3534
  127CHL1  H18C15614   4.760   6.361   3.814 -0.3363 -0.1633 -2.2850
  127CHL1   C1215615   4.702   6.105   3.717 -0.0489  0.5321 -0.0571
  127CHL1  H12A15616   4.813   6.108   3.718  0.0066 -0.6420 -0.5638
  127CHL1  H12B15617   4.670   6.000   3.735 -0.7080  0.4489 -1.6378
  127CHL1   C1115618   4.642   6.133   3.582 -0.1074  0.3635 -0.5532
  127CHL1  H11A15619   4.679   6.230   3.541 -1.8012  0.9416 -0.7814
  127CHL1  H11B15620   4.681   6.063   3.504  0.2554 -0.6215  0.4928
  127CHL1    C915621   4.488   6.142   3.571  0.1027 -0.0700 -0.3390
  127CHL1    H915622   4.458   6.037   3.590  2.6298 -0.5219  1.7687
  127CHL1   C1015623   4.441   6.174   3.426  0.0224 -0.2252  0.0947
  127CHL1   C1915624   4.502   6.303   3.375 -0.3101 -0.2393 -0.0001
  127CHL1  H19A15625   4.494   6.381   3.455 -1.2562  0.3156 -0.6159
  127CHL1  H19B15626   4.610   6.297   3.350 -0.5000 -0.1046 -0.8735
  127CHL1  H19C15627   4.449   6.352   3.291  2.1566  1.1037 -0.8872
  127CHL1    C115628   4.480   6.053   3.335 -0.1131  0.4608  0.5759
  127CHL1   H1A15629   4.590   6.067   3.324 -0.1106  1.5974  1.8140
  127CHL1   H1B15630   4.470   5.958   3.393 -1.5264  1.2038  1.6039
  127CHL1    C215631   4.411   6.024   3.199 -0.6666  0.6870  0.2790
  127CHL1   H2A15632   4.432   5.921   3.162 -1.0185  1.0846 -1.0735
  127CHL1   H2B15633   4.466   6.092   3.131  2.2170 -1.4908  0.2364
  127CHL1   C2015634   4.777   6.187   4.056  0.0410 -0.6417 -0.1042
  127CHL1   H2015635   4.822   6.284   4.024  2.3391 -2.0952 -1.5218
  127CHL1   C2115636   4.879   6.080   4.003  0.5207 -0.4717  0.4152
  127CHL1  H21A15637   4.830   5.981   3.992 -1.6350  0.6332 -0.6543
  127CHL1  H21B15638   4.968   6.072   4.068 -0.8683  0.7059  2.6268
  127CHL1  H21C15639   4.911   6.122   3.905 -0.6085 -0.5849 -0.0274
  127CHL1   C2215640   4.766   6.177   4.210  0.2126  0.6323  0.1190
  127CHL1  H22A15641   4.694   6.248   4.255 -0.3448 -0.1915  0.5625
  127CHL1  H22B15642   4.730   6.072   4.222 -0.4066  0.7750 -0.4530
  127CHL1   C2315643   4.889   6.198   4.295  0.2216  0.0056  0.1423
  127CHL1  H23A15644   4.971   6.126   4.272  1.6744  1.8640 -0.8033
  127CHL1  H23B15645   4.937   6.297   4.275  1.5514 -0.7005 -0.2837
  127CHL1   C2415646   4.873   6.199   4.453 -0.1003 -0.4633  0.4931
  127CHL1  H24A15647   4.822   6.295   4.478  3.9307  1.7738  1.1012
  127CHL1  H24B15648   4.816   6.107   4.474 -0.1928 -0.3575  0.7023
  127CHL1   C2515649   5.006   6.193   4.535  0.5298  0.8281  0.3402
  127CHL1   H2515650   5.084   6.245   4.476  0.7222 -2.0836 -2.2566
  127CHL1   C2615651   4.978   6.257   4.675 -0.0535 -0.0196  0.0625
  127CHL1  H26A15652   4.917   6.350   4.665  0.9716  0.8382  1.4910
  127CHL1  H26B15653   4.952   6.188   4.759 -0.9026  0.4595  0.2109
  127CHL1  H26C15654   5.082   6.283   4.703  0.3642 -1.9057  0.3883
  127CHL1   C2715655   5.062   6.049   4.549 -0.3929 -0.5180 -0.0152
  127CHL1  H27A15656   5.160   6.051   4.600  1.3239 -0.7555 -3.0586
  127CHL1  H27B15657   4.994   5.978   4.601  1.8889 -2.5658  0.3521
  127CHL1  H27C15658   5.093   6.015   4.447  2.1890  1.3502  0.0559
  128CHL1    C315659   1.526   1.166   4.009 -0.1902  0.6399  0.4663
  128CHL1    H315660   1.572   1.083   4.067 -1.5456 -0.4341  0.0888
  128CHL1    O315661   1.598   1.183   3.892  0.2548 -0.6592  0.1066
  128CHL1   H3'15662   1.538   1.232   3.836  1.2899 -0.4491 -0.8634
  128CHL1    C415663   1.377   1.131   3.964 -0.1229 -0.1877 -0.8967
  128CHL1   H4A15664   1.341   1.209   3.894 -2.9416 -0.7168 -0.1875
  128CHL1   H4B15665   1.380   1.029   3.919  1.7782 -0.2252 -0.7662
  128CHL1    C515666   1.284   1.129   4.082 -0.6622  0.7120 -0.1128
  128CHL1    C615667   1.189   1.032   4.088  0.1392  0.3135 -0.5269
  128CHL1    H615668   1.199   0.949   4.017 -1.4747 -0.8290  0.5147
  128CHL1    C715669   1.087   1.022   4.199 -0.3491 -0.4163 -0.4254
  128CHL1   H7A15670   0.994   0.982   4.155 -2.0183  1.9961  0.6798
  128CHL1   H7B15671   1.110   0.942   4.273 -0.9368 -1.4304 -1.3170
  128CHL1    C815672   1.068   1.152   4.276 -0.5048 -0.9385  0.9532
  128CHL1    H815673   0.998   1.216   4.218  0.7621 -1.0169 -0.7279
  128CHL1   C1415674   1.002   1.129   4.413  0.2139 -1.2403 -0.4386
  128CHL1   H1415675   1.072   1.065   4.470 -1.4506 -1.3522  1.6024
  128CHL1   C1515676   0.876   1.053   4.418  0.7330  0.6240  0.1422
  128CHL1  H15A15677   0.810   1.094   4.338 -1.9117 -2.1041  0.7455
  128CHL1  H15B15678   0.899   0.949   4.389 -1.1703  0.0230  0.6367
  128CHL1   C1615679   0.818   1.072   4.557 -0.5018  0.3321 -0.2082
  128CHL1  H16A15680   0.713   1.109   4.559 -1.0764 -1.2759  1.1567
  128CHL1  H16B15681   0.820   0.985   4.625  0.8433  1.2207  0.9487
  128CHL1   C1715682   0.917   1.178   4.619 -0.7833 -0.1541  0.3628
  128CHL1   H1715683   0.997   1.113   4.659 -0.3385 -0.9923 -1.7801
  128CHL1   C1315684   0.986   1.254   4.503 -0.1921  0.2621 -0.8169
  128CHL1   C1815685   0.884   1.346   4.433 -0.5438  0.5823 -0.1178
  128CHL1  H18A15686   0.789   1.297   4.404  0.3705 -1.6271  0.3975
  128CHL1  H18B15687   0.857   1.427   4.504 -1.3882 -0.2125  0.4906
  128CHL1  H18C15688   0.924   1.389   4.339 -0.7567 -0.2504 -0.6007
  128CHL1   C1215689   1.123   1.320   4.529  0.4966 -0.0476 -0.2217
  128CHL1  H12A15690   1.107   1.413   4.586 -0.4838  0.0806 -0.6864
  128CHL1  H12B15691   1.175   1.240   4.587  0.1684 -0.3337 -0.3217
  128CHL1   C1115692   1.189   1.352   4.391  0.0144  1.1616 -0.3696
  128CHL1  H11A15693   1.140   1.439   4.342  0.1301  2.0843  1.0792
  128CHL1  H11B15694   1.295   1.380   4.410  0.2184  1.1714 -1.4690
  128CHL1    C915695   1.204   1.230   4.294  0.1507  0.8016 -0.0876
  128CHL1    H915696   1.259   1.160   4.361  0.8786 -0.6817 -2.1483
  128CHL1   C1015697   1.289   1.247   4.175 -0.3863 -0.4767  0.4960
  128CHL1   C1915698   1.231   1.375   4.098 -0.6767 -0.6401 -0.1241
  128CHL1  H19A15699   1.275   1.387   3.997  0.9999 -0.0014  0.6448
  128CHL1  H19B15700   1.120   1.366   4.097 -0.6900 -2.8385  3.8036
  128CHL1  H19C15701   1.270   1.465   4.150  0.3356 -0.2762 -1.4502
  128CHL1    C115702   1.436   1.275   4.218 -0.3139 -0.5386  0.1363
  128CHL1   H1A15703   1.448   1.361   4.287  0.0311 -0.6159  0.1724
  128CHL1   H1B15704   1.476   1.189   4.275 -0.3265  0.0628  1.0659
  128CHL1    C215705   1.527   1.294   4.095 -0.2983 -0.0143  0.0988
  128CHL1   H2A15706   1.632   1.306   4.129 -0.8892  1.7941  1.4324
  128CHL1   H2B15707   1.496   1.386   4.041  1.3359  0.8938  0.6417
  128CHL1   C2015708   0.856   1.256   4.738  0.0338  0.4329 -0.2535
  128CHL1   H2015709   0.777   1.325   4.700 -0.4585  0.4279  0.7439
  128CHL1   C2115710   0.970   1.328   4.817 -0.1675 -0.0757  0.4832
  128CHL1  H21A15711   0.992   1.425   4.767  2.6306 -1.0834 -0.4955
  128CHL1  H21B15712   1.070   1.278   4.814  0.7189  1.5920 -2.2151
  128CHL1  H21C15713   0.932   1.346   4.919 -0.8879  1.2351  0.0035
  128CHL1   C2215714   0.780   1.155   4.832 -0.2520  0.1759 -0.0700
  128CHL1  H22A15715   0.707   1.094   4.774 -0.4862 -0.2164  0.6223
  128CHL1  H22B15716   0.848   1.078   4.874  0.0202 -0.1670 -1.0919
  128CHL1   C2315717   0.703   1.229   4.944  0.1756  0.2447 -0.1273
  128CHL1  H23A15718   0.772   1.268   5.023  1.0666  1.6325 -1.5411
  128CHL1  H23B15719   0.668   1.329   4.911  0.5866  0.3176 -0.3422
  128CHL1   C2415720   0.585   1.147   4.998 -0.2648 -0.9714 -0.0095
  128CHL1  H24A15721   0.519   1.118   4.914 -0.1477  0.2872 -0.5691
  128CHL1  H24B15722   0.622   1.055   5.047 -1.8690 -1.8375 -0.3722
  128CHL1   C2515723   0.492   1.205   5.106 -0.1058 -0.3407 -0.3126
  128CHL1   H2515724   0.431   1.284   5.057 -0.2591 -0.9231 -1.0633
  128CHL1   C2615725   0.393   1.103   5.156  0.0685  0.4099  0.2549
  128CHL1  H26A15726   0.323   1.161   5.221 -0.7747  1.9853 -1.9303
  128CHL1  H26B15727   0.330   1.051   5.080 -1.2691  1.3223  0.7002
  128CHL1  H26C15728   0.443   1.018   5.205 -3.0961 -1.4167  0.6079
  128CHL1   C2715729   0.569   1.278   5.220 -0.3292  0.0206 -0.0219
  128CHL1  H27A15730   0.639   1.204   5.267 -0.9237 -0.5804 -0.0707
  128CHL1  H27B15731   0.622   1.363   5.171 -2.9096  1.8376  0.1577
  128CHL1  H27C15732   0.501   1.316   5.299  0.8421 -0.9850  1.5523
  129CHL1    C315733   5.666   6.426   3.586  0.4106 -0.0699 -0.0084
  129CHL1    H315734   5.702   6.321   3.574 -1.5093 -1.2936  3.4579
  129CHL1    O315735   5.659   6.506   3.470 -0.5923  0.1806 -0.4759
  129CHL1   H3'15736   5.744   6.516   3.429 -0.7080  1.3593 -0.4629
  129CHL1    C415737   5.522   6.417   3.636  0.9907 -0.2567 -0.4529
  129CHL1   H4A15738   5.481   6.520   3.649  0.3819 -0.4049 -1.1472
  129CHL1   H4B15739   5.467   6.374   3.550 -1.8733  1.1756  0.5257
  129CHL1    C515740   5.507   6.350   3.772  0.4589 -0.6840  0.3124
  129CHL1    C615741   5.423   6.247   3.797  0.1274  0.3440  0.7252
  129CHL1    H615742   5.368   6.202   3.712 -0.9025  0.7228  1.1793
  129CHL1    C715743   5.398   6.172   3.926 -0.0601  0.4081  0.3229
  129CHL1   H7A15744   5.289   6.153   3.938  0.0088  0.3499  0.8717
  129CHL1   H7B15745   5.441   6.070   3.929  1.6597  1.0740 -0.3832
  129CHL1    C815746   5.457   6.252   4.040  0.2688  0.2648 -1.5453
  129CHL1    H815747   5.391   6.339   4.062 -0.9894 -0.9167 -0.5531
  129CHL1   C1415748   5.471   6.174   4.167  0.5065  0.3315 -0.5272
  129CHL1   H1415749   5.550   6.099   4.142 -0.5094 -0.7352 -0.6516
  129CHL1   C1515750   5.343   6.095   4.219 -0.3840 -0.5384 -0.1265
  129CHL1  H15A15751   5.253   6.161   4.216  1.1092  1.7373  1.6597
  129CHL1  H15B15752   5.343   6.001   4.160  2.3611 -0.4042 -0.4571
  129CHL1   C1615753   5.379   6.070   4.368  1.1793 -0.2581  0.2293
  129CHL1  H16A15754   5.304   6.122   4.431  0.2324 -0.1302 -0.9548
  129CHL1  H16B15755   5.380   5.962   4.394  0.4653 -0.4082 -0.3298
  129CHL1   C1715756   5.515   6.144   4.398  0.2299 -0.0991 -0.2163
  129CHL1   H1715757   5.594   6.069   4.380 -0.0215 -0.6432  0.8619
  129CHL1   C1315758   5.527   6.246   4.290 -0.0137  0.2842  0.6330
  129CHL1   C1815759   5.436   6.369   4.332 -0.2365 -0.2114  0.5091
  129CHL1  H18A15760   5.417   6.440   4.249 -0.2141 -1.8354 -0.9600
  129CHL1  H18B15761   5.332   6.334   4.351 -0.4242  0.1909  0.2490
  129CHL1  H18C15762   5.467   6.424   4.423  1.4035  0.9569 -0.6853
  129CHL1   C1215763   5.669   6.293   4.252 -0.1479  0.0328  0.4900
  129CHL1  H12A15764   5.707   6.355   4.336  1.2002 -0.2724  0.1285
  129CHL1  H12B15765   5.734   6.205   4.237  2.1948  1.3862  2.0110
  129CHL1   C1115766   5.670   6.377   4.123  0.0739 -0.4941  0.7785
  129CHL1  H11A15767   5.617   6.472   4.147  1.9556  0.9669 -0.6331
  129CHL1  H11B15768   5.773   6.410   4.099 -0.7107 -0.4963 -3.3970
  129CHL1    C915769   5.596   6.312   4.002 -0.3466 -0.3852 -0.4900
  129CHL1    H915770   5.653   6.224   3.965  0.2341 -0.1753 -0.1097
  129CHL1   C1015771   5.591   6.406   3.879 -0.4896 -0.1985 -0.0749
  129CHL1   C1915772   5.522   6.543   3.915  0.2491  0.0513  0.2338
  129CHL1  H19A15773   5.585   6.599   3.987  2.0898 -0.1636 -1.1370
  129CHL1  H19B15774   5.516   6.609   3.825 -1.4960 -1.8294 -1.1283
  129CHL1  H19C15775   5.422   6.525   3.960  0.5216  0.7721  1.1531
  129CHL1    C115776   5.733   6.426   3.830 -0.6914 -0.4744  0.4009
  129CHL1   H1A15777   5.789   6.497   3.894  0.3052  1.8181 -2.7679
  129CHL1   H1B15778   5.795   6.335   3.818  1.3089  0.6472  1.6929
  129CHL1    C215779   5.752   6.502   3.688  0.0475  0.7888 -0.8436
  129CHL1   H2A15780   5.856   6.499   3.649  1.1145 -1.6005  1.8015
  129CHL1   H2B15781   5.722   6.605   3.716  0.4582  0.1373  2.4016
  129CHL1   C2015782   5.517   6.181   4.550 -0.8680  0.4906  0.4926
  129CHL1   H2015783   5.424   6.231   4.585  0.1432  1.4482  1.9637
  129CHL1   C2115784   5.628   6.285   4.586 -0.2255  0.8390 -0.5713
  129CHL1  H21A15785   5.720   6.235   4.549 -0.1867  0.3559  0.1447
  129CHL1  H21B15786   5.641   6.300   4.696  1.5206  1.2768 -0.8146
  129CHL1  H21C15787   5.603   6.383   4.541 -3.4671  0.5985  0.4285
  129CHL1   C2215788   5.520   6.059   4.643  0.2151  0.3959  0.3914
  129CHL1  H22A15789   5.458   5.977   4.601 -1.3509  1.8531 -0.2757
  129CHL1  H22B15790   5.625   6.026   4.656 -0.1708 -1.6382 -1.1287
  129CHL1   C2315791   5.453   6.080   4.778 -0.2372 -0.5181 -0.2026
  129CHL1  H23A15792   5.510   6.158   4.834 -1.1720  2.2697 -2.8932
  129CHL1  H23B15793   5.353   6.123   4.758  0.6764  1.6903 -0.3400
  129CHL1   C2415794   5.438   5.955   4.862 -0.0707  0.1831  0.1404
  129CHL1  H24A15795   5.395   5.881   4.792  2.6916  0.9120 -2.5245
  129CHL1  H24B15796   5.545   5.927   4.876  0.3124  1.4480 -0.1880
  129CHL1   C2515797   5.353   5.980   4.984  0.1275  0.7834  0.0204
  129CHL1   H2515798   5.346   5.883   5.038  0.5437 -0.2719 -1.7340
  129CHL1   C2615799   5.421   6.076   5.086 -0.6741  0.3304  0.2539
  129CHL1  H26A15800   5.522   6.042   5.119 -1.0650 -1.2910 -0.1166
  129CHL1  H26B15801   5.436   6.173   5.035  1.0784  0.3736  0.7853
  129CHL1  H26C15802   5.363   6.105   5.176 -0.9688  1.3533 -0.2467
  129CHL1   C2715803   5.210   6.031   4.960 -0.0384 -0.1368 -0.2257
  129CHL1  H27A15804   5.147   6.006   5.048 -0.3055  0.9024 -0.1104
  129CHL1  H27B15805   5.209   6.141   4.951  0.4235 -0.1403 -0.3681
  129CHL1  H27C15806   5.167   5.995   4.864 -0.4120 -1.7067  0.4844
  130CHL1    C315807   4.107   7.262   3.644  0.4009 -0.0238  0.0282
  130CHL1    H315808   4.200   7.322   3.655  0.5934 -0.4669  0.8992
  130CHL1    O315809   4.099   7.218   3.512  0.1143 -0.7752 -0.6011
  130CHL1   H3'15810   4.012   7.179   3.499 -0.9524  0.8794  1.0811
  130CHL1    C415811   4.116   7.146   3.746 -0.3014  0.2579  0.7128
  130CHL1   H4A15812   4.024   7.089   3.719  0.9688 -0.5696 -2.1882
  130CHL1   H4B15813   4.204   7.085   3.717 -0.1765 -0.0750  1.7309
  130CHL1    C515814   4.119   7.184   3.886 -0.1546 -0.5061  0.0350
  130CHL1    C615815   4.215   7.134   3.969  0.3246 -0.1750 -0.2294
  130CHL1    H615816   4.286   7.061   3.927 -0.0865  0.3849 -1.9786
  130CHL1    C715817   4.226   7.166   4.113  0.5307  0.0954  0.9690
  130CHL1   H7A15818   4.243   7.071   4.168  0.3655 -0.5679 -0.1035
  130CHL1   H7B15819   4.308   7.241   4.122  0.9322 -0.2317  0.1612
  130CHL1    C815820   4.098   7.240   4.165  0.4873 -0.6396  0.4378
  130CHL1    H815821   4.027   7.156   4.186  2.3046 -2.1121  0.9475
  130CHL1   C1415822   4.140   7.311   4.294  0.2327 -0.3695  0.2431
  130CHL1   H1415823   4.211   7.389   4.258 -1.2954 -0.1215 -2.4768
  130CHL1   C1515824   4.197   7.223   4.397 -0.7383  0.4320  0.4438
  130CHL1  H15A15825   4.153   7.122   4.408  1.3191 -0.4533  1.0180
  130CHL1  H15B15826   4.305   7.200   4.385 -0.1419  2.5997  1.1367
  130CHL1   C1615827   4.194   7.306   4.531  1.1194 -0.1144  1.3443
  130CHL1  H16A15828   4.152   7.245   4.614 -1.8917 -0.6389 -0.4195
  130CHL1  H16B15829   4.295   7.344   4.558  0.5811  3.1428 -0.7283
  130CHL1   C1715830   4.112   7.438   4.492  0.7562  1.3187 -0.1094
  130CHL1   H1715831   4.182   7.515   4.454  0.1121  1.0646 -1.9300
  130CHL1   C1315832   4.027   7.391   4.369  0.2949 -0.5120  0.2348
  130CHL1   C1815833   3.912   7.300   4.415 -0.1414  0.1735  0.6179
  130CHL1  H18A15834   3.879   7.231   4.334 -0.8042  1.8311 -0.5647
  130CHL1  H18B15835   3.939   7.231   4.498  0.1172  0.6778  0.9525
  130CHL1  H18C15836   3.822   7.358   4.447 -0.3511  0.4405 -0.4344
  130CHL1   C1215837   3.981   7.496   4.271  0.0974  0.3392 -0.0455
  130CHL1  H12A15838   3.893   7.549   4.313  1.3579  0.7186  2.3294
  130CHL1  H12B15839   4.058   7.576   4.260  0.0214  0.2436 -1.5772
  130CHL1   C1115840   3.940   7.433   4.134  0.7668  0.3291 -0.6350
  130CHL1  H11A15841   3.849   7.370   4.146  1.0053  0.1807  0.4609
  130CHL1  H11B15842   3.906   7.518   4.071 -0.0249  0.9938  0.6539
  130CHL1    C915843   4.049   7.344   4.067  0.1883  0.6310 -0.1704
  130CHL1    H915844   4.133   7.416   4.054  0.1148  0.2642 -3.3185
  130CHL1   C1015845   4.012   7.285   3.932  0.7399 -0.3795  0.1144
  130CHL1   C1915846   3.875   7.218   3.935  0.1126  1.0751  0.1029
  130CHL1  H19A15847   3.864   7.168   3.837 -2.9001  2.3262 -0.2971
  130CHL1  H19B15848   3.877   7.143   4.016  1.9887 -0.0559 -0.9067
  130CHL1  H19C15849   3.794   7.293   3.942  0.1476  1.3893 -2.0719
  130CHL1    C115850   3.993   7.393   3.822 -0.3109 -0.2426 -0.2439
  130CHL1   H1A15851   3.914   7.461   3.858  0.3925 -0.0353  0.9657
  130CHL1   H1B15852   4.080   7.461   3.832 -1.0411  0.8567 -1.1736
  130CHL1    C215853   3.987   7.352   3.678 -0.3216  0.4494 -0.1702
  130CHL1   H2A15854   3.989   7.448   3.622  0.0941  0.1737 -0.6432
  130CHL1   H2B15855   3.885   7.308   3.665 -0.9837  1.5210  1.2246
  130CHL1   C2015856   4.034   7.495   4.610 -0.4451 -0.9007  0.4684
  130CHL1   H2015857   3.964   7.418   4.648 -2.0038  0.3778  0.2975
  130CHL1   C2115858   3.947   7.616   4.569 -0.4516 -0.4642 -0.0892
  130CHL1  H21A15859   3.898   7.662   4.658  0.3086 -0.1405  0.1705
  130CHL1  H21B15860   3.865   7.589   4.499 -1.4491  0.2015  0.7772
  130CHL1  H21C15861   4.006   7.696   4.518 -1.3761  0.5020  0.3065
  130CHL1   C2215862   4.131   7.542   4.726 -0.0870  0.0543 -0.2153
  130CHL1  H22A15863   4.199   7.457   4.748 -1.7117 -0.2519  4.9576
  130CHL1  H22B15864   4.185   7.636   4.706  0.3065 -0.0847  0.1894
  130CHL1   C2315865   4.056   7.547   4.864  0.1311 -0.6861 -0.1083
  130CHL1  H23A15866   3.969   7.617   4.858  0.9471  0.5798  1.8685
  130CHL1  H23B15867   4.008   7.449   4.883  1.8441 -1.3923  0.7467
  130CHL1   C2415868   4.138   7.583   4.995 -0.0376  0.1187  0.3793
  130CHL1  H24A15869   4.171   7.685   4.968 -0.5188  0.0801 -0.3822
  130CHL1  H24B15870   4.078   7.593   5.088 -1.6088  2.0963 -0.7864
  130CHL1   C2515871   4.267   7.504   5.012  0.7483 -0.1916  0.2871
  130CHL1   H2515872   4.316   7.506   4.913  0.2907 -1.1513  0.0309
  130CHL1   C2615873   4.351   7.577   5.122  0.5164 -0.4349 -0.1020
  130CHL1  H26A15874   4.446   7.526   5.147  0.9635  0.8150  0.8972
  130CHL1  H26B15875   4.378   7.681   5.092 -2.3544  0.5127  0.3211
  130CHL1  H26C15876   4.294   7.590   5.216  0.9241 -0.2456  0.1232
  130CHL1   C2715877   4.246   7.360   5.053  0.0847  0.3130 -0.1308
  130CHL1  H27A15878   4.183   7.307   4.979  1.6453  1.6107 -2.5025
  130CHL1  H27B15879   4.350   7.321   5.046  0.5806  1.7007 -0.8051
  130CHL1  H27C15880   4.204   7.350   5.156  0.4181  0.1610 -0.0075
  131CHL1    C315881   1.978   5.500   3.538 -0.5580 -0.5103  0.6586
  131CHL1    H315882   1.895   5.426   3.539 -0.5594 -0.5374 -0.2269
  131CHL1    O315883   2.067   5.482   3.426 -0.7410  0.2541 -0.2391
  131CHL1   H3'15884   2.014   5.509   3.351 -2.0476 -0.5430  0.3704
  131CHL1    C415885   1.915   5.641   3.543  0.4429 -0.5220 -0.3260
  131CHL1   H4A15886   1.991   5.723   3.543  0.1542 -0.2515 -0.6312
  131CHL1   H4B15887   1.857   5.659   3.450  1.4211  3.2310 -0.3951
  131CHL1    C515888   1.825   5.652   3.664 -0.2475  0.6556 -0.0231
  131CHL1    C615889   1.702   5.692   3.655  0.6607  0.1274  0.3488
  131CHL1    H615890   1.652   5.720   3.561  1.1910 -1.8330 -0.5576
  131CHL1    C715891   1.608   5.714   3.772 -0.1536 -0.3168  0.1795
  131CHL1   H7A15892   1.557   5.810   3.750 -0.4815 -0.7916 -1.2411
  131CHL1   H7B15893   1.524   5.641   3.775 -0.4793  0.0360 -0.2569
  131CHL1    C815894   1.678   5.716   3.907 -0.4834  0.4960  0.1925
  131CHL1    H815895   1.738   5.810   3.913 -0.3286  0.4919 -1.0716
  131CHL1   C1415896   1.580   5.715   4.023 -0.0436  0.5122  0.1954
  131CHL1   H1415897   1.527   5.617   4.017 -0.6122  0.8135  0.2843
  131CHL1   C1515898   1.462   5.818   4.027 -0.7862  0.1151  0.2144
  131CHL1  H15A15899   1.490   5.919   3.991 -1.3162  0.1941  0.0114
  131CHL1  H15B15900   1.380   5.785   3.959  1.2577 -0.6241 -2.0204
  131CHL1   C1615901   1.423   5.813   4.171  0.5549 -0.3302  1.0734
  131CHL1  H16A15902   1.439   5.914   4.214  2.2270  0.6942 -1.7149
  131CHL1  H16B15903   1.316   5.786   4.178 -0.3853  1.2830 -3.7346
  131CHL1   C1715904   1.514   5.700   4.242 -0.0916  0.4496  0.6798
  131CHL1   H1715905   1.472   5.600   4.219  0.0108  0.0552  2.1673
  131CHL1   C1315906   1.643   5.702   4.164 -0.4654 -0.2982  0.3116
  131CHL1   C1815907   1.722   5.822   4.205  0.1133  0.0469 -0.1635
  131CHL1  H18A15908   1.764   5.819   4.308 -0.5134 -0.4146  0.0865
  131CHL1  H18B15909   1.810   5.825   4.136 -0.1863 -4.6925 -1.0961
  131CHL1  H18C15910   1.657   5.911   4.197 -0.8875 -0.5905  0.7237
  131CHL1   C1215911   1.725   5.569   4.167  0.6767  0.0263  0.0822
  131CHL1  H12A15912   1.780   5.545   4.261  1.9125  0.5283 -0.4834
  131CHL1  H12B15913   1.659   5.482   4.146  3.1938 -1.4925 -2.1856
  131CHL1   C1115914   1.828   5.565   4.051 -0.9762 -0.5230 -0.0163
  131CHL1  H11A15915   1.916   5.628   4.076 -1.6825 -0.2137  1.8928
  131CHL1  H11B15916   1.870   5.462   4.040 -0.1326 -0.0244 -1.7625
  131CHL1    C915917   1.776   5.597   3.909 -0.3327 -0.2479  0.1330
  131CHL1    H915918   1.709   5.516   3.876 -0.7997  0.2482 -0.1598
  131CHL1   C1015919   1.889   5.611   3.800  0.5002 -0.1293 -0.7254
  131CHL1   C1915920   1.981   5.727   3.828  0.2551  0.2829 -0.1392
  131CHL1  H19A15921   1.935   5.824   3.856  0.8269  1.3295 -2.5465
  131CHL1  H19B15922   2.045   5.701   3.915  0.0426  1.1580  0.2885
  131CHL1  H19C15923   2.052   5.748   3.745 -0.2794 -0.4402 -0.7969
  131CHL1    C115924   1.972   5.481   3.790 -0.4177 -0.3168 -0.1543
  131CHL1   H1A15925   2.044   5.471   3.874 -0.1330  1.7800 -0.0995
  131CHL1   H1B15926   1.897   5.400   3.802 -0.9202  0.3549  1.7103
  131CHL1    C215927   2.056   5.460   3.665  0.0930  0.6183  0.7077
  131CHL1   H2A15928   2.091   5.354   3.663 -0.0858  0.5249  1.8352
  131CHL1   H2B15929   2.146   5.523   3.674  0.4882  0.1440  0.1731
  131CHL1   C2015930   1.518   5.715   4.397 -0.6575 -0.4687 -0.6803
  131CHL1   H2015931   1.564   5.814   4.420 -2.5292  0.5149 -0.9289
  131CHL1   C2115932   1.607   5.607   4.468  0.1846 -0.3714  0.9481
  131CHL1  H21A15933   1.574   5.507   4.432 -0.1035  0.1184 -0.1838
  131CHL1  H21B15934   1.588   5.622   4.576 -0.0988 -0.9804  0.9902
  131CHL1  H21C15935   1.712   5.634   4.443  0.7805  0.2710  3.8091
  131CHL1   C2215936   1.366   5.724   4.449 -0.0283  0.0975  0.8200
  131CHL1  H22A15937   1.311   5.802   4.393  2.0213 -0.4766 -2.2296
  131CHL1  H22B15938   1.321   5.629   4.414  1.3158  0.1498 -1.2188
  131CHL1   C2315939   1.342   5.748   4.592  0.6321 -0.1635  0.2729
  131CHL1  H23A15940   1.232   5.730   4.587  0.6023  0.2843 -1.1451
  131CHL1  H23B15941   1.377   5.669   4.663 -0.9332  0.7485  2.1543
  131CHL1   C2415942   1.377   5.889   4.636 -0.3324 -0.0285  0.5172
  131CHL1  H24A15943   1.487   5.904   4.627 -0.0317 -1.8809  0.7159
  131CHL1  H24B15944   1.338   5.965   4.564 -0.7118 -0.3367  0.3939
  131CHL1   C2515945   1.341   5.936   4.778 -0.0120 -0.0654 -0.0077
  131CHL1   H2515946   1.366   6.044   4.773 -0.6233  0.0398 -3.2562
  131CHL1   C2615947   1.195   5.933   4.809  0.6708  0.4480  0.0945
  131CHL1  H26A15948   1.135   5.988   4.733 -0.8814 -0.8885  0.2849
  131CHL1  H26B15949   1.166   5.826   4.803  0.5353  0.3740  1.6711
  131CHL1  H26C15950   1.164   5.972   4.908 -0.3325 -1.2654  0.5122
  131CHL1   C2715951   1.434   5.862   4.877  0.0335  0.1508  0.2259
  131CHL1  H27A15952   1.532   5.846   4.826 -0.3700 -0.8783 -0.2263
  131CHL1  H27B15953   1.444   5.919   4.972  0.8355 -1.5099  1.1834
  131CHL1  H27C15954   1.391   5.762   4.899  1.6641 -0.3714  1.2387
  132CHL1    C315955   4.700   6.678   3.306 -0.1758  0.7801  0.3844
  132CHL1    H315956   4.592   6.655   3.316 -0.0809 -0.9752 -1.8058
  132CHL1    O315957   4.753   6.654   3.175  0.2053 -0.0498  0.1255
  132CHL1   H3'15958   4.848   6.671   3.175  0.4401 -1.2744 -0.4885
  132CHL1    C415959   4.723   6.828   3.337  1.1212 -0.0277  0.0995
  132CHL1   H4A15960   4.826   6.863   3.313  0.5079  1.8270  0.0169
  132CHL1   H4B15961   4.656   6.891   3.275 -2.4224  1.4482  4.7757
  132CHL1    C515962   4.698   6.857   3.480 -0.3555  0.5849 -0.2107
  132CHL1    C615963   4.614   6.956   3.519  0.6979  1.2995  0.8265
  132CHL1    H615964   4.563   7.014   3.440  2.1969  1.3228 -0.1635
  132CHL1    C715965   4.581   6.980   3.663  0.1616 -0.7922 -0.2123
  132CHL1   H7A15966   4.572   7.089   3.682  0.3742 -0.7121 -0.5485
  132CHL1   H7B15967   4.480   6.935   3.677  0.5492 -1.7244 -0.3543
  132CHL1    C815968   4.694   6.934   3.763 -0.1480 -0.2153  0.4783
  132CHL1    H815969   4.777   7.004   3.742 -1.5795  0.9524 -1.6913
  132CHL1   C1415970   4.666   6.960   3.912  0.3579  0.9938  1.0468
  132CHL1   H1415971   4.571   6.903   3.922  0.2679  0.7258 -0.9218
  132CHL1   C1515972   4.642   7.102   3.960 -0.0840  0.0467  0.2848
  132CHL1  H15A15973   4.697   7.189   3.917 -1.6542  1.2505  0.5933
  132CHL1  H15B15974   4.535   7.122   3.939  0.1973  0.5200 -0.7853
  132CHL1   C1615975   4.655   7.086   4.117  0.4289  0.3539 -0.0159
  132CHL1  H16A15976   4.733   7.163   4.134  0.1328  1.0932 -1.7630
  132CHL1  H16B15977   4.554   7.096   4.161 -0.5438  0.1725 -2.0578
  132CHL1   C1715978   4.706   6.945   4.141 -0.1325  0.7766  0.0467
  132CHL1   H1715979   4.614   6.884   4.152  0.0619  0.7716  1.8649
  132CHL1   C1315980   4.764   6.900   4.009 -0.6874  0.8662  0.1966
  132CHL1   C1815981   4.908   6.962   3.993 -0.0654 -0.2700 -0.2898
  132CHL1  H18A15982   4.909   7.073   3.996 -0.1518 -0.2743 -0.1170
  132CHL1  H18B15983   4.978   6.919   4.067  0.3139  0.9824  0.0900
  132CHL1  H18C15984   4.943   6.933   3.891  0.5790 -0.9739  0.1234
  132CHL1   C1215985   4.769   6.744   3.990 -0.3515  0.2949  0.5009
  132CHL1  H12A15986   4.843   6.704   4.062 -0.9296 -1.5551  0.1227
  132CHL1  H12B15987   4.675   6.697   4.027  0.8702 -0.4214  2.8394
  132CHL1   C1115988   4.804   6.702   3.843 -0.1230 -0.8517  0.2949
  132CHL1  H11A15989   4.912   6.725   3.831 -0.3099  0.6721  1.2232
  132CHL1  H11B15990   4.793   6.592   3.832  1.1280 -1.0503  0.8246
  132CHL1    C915991   4.723   6.786   3.736 -0.0241 -0.4146 -0.4410
  132CHL1    H915992   4.625   6.735   3.743 -0.7367  1.0989  1.4836
  132CHL1   C1015993   4.773   6.769   3.589 -0.4228 -0.5591 -0.6860
  132CHL1   C1915994   4.928   6.809   3.583 -0.0411  0.5421 -0.2306
  132CHL1  H19A15995   4.946   6.902   3.641 -1.9583  0.2348  0.9579
  132CHL1  H19B15996   4.995   6.732   3.627 -0.3280  0.3174 -0.1833
  132CHL1  H19C15997   4.966   6.826   3.480 -1.0095 -1.5489 -1.0008
  132CHL1    C115998   4.745   6.625   3.554  0.6646  0.0418 -0.4914
  132CHL1   H1A15999   4.801   6.555   3.619 -0.4452  0.8109  1.3746
  132CHL1   H1B16000   4.639   6.598   3.576  0.6692  0.5945  0.2483
  132CHL1    C216001   4.770   6.587   3.408 -0.5448 -0.2929 -0.9163
  132CHL1   H2A16002   4.748   6.478   3.400  1.2568 -0.7508 -0.0425
  132CHL1   H2B16003   4.879   6.582   3.389 -0.2803 -0.6666  0.5649
  132CHL1   C2016004   4.784   6.914   4.269 -0.5150  0.4113  0.8188
  132CHL1   H2016005   4.838   6.818   4.254 -1.5051 -0.1549  0.7722
  132CHL1   C2116006   4.686   6.893   4.386  0.4671 -0.2200 -0.3358
  132CHL1  H21A16007   4.647   6.994   4.411  1.2069 -0.4994  2.1695
  132CHL1  H21B16008   4.732   6.838   4.471  0.9746  0.7897  0.0688
  132CHL1  H21C16009   4.599   6.828   4.365 -0.0431  0.4482 -0.3335
  132CHL1   C2216010   4.889   7.025   4.317  1.1854  0.5577  0.5846
  132CHL1  H22A16011   4.955   7.032   4.228  1.3842  0.4357  0.7205
  132CHL1  H22B16012   4.834   7.121   4.323  0.2223 -0.0468  1.9850
  132CHL1   C2316013   4.964   6.993   4.445  0.2468  0.1265 -0.1650
  132CHL1  H23A16014   5.033   7.074   4.476 -1.3584  0.6023  2.4502
  132CHL1  H23B16015   4.895   6.975   4.531  1.0592  1.2389  0.7528
  132CHL1   C2416016   5.048   6.864   4.438 -0.1924  0.5191  0.8911
  132CHL1  H24A16017   4.986   6.781   4.397 -0.7292  0.2673  2.1638
  132CHL1  H24B16018   5.133   6.870   4.366 -0.7402 -0.1827  0.1703
  132CHL1   C2516019   5.109   6.813   4.570  0.0221 -0.1667 -0.3593
  132CHL1   H2516020   5.168   6.721   4.551 -2.5941 -1.6733 -1.9590
  132CHL1   C2616021   5.202   6.920   4.628 -0.2168  0.3058  0.2084
  132CHL1  H26A16022   5.273   6.945   4.546 -1.4175  0.3772 -0.8412
  132CHL1  H26B16023   5.147   7.011   4.662  0.6529  0.8773  0.1208
  132CHL1  H26C16024   5.254   6.886   4.720 -0.6145 -0.4321  0.1622
  132CHL1   C2716025   4.994   6.770   4.663 -0.3642  0.2777  0.0983
  132CHL1  H27A16026   5.045   6.732   4.754  2.3453  0.5287 -1.2150
  132CHL1  H27B16027   4.923   6.848   4.697 -0.9338 -1.6238  3.8150
  132CHL1  H27C16028   4.937   6.692   4.609 -3.2030  3.3695 -1.8075
  133CHL1    C316029   4.398   2.039   3.718 -0.1726  0.3544  0.1782
  133CHL1    H316030   4.487   2.095   3.753  0.0288 -0.3990  0.9182
  133CHL1    O316031   4.428   1.961   3.601 -0.2935  0.1011 -0.1415
  133CHL1   H3'16032   4.355   1.903   3.580  0.7328 -1.5255  0.5756
  133CHL1    C416033   4.364   1.942   3.829 -0.6681  0.2718  0.4937
  133CHL1   H4A16034   4.286   1.878   3.782  0.4774  0.9545 -2.5934
  133CHL1   H4B16035   4.448   1.869   3.836  0.2821  1.0535 -1.7144
  133CHL1    C516036   4.319   2.008   3.951  0.5136 -0.5307  0.2744
  133CHL1    C616037   4.369   1.976   4.070 -0.0005  0.3465  0.0732
  133CHL1    H616038   4.441   1.892   4.076 -1.7098 -1.0658  3.1964
  133CHL1    C716039   4.324   2.033   4.200  1.0640  0.3308 -0.3678
  133CHL1   H7A16040   4.303   1.951   4.273 -0.9240  0.9542 -0.1858
  133CHL1   H7B16041   4.404   2.097   4.243  0.3264  1.0478 -0.0529
  133CHL1    C816042   4.199   2.124   4.199  0.1913 -0.5742  0.2996
  133CHL1    H816043   4.106   2.064   4.206  0.3775 -1.0275 -0.9476
  133CHL1   C1416044   4.207   2.216   4.323 -0.7003  0.6623 -0.4861
  133CHL1   H1416045   4.298   2.279   4.306 -0.2847  0.3261  0.4572
  133CHL1   C1516046   4.213   2.149   4.464 -0.4721  0.7393 -0.2291
  133CHL1  H15A16047   4.132   2.074   4.471  1.0330 -0.8100  1.8169
  133CHL1  H15B16048   4.316   2.108   4.476 -0.8586  0.3410  2.1122
  133CHL1   C1616049   4.178   2.268   4.550 -0.3183  0.2273  0.0704
  133CHL1  H16A16050   4.094   2.233   4.614  0.5973 -0.4139  0.9554
  133CHL1  H16B16051   4.259   2.295   4.620 -0.6720 -1.2017  1.0842
  133CHL1   C1716052   4.132   2.394   4.467 -0.1865 -0.1249 -0.2633
  133CHL1   H1716053   4.224   2.453   4.449  1.2955 -2.6021 -1.2844
  133CHL1   C1316054   4.100   2.332   4.330 -0.2956  0.4325  0.9532
  133CHL1   C1816055   3.959   2.256   4.339  0.5640  0.1257  1.0581
  133CHL1  H18A16056   3.879   2.332   4.333 -1.0471 -1.6225 -1.7284
  133CHL1  H18B16057   3.933   2.197   4.249 -1.3865  2.0756  0.2606
  133CHL1  H18C16058   3.944   2.195   4.431 -1.3335 -0.1418  0.6095
  133CHL1   C1216059   4.106   2.409   4.195 -0.2081  0.3296  0.6447
  133CHL1  H12A16060   4.033   2.492   4.200  0.6918  1.2396 -0.6198
  133CHL1  H12B16061   4.206   2.456   4.188 -0.7178  1.5577  1.2913
  133CHL1   C1116062   4.088   2.321   4.071  0.1366 -0.5484 -0.1474
  133CHL1  H11A16063   3.990   2.270   4.075  0.0106 -0.2918  0.0428
  133CHL1  H11B16064   4.110   2.372   3.975 -0.1963 -0.1384 -0.0058
  133CHL1    C916065   4.193   2.204   4.072 -0.3075 -0.0961  0.4166
  133CHL1    H916066   4.289   2.260   4.070 -0.4848  0.2931  1.8850
  133CHL1   C1016067   4.204   2.111   3.939 -0.0871 -0.3514  0.5342
  133CHL1   C1916068   4.061   2.047   3.922 -0.6703  0.2739 -0.3174
  133CHL1  H19A16069   3.978   2.120   3.924  0.0401  1.1037 -0.3686
  133CHL1  H19B16070   4.046   2.001   3.822  0.3653  1.6499 -1.1482
  133CHL1  H19C16071   4.048   1.977   4.007 -2.6869  1.5347  0.4809
  133CHL1    C116072   4.228   2.202   3.816 -0.4937 -0.7757  0.4781
  133CHL1   H1A16073   4.139   2.265   3.794  1.2760  1.9102  0.5212
  133CHL1   H1B16074   4.305   2.270   3.860 -2.0525  0.7494  0.9634
  133CHL1    C216075   4.275   2.132   3.691  0.2007 -0.0334  0.1100
  133CHL1   H2A16076   4.299   2.201   3.607  0.2000 -1.4840 -1.1442
  133CHL1   H2B16077   4.189   2.067   3.662  1.1188 -3.0916  3.4744
  133CHL1   C2016078   4.028   2.485   4.536  0.0678  0.2669 -0.1522
  133CHL1   H2016079   3.935   2.425   4.548  0.9753 -2.0397 -3.1319
  133CHL1   C2116080   3.999   2.622   4.465  0.2367 -0.4910  0.5847
  133CHL1  H21A16081   4.097   2.674   4.465  0.2802 -0.5719  0.6572
  133CHL1  H21B16082   3.923   2.688   4.513 -2.3476 -0.5032 -3.0343
  133CHL1  H21C16083   3.959   2.606   4.363  1.5387 -0.0379 -0.0135
  133CHL1   C2216084   4.069   2.531   4.678 -0.2768  0.2337 -0.5230
  133CHL1  H22A16085   4.128   2.450   4.728 -0.8229 -0.6631 -1.2939
  133CHL1  H22B16086   4.145   2.611   4.672  0.3696  0.2008  3.7321
  133CHL1   C2316087   3.952   2.582   4.772 -0.3465 -0.3208 -0.5966
  133CHL1  H23A16088   3.924   2.683   4.734 -1.1114  0.1435  1.1261
  133CHL1  H23B16089   3.871   2.508   4.755  0.9112 -1.6960 -0.7410
  133CHL1   C2416090   3.994   2.598   4.917  0.3157 -0.0329 -0.2325
  133CHL1  H24A16091   4.038   2.509   4.967  2.0601  0.2669 -1.1206
  133CHL1  H24B16092   4.083   2.665   4.922  1.9658 -2.0999 -0.2398
  133CHL1   C2516093   3.893   2.662   5.005 -0.4674 -0.4631 -0.7643
  133CHL1   H2516094   3.843   2.748   4.955 -2.7279 -0.3524  1.4775
  133CHL1   C2616095   3.774   2.568   5.054 -0.6804  0.3166 -0.4878
  133CHL1  H26A16096   3.820   2.475   5.095  1.5864  1.1805 -0.8890
  133CHL1  H26B16097   3.713   2.616   5.133  2.1342 -1.2740  2.9627
  133CHL1  H26C16098   3.710   2.546   4.966 -1.1248 -0.4449  0.0160
  133CHL1   C2716099   3.954   2.722   5.134  0.4237  0.1092 -0.2982
  133CHL1  H27A16100   4.025   2.804   5.113 -0.7393  1.3744  0.5037
  133CHL1  H27B16101   3.867   2.765   5.189  1.0102  1.7492 -0.5944
  133CHL1  H27C16102   4.005   2.651   5.203 -0.0858  0.1283  0.1027
  134CHL1    C316103   1.493   4.026   3.474  0.3991 -1.0571  0.2478
  134CHL1    H316104   1.576   3.953   3.466  0.1018 -1.2617 -1.2074
  134CHL1    O316105   1.421   4.035   3.347 -0.4292 -0.0909 -0.2101
  134CHL1   H3'16106   1.347   4.095   3.358  0.6970  1.4023 -0.3391
  134CHL1    C416107   1.400   3.989   3.590 -0.2370  0.3725  0.4890
  134CHL1   H4A16108   1.309   4.053   3.587 -0.5552 -0.0472 -2.3736
  134CHL1   H4B16109   1.356   3.888   3.576 -0.6441  0.3490  1.7827
  134CHL1    C516110   1.454   3.993   3.730 -0.1713 -0.3983  0.5804
  134CHL1    C616111   1.452   3.887   3.810 -0.6739  0.3557  0.1335
  134CHL1    H616112   1.389   3.802   3.781 -1.8038  1.0558  0.4626
  134CHL1    C716113   1.496   3.887   3.955  0.2056 -0.2727 -0.4072
  134CHL1   H7A16114   1.426   3.843   4.028 -0.6133  1.3178 -0.1966
  134CHL1   H7B16115   1.585   3.821   3.969  0.5666 -0.0003 -1.3402
  134CHL1    C816116   1.528   4.034   4.007  0.0198  0.3589 -0.0955
  134CHL1    H816117   1.429   4.083   4.021 -0.0640  0.5461 -1.2326
  134CHL1   C1416118   1.620   4.016   4.127  0.5876  0.3715 -0.5024
  134CHL1   H1416119   1.710   3.962   4.091  0.3260 -0.8230  0.5783
  134CHL1   C1516120   1.571   3.936   4.246 -0.4588 -0.0639 -0.5693
  134CHL1  H15A16121   1.472   3.983   4.268 -0.5115  0.4334 -1.7486
  134CHL1  H15B16122   1.547   3.831   4.219 -2.0147  0.3281 -0.8419
  134CHL1   C1616123   1.664   3.976   4.358 -0.2856  0.1310  0.2904
  134CHL1  H16A16124   1.599   4.012   4.440 -0.3077  0.2031  0.2421
  134CHL1  H16B16125   1.714   3.880   4.383  0.4797  0.6257  0.6997
  134CHL1   C1716126   1.754   4.089   4.307  0.0736  0.1897  0.3632
  134CHL1   H1716127   1.835   4.033   4.256 -1.2926 -1.6893  0.1667
  134CHL1   C1316128   1.668   4.149   4.187 -1.2405  1.0670 -0.3188
  134CHL1   C1816129   1.554   4.237   4.240  0.6732 -0.7772  0.0494
  134CHL1  H18A16130   1.473   4.261   4.168  2.1575 -0.8899 -1.7475
  134CHL1  H18B16131   1.507   4.206   4.335  0.5843  0.5533  0.4569
  134CHL1  H18C16132   1.599   4.337   4.257  0.9312 -0.7795 -0.6015
  134CHL1   C1216133   1.745   4.226   4.076 -0.3230 -0.4415 -0.7508
  134CHL1  H12A16134   1.761   4.330   4.110 -0.7221 -0.8746  0.8457
  134CHL1  H12B16135   1.836   4.166   4.055  0.1198 -1.1301  2.6188
  134CHL1   C1116136   1.643   4.244   3.955 -0.2821  0.9398 -0.0041
  134CHL1  H11A16137   1.554   4.304   3.984 -1.7439 -0.1392 -2.0290
  134CHL1  H11B16138   1.700   4.304   3.882  0.7104  1.7642  1.3962
  134CHL1    C916139   1.590   4.112   3.895 -0.3237 -0.2342 -0.3435
  134CHL1    H916140   1.686   4.064   3.867 -0.2514 -0.0076 -0.4858
  134CHL1   C1016141   1.507   4.131   3.762 -0.2301  0.1722 -0.0941
  134CHL1   C1916142   1.405   4.245   3.778 -0.0471 -0.4096  0.5400
  134CHL1  H19A16143   1.465   4.339   3.768  1.0590 -1.1307  0.2146
  134CHL1  H19B16144   1.336   4.247   3.691 -0.9621  0.2883  1.2614
  134CHL1  H19C16145   1.348   4.242   3.872 -1.1342 -1.0260 -0.1215
  134CHL1    C116146   1.606   4.180   3.649 -0.7284  0.7208  0.0400
  134CHL1   H1A16147   1.638   4.283   3.677 -0.6075 -0.2895  4.3274
  134CHL1   H1B16148   1.694   4.113   3.656 -0.7063  0.4490 -2.2353
  134CHL1    C216149   1.549   4.171   3.510  0.2812  0.4881  0.0908
  134CHL1   H2A16150   1.626   4.203   3.436  1.7153 -0.4901  1.1171
  134CHL1   H2B16151   1.464   4.241   3.498  0.4064  0.1886 -3.7363
  134CHL1   C2016152   1.805   4.183   4.418  0.0363 -0.1117  0.2226
  134CHL1   H2016153   1.718   4.246   4.447 -1.4078 -0.7626 -2.3068
  134CHL1   C2116154   1.913   4.274   4.369 -0.0289 -0.3031 -0.2603
  134CHL1  H21A16155   1.931   4.358   4.440  0.2042 -0.3704 -0.2397
  134CHL1  H21B16156   1.890   4.331   4.277  0.6308 -1.0617 -0.9093
  134CHL1  H21C16157   2.012   4.223   4.360  0.1761 -0.4861  2.2046
  134CHL1   C2216158   1.851   4.105   4.542  0.1222 -0.9082 -0.4887
  134CHL1  H22A16159   1.763   4.047   4.578  1.5071 -1.7440  1.7860
  134CHL1  H22B16160   1.931   4.032   4.515 -0.4330 -1.9423  0.5499
  134CHL1   C2316161   1.907   4.190   4.662 -0.3672  0.8418  0.3426
  134CHL1  H23A16162   1.990   4.255   4.630 -1.0112  1.3719 -0.2904
  134CHL1  H23B16163   1.825   4.253   4.702 -0.4164  0.5140  0.7766
  134CHL1   C2416164   1.959   4.104   4.781  0.1878 -0.2873 -1.0660
  134CHL1  H24A16165   1.877   4.033   4.806  0.7596 -2.2077 -4.1211
  134CHL1  H24B16166   2.039   4.044   4.734  0.4690  0.1071 -1.0877
  134CHL1   C2516167   2.013   4.163   4.912  0.0074  0.4172 -0.8419
  134CHL1   H2516168   2.075   4.082   4.955 -1.6662 -0.8597 -0.7273
  134CHL1   C2616169   2.117   4.278   4.876 -0.0320  0.3481  0.3855
  134CHL1  H26A16170   2.193   4.291   4.956  0.1693 -1.7309  0.5883
  134CHL1  H26B16171   2.155   4.251   4.775 -0.8792 -2.7324  0.7882
  134CHL1  H26C16172   2.063   4.373   4.858 -3.1190 -1.2500  0.4990
  134CHL1   C2716173   1.903   4.211   5.011 -0.1731 -0.1704  0.7154
  134CHL1  H27A16174   1.946   4.267   5.097  0.8136 -0.4060  0.3970
  134CHL1  H27B16175   1.838   4.284   4.958  0.7477  0.6541  0.6970
  134CHL1  H27C16176   1.843   4.124   5.047 -0.5002  0.0999  0.8221
  135CHL1    C316177   1.628   3.640   3.611 -0.5665 -0.3183  0.1732
  135CHL1    H316178   1.587   3.737   3.648  0.5101  0.8099 -1.4656
  135CHL1    O316179   1.568   3.621   3.484  0.1139 -0.3349 -0.2303
  135CHL1   H3'16180   1.599   3.536   3.453 -0.2051 -0.2940 -0.6696
  135CHL1    C416181   1.782   3.653   3.595  0.3910  0.7296  0.7616
  135CHL1   H4A16182   1.826   3.559   3.554  0.7923  0.3658  1.9768
  135CHL1   H4B16183   1.802   3.735   3.524 -0.0015 -0.2763 -0.5535
  135CHL1    C516184   1.840   3.681   3.732 -0.5011 -0.1614 -0.2763
  135CHL1    C616185   1.907   3.797   3.765 -0.0123  0.5823  0.7183
  135CHL1    H616186   1.929   3.874   3.690  0.4777  0.7868  1.0673
  135CHL1    C716187   1.980   3.833   3.889 -0.0995  0.6213  0.2086
  135CHL1   H7A16188   2.088   3.856   3.876 -0.3158  1.2119 -0.6658
  135CHL1   H7B16189   1.936   3.926   3.933 -2.7347 -0.5265  0.1701
  135CHL1    C816190   1.974   3.716   3.999 -0.6416 -0.1136  0.2683
  135CHL1    H816191   2.065   3.655   3.977 -2.0426 -2.1507 -0.1372
  135CHL1   C1416192   1.990   3.765   4.147 -0.5244  0.1379 -0.0902
  135CHL1   H1416193   1.900   3.823   4.176 -0.4614  0.1380  0.1061
  135CHL1   C1516194   2.114   3.854   4.172  0.1982 -0.0067 -0.1500
  135CHL1  H15A16195   2.204   3.805   4.130  0.6578 -1.0029  1.8326
  135CHL1  H15B16196   2.095   3.952   4.125 -2.3100 -0.5107 -0.3472
  135CHL1   C1616197   2.137   3.841   4.323 -0.4691 -0.6132 -0.4734
  135CHL1  H16A16198   2.246   3.841   4.344  0.0809  1.8307 -2.8085
  135CHL1  H16B16199   2.102   3.938   4.364  2.5965  0.5655 -0.4537
  135CHL1   C1716200   2.037   3.725   4.373 -0.2579  0.0706 -0.1400
  135CHL1   H1716201   1.943   3.775   4.403 -0.5581 -0.2143 -0.5865
  135CHL1   C1316202   2.008   3.650   4.245  0.5730  0.1364 -0.3124
  135CHL1   C1816203   2.120   3.555   4.214 -0.2544 -0.1374 -0.1343
  135CHL1  H18A16204   2.216   3.608   4.230 -0.5069  0.1576  0.4402
  135CHL1  H18B16205   2.139   3.464   4.276  1.0648  0.1416 -0.0985
  135CHL1  H18C16206   2.104   3.511   4.113 -2.9379  1.0498 -0.3268
  135CHL1   C1216207   1.875   3.568   4.236  0.2315  0.1127 -0.6418
  135CHL1  H12A16208   1.872   3.478   4.300  0.8467 -0.6102 -1.6042
  135CHL1  H12B16209   1.796   3.639   4.268 -0.7963  0.4074 -3.4932
  135CHL1   C1116210   1.843   3.514   4.095 -0.1780 -0.4948 -0.3374
  135CHL1  H11A16211   1.923   3.440   4.077  0.6725  0.1101  0.8586
  135CHL1  H11B16212   1.743   3.466   4.098 -0.5308  0.2469  2.1249
  135CHL1    C916213   1.848   3.625   3.982  0.1368 -0.1774  0.1334
  135CHL1    H916214   1.759   3.688   4.003 -1.3408 -1.6716 -1.2869
  135CHL1   C1016215   1.822   3.573   3.840  0.3256  0.2833 -0.2931
  135CHL1   C1916216   1.903   3.445   3.816  0.0719 -0.0233  0.8289
  135CHL1  H19A16217   1.860   3.376   3.892 -3.4494 -0.6162 -1.4672
  135CHL1  H19B16218   1.878   3.404   3.716  0.9026  0.2113  0.5161
  135CHL1  H19C16219   2.012   3.467   3.827 -0.0519  3.0523 -2.2735
  135CHL1    C116220   1.665   3.535   3.840 -0.1058 -0.5732  0.3178
  135CHL1   H1A16221   1.650   3.448   3.908  1.7839 -0.6865  0.6515
  135CHL1   H1B16222   1.607   3.619   3.883 -0.9591 -0.3516 -1.2150
  135CHL1    C216223   1.593   3.525   3.702  0.0499  0.1780 -0.1699
  135CHL1   H2A16224   1.483   3.520   3.716  0.0806 -0.2553 -0.0605
  135CHL1   H2B16225   1.630   3.435   3.648  3.0462  0.7267  0.7569
  135CHL1   C2016226   2.090   3.660   4.504  0.5553 -0.2057  0.5266
  135CHL1   H2016227   2.184   3.611   4.470  0.8422  1.0914 -0.6576
  135CHL1   C2116228   1.975   3.564   4.563  0.2041  0.1031 -0.6420
  135CHL1  H21A16229   1.882   3.626   4.570 -0.3435 -0.8909  1.5139
  135CHL1  H21B16230   1.997   3.522   4.663 -1.1545 -1.5474 -0.9922
  135CHL1  H21C16231   1.956   3.475   4.499 -1.5078  0.4382 -0.6468
  135CHL1   C2216232   2.130   3.765   4.620 -0.1776  0.5503  0.0160
  135CHL1  H22A16233   2.183   3.845   4.565 -2.3983  0.3149 -2.6970
  135CHL1  H22B16234   2.028   3.802   4.645  0.1862  1.0335  0.8024
  135CHL1   C2316235   2.211   3.706   4.741 -0.2800 -0.8775 -0.1776
  135CHL1  H23A16236   2.155   3.627   4.795 -0.0118 -0.8911  0.0794
  135CHL1  H23B16237   2.304   3.663   4.698 -0.2742 -0.5271 -0.5221
  135CHL1   C2416238   2.243   3.803   4.850 -0.3191  0.1131  1.1705
  135CHL1  H24A16239   2.290   3.891   4.801  0.4270 -0.9876 -0.1382
  135CHL1  H24B16240   2.148   3.843   4.892 -0.5800  2.5991 -1.5116
  135CHL1   C2516241   2.350   3.748   4.955  0.0547  0.0463  0.3881
  135CHL1   H2516242   2.327   3.640   4.967 -2.9363  0.4910 -0.3882
  135CHL1   C2616243   2.498   3.773   4.906  0.4483  0.2343 -0.3221
  135CHL1  H26A16244   2.502   3.707   4.817  0.0850  0.7833 -0.7500
  135CHL1  H26B16245   2.507   3.877   4.869  0.7070 -0.0157 -0.9713
  135CHL1  H26C16246   2.563   3.735   4.988  0.2200 -0.2961 -0.3793
  135CHL1   C2716247   2.320   3.818   5.084  0.2741  0.2050 -0.3279
  135CHL1  H27A16248   2.328   3.929   5.081 -2.5341  0.4839  0.2382
  135CHL1  H27B16249   2.222   3.789   5.127 -0.2222 -0.7078 -1.9765
  135CHL1  H27C16250   2.394   3.788   5.162 -1.1449 -0.9215  0.6473
  136CHL1    C316251   5.312   0.441   3.085  0.1048  0.1749 -0.1350
  136CHL1    H316252   5.351   0.546   3.085 -0.3807  0.4095  2.0395
  136CHL1    O316253   5.298   0.400   2.946 -0.3589  0.2759  0.1795
  136CHL1   H3'16254   5.203   0.401   2.941 -0.4529 -2.4205 -0.1278
  136CHL1    C416255   5.406   0.340   3.165 -0.2270 -1.1176  0.3659
  136CHL1   H4A16256   5.374   0.238   3.135 -2.1144 -0.1307 -1.2379
  136CHL1   H4B16257   5.508   0.359   3.124 -0.2047  0.0155  0.9095
  136CHL1    C516258   5.417   0.347   3.309 -0.1913 -0.0144  0.2135
  136CHL1    C616259   5.536   0.336   3.367 -0.1404  0.1181  0.4162
  136CHL1    H616260   5.629   0.325   3.309 -1.2657 -0.2556 -1.4109
  136CHL1    C716261   5.562   0.341   3.514  0.1629  0.2338 -0.2319
  136CHL1   H7A16262   5.628   0.260   3.551  0.7270  0.0424 -1.5747
  136CHL1   H7B16263   5.592   0.443   3.547  0.5740 -0.8546  3.0659
  136CHL1    C816264   5.424   0.329   3.592 -0.8713  0.1011  0.2634
  136CHL1    H816265   5.397   0.222   3.582 -1.3384  0.3860 -2.5437
  136CHL1   C1416266   5.435   0.361   3.742 -0.9202  0.3700  0.3437
  136CHL1   H1416267   5.449   0.471   3.753  1.0772  0.1884 -0.1608
  136CHL1   C1516268   5.559   0.308   3.816  0.1012  0.7891  0.2818
  136CHL1  H15A16269   5.548   0.199   3.797  0.3328  0.7818  0.1921
  136CHL1  H15B16270   5.659   0.339   3.781  0.4459 -0.3444  0.2258
  136CHL1   C1616271   5.523   0.332   3.963 -0.1769 -0.3623 -0.5021
  136CHL1  H16A16272   5.550   0.248   4.030 -0.4426 -0.6583 -0.7672
  136CHL1  H16B16273   5.584   0.417   4.000 -0.9864  0.1977 -0.4343
  136CHL1   C1716274   5.369   0.365   3.974 -0.3853 -0.1634  0.5602
  136CHL1   H1716275   5.376   0.476   3.978  3.9842 -0.1776 -1.5621
  136CHL1   C1316276   5.307   0.336   3.827  0.1005 -0.3795 -0.9030
  136CHL1   C1816277   5.267   0.185   3.829  0.3623 -0.8620  0.0864
  136CHL1  H18A16278   5.332   0.111   3.881  1.4054 -0.6151 -0.8238
  136CHL1  H18B16279   5.171   0.180   3.885 -0.3180 -0.0160 -0.9693
  136CHL1  H18C16280   5.260   0.147   3.725  2.3192 -1.4644  0.1388
  136CHL1   C1216281   5.206   0.428   3.773 -0.3162  0.0963 -0.3443
  136CHL1  H12A16282   5.109   0.424   3.827 -1.3950  0.7485 -2.1841
  136CHL1  H12B16283   5.236   0.536   3.776  1.2660 -0.3004 -0.8043
  136CHL1   C1116284   5.180   0.399   3.626  0.2904 -0.1389  0.4618
  136CHL1  H11A16285   5.129   0.301   3.613 -0.7286  0.4294  0.0499
  136CHL1  H11B16286   5.117   0.481   3.585 -1.9430 -1.6848  0.5979
  136CHL1    C916287   5.310   0.398   3.539  0.2403  0.2196 -0.0706
  136CHL1    H916288   5.332   0.507   3.536 -0.0632  0.2959  0.4260
  136CHL1   C1016289   5.287   0.360   3.387  0.5770 -0.9175  0.1142
  136CHL1   C1916290   5.217   0.223   3.392  0.0884 -0.0655 -0.1521
  136CHL1  H19A16291   5.114   0.243   3.428  1.1191  2.6752  1.6199
  136CHL1  H19B16292   5.215   0.174   3.292  0.6473 -1.8498  0.6876
  136CHL1  H19C16293   5.273   0.153   3.457  1.4191  1.0727 -0.0133
  136CHL1    C116294   5.192   0.465   3.310 -0.3566 -0.0706  0.3831
  136CHL1   H1A16295   5.092   0.478   3.357  0.5599  2.5604  1.8350
  136CHL1   H1B16296   5.244   0.562   3.328  1.2100 -0.8881  0.4302
  136CHL1    C216297   5.173   0.441   3.156 -0.1932  0.5542  0.1785
  136CHL1   H2A16298   5.100   0.512   3.113 -0.7986 -0.9778 -1.5054
  136CHL1   H2B16299   5.127   0.345   3.122  1.5245  0.4974 -2.2858
  136CHL1   C2016300   5.290   0.326   4.100 -0.0110  0.0343  0.1968
  136CHL1   H2016301   5.266   0.217   4.104  0.7243 -0.1650 -0.5645
  136CHL1   C2116302   5.150   0.396   4.100 -0.2576 -0.4224 -0.3293
  136CHL1  H21A16303   5.167   0.496   4.053  1.8619 -0.8644 -0.6370
  136CHL1  H21B16304   5.108   0.410   4.202 -1.4933 -0.8181 -0.7758
  136CHL1  H21C16305   5.086   0.338   4.031  0.4762 -2.4789  0.6245
  136CHL1   C2216306   5.369   0.356   4.228 -0.4745  0.3975 -0.4034
  136CHL1  H22A16307   5.467   0.306   4.213 -0.4175  0.8273 -1.5486
  136CHL1  H22B16308   5.382   0.466   4.236  0.3066  0.4121 -1.6625
  136CHL1   C2316309   5.311   0.287   4.352 -0.3636 -0.4172 -0.6231
  136CHL1  H23A16310   5.207   0.326   4.363  0.1622  0.5185  1.5319
  136CHL1  H23B16311   5.308   0.178   4.331  0.4495 -0.4453 -0.6178
  136CHL1   C2416312   5.384   0.313   4.483  0.0078  0.2658 -0.7375
  136CHL1  H24A16313   5.481   0.260   4.468  0.0832 -0.9157  3.0120
  136CHL1  H24B16314   5.403   0.421   4.503  1.0535  0.2559 -1.5639
  136CHL1   C2516315   5.330   0.250   4.609  0.7447 -0.7304 -0.4447
  136CHL1   H2516316   5.325   0.141   4.587  0.1007 -0.9744  0.7959
  136CHL1   C2616317   5.416   0.272   4.730 -0.9895  0.7220 -0.7723
  136CHL1  H26A16318   5.519   0.239   4.707 -0.5849  0.9983  0.5511
  136CHL1  H26B16319   5.409   0.380   4.758 -1.0762  0.9500 -1.6408
  136CHL1  H26C16320   5.389   0.209   4.817 -1.3689 -1.1764 -2.2135
  136CHL1   C2716321   5.191   0.307   4.632 -0.2254  0.6830 -0.5819
  136CHL1  H27A16322   5.125   0.246   4.567  1.0627 -1.1586 -0.2378
  136CHL1  H27B16323   5.156   0.293   4.737 -0.0091  1.4747 -0.3938
  136CHL1  H27C16324   5.185   0.417   4.615 -1.6542  0.8150  0.5192
  137CHL1    C316325   1.945   2.952   3.691  0.1046  0.0327 -0.6960
  137CHL1    H316326   2.029   2.879   3.692 -0.3197 -0.4936 -1.8018
  137CHL1    O316327   1.893   2.986   3.563 -0.1027  0.2854 -0.3847
  137CHL1   H3'16328   1.881   2.904   3.516  1.6263 -0.7703  0.9007
  137CHL1    C416329   1.832   2.880   3.771  0.1174 -0.2194 -0.5932
  137CHL1   H4A16330   1.735   2.930   3.751  0.0642  0.5559  1.4299
  137CHL1   H4B16331   1.820   2.776   3.732 -1.0079 -0.1216 -0.5414
  137CHL1    C516332   1.857   2.878   3.918  0.3018 -0.4004  0.5825
  137CHL1    C616333   1.888   2.769   3.989  0.0491 -0.1637 -0.1592
  137CHL1    H616334   1.885   2.669   3.945  0.2994  0.4990 -1.7623
  137CHL1    C716335   1.909   2.767   4.139 -0.6556 -0.1958 -0.4673
  137CHL1   H7A16336   1.853   2.685   4.189 -1.4790  0.1426 -0.8119
  137CHL1   H7B16337   2.015   2.750   4.167 -1.4899 -0.4475  2.9751
  137CHL1    C816338   1.860   2.897   4.210  0.6576  0.3621  0.4926
  137CHL1    H816339   1.750   2.910   4.215  0.7394  1.2988  0.0147
  137CHL1   C1416340   1.913   2.904   4.351  0.2321 -0.1092  0.6680
  137CHL1   H1416341   2.023   2.900   4.332 -0.3046 -1.4600 -2.9656
  137CHL1   C1516342   1.869   2.788   4.441 -0.1032  0.3678 -0.1842
  137CHL1  H15A16343   1.760   2.771   4.430  0.0278 -0.7874  0.1094
  137CHL1  H15B16344   1.921   2.691   4.426 -0.0817  0.1333  1.2215
  137CHL1   C1616345   1.898   2.843   4.585  0.7416  0.0138  0.7220
  137CHL1  H16A16346   1.801   2.830   4.637 -0.9842  1.8495 -1.8240
  137CHL1  H16B16347   1.986   2.797   4.636  1.4887 -0.9238 -1.3408
  137CHL1   C1716348   1.935   2.993   4.572 -0.1207 -0.5477 -0.3575
  137CHL1   H1716349   2.045   3.007   4.570 -0.0868 -0.8662 -0.6816
  137CHL1   C1316350   1.886   3.031   4.429 -0.6854  0.7619  0.5735
  137CHL1   C1816351   1.729   3.053   4.433 -0.3272 -0.3294  0.2398
  137CHL1  H18A16352   1.686   3.082   4.334  0.4809  0.8067  0.2057
  137CHL1  H18B16353   1.668   2.963   4.456  1.5426 -1.6499  0.2133
  137CHL1  H18C16354   1.702   3.134   4.505  3.2875  0.7262  0.6042
  137CHL1   C1216355   1.960   3.149   4.357 -0.5753  0.4162  0.1249
  137CHL1  H12A16356   1.965   3.247   4.409 -0.6362  0.7192 -0.4455
  137CHL1  H12B16357   2.067   3.121   4.348 -0.7805 -0.1320 -0.6326
  137CHL1   C1116358   1.917   3.149   4.211 -0.3430  0.0198 -0.3419
  137CHL1  H11A16359   1.813   3.188   4.208  0.3715  2.3932  1.9939
  137CHL1  H11B16360   1.978   3.234   4.173  0.7065  0.2228  1.6367
  137CHL1    C916361   1.919   3.013   4.134 -0.4095 -0.3747 -0.3254
  137CHL1    H916362   2.028   2.993   4.131 -0.1035  1.2041 -0.3714
  137CHL1   C1016363   1.876   3.014   3.988 -0.4408 -0.2727 -1.1049
  137CHL1   C1916364   1.738   3.096   3.973  0.2314 -0.0021  0.8168
  137CHL1  H19A16365   1.713   3.115   3.867  2.1023  0.1294  0.3562
  137CHL1  H19B16366   1.666   3.038   4.034  0.4711  0.5363  1.6206
  137CHL1  H19C16367   1.748   3.198   4.016 -1.6250  1.0882 -1.1463
  137CHL1    C116368   1.994   3.082   3.911 -0.3834  0.1268  0.5748
  137CHL1   H1A16369   2.003   3.186   3.952 -2.8867  1.3679 -1.7315
  137CHL1   H1B16370   2.088   3.028   3.936 -0.2474  0.9391  1.9443
  137CHL1    C216371   1.973   3.087   3.758  0.4137  0.5280  0.2105
  137CHL1   H2A16372   2.050   3.148   3.705 -0.8407  1.2098 -0.8910
  137CHL1   H2B16373   1.877   3.141   3.749 -0.4418 -0.8754  0.6275
  137CHL1   C2016374   1.889   3.081   4.695  0.4439  0.3273 -0.3818
  137CHL1   H2016375   1.779   3.072   4.706  0.4372  1.5086  0.8046
  137CHL1   C2116376   1.931   3.229   4.689  0.0618 -0.6198 -0.1641
  137CHL1  H21A16377   1.916   3.279   4.787 -0.6828 -0.1696 -0.4892
  137CHL1  H21B16378   1.867   3.287   4.619  0.5095 -0.8009 -0.7311
  137CHL1  H21C16379   2.039   3.231   4.664  0.4201 -1.6652  1.1949
  137CHL1   C2216380   1.921   3.016   4.837 -0.6112 -0.0864  0.0810
  137CHL1  H22A16381   1.891   3.080   4.922  1.5914 -0.9303  1.5884
  137CHL1  H22B16382   1.871   2.917   4.843 -1.3825  0.3172  0.3168
  137CHL1   C2316383   2.065   3.004   4.862  0.0707 -0.7365  0.1538
  137CHL1  H23A16384   2.125   2.956   4.782 -0.5277 -1.0203 -0.1335
  137CHL1  H23B16385   2.109   3.105   4.867  1.3377 -1.2171 -0.7282
  137CHL1   C2416386   2.076   2.929   4.995 -0.0299 -0.3862  0.5453
  137CHL1  H24A16387   2.045   2.996   5.079  0.5471  2.4274 -1.3485
  137CHL1  H24B16388   2.003   2.845   4.990 -2.6977  1.7482  1.2397
  137CHL1   C2516389   2.217   2.877   5.021 -0.0350 -0.2590 -0.5540
  137CHL1   H2516390   2.236   2.804   4.939  0.2176 -1.3295  0.4302
  137CHL1   C2616391   2.335   2.974   5.016  0.7001  0.1625  0.2340
  137CHL1  H26A16392   2.421   2.908   5.040 -1.2995 -2.7187  0.0778
  137CHL1  H26B16393   2.345   3.014   4.913  0.0650 -0.8414 -0.2328
  137CHL1  H26C16394   2.314   3.047   5.097  0.4290  0.3300  0.0133
  137CHL1   C2716395   2.226   2.800   5.153  0.0940 -0.0168  0.6920
  137CHL1  H27A16396   2.143   2.728   5.166  0.0210 -0.8437 -3.0393
  137CHL1  H27B16397   2.315   2.733   5.153 -0.6252 -1.0068  1.6527
  137CHL1  H27C16398   2.232   2.871   5.238 -2.1682  0.0353  0.8538
  138CHL1    C316399   6.357   0.710   3.296  0.3783  0.1503 -0.2312
  138CHL1    H316400   6.457   0.750   3.322 -0.2212  1.8223 -0.3958
  138CHL1    O316401   6.330   0.766   3.172  0.1069 -0.1401 -0.0374
  138CHL1   H3'16402   6.266   0.709   3.128  0.3295 -0.3087 -0.1477
  138CHL1    C416403   6.349   0.556   3.289  0.3560  0.1825 -0.1412
  138CHL1   H4A16404   6.242   0.525   3.286  0.5547 -0.5179 -0.1891
  138CHL1   H4B16405   6.408   0.514   3.206  1.2891 -2.3410  1.6784
  138CHL1    C516406   6.393   0.509   3.426 -0.4352 -0.1041 -0.0739
  138CHL1    C616407   6.503   0.434   3.435  0.0472  0.6935  0.6610
  138CHL1    H616408   6.534   0.399   3.335  1.3337  3.1206  0.1265
  138CHL1    C716409   6.557   0.385   3.567  0.2371  0.1538  0.0663
  138CHL1   H7A16410   6.601   0.284   3.551 -1.2487 -0.3812 -0.9034
  138CHL1   H7B16411   6.638   0.456   3.594 -0.6671  1.4218 -0.4525
  138CHL1    C816412   6.455   0.385   3.684 -0.6226  0.0825 -1.1386
  138CHL1    H816413   6.378   0.308   3.663 -0.2940 -0.8821  0.8882
  138CHL1   C1416414   6.526   0.370   3.815 -0.1253 -0.3372 -0.6080
  138CHL1   H1416415   6.593   0.456   3.837  0.2747 -1.0176  1.0202
  138CHL1   C1516416   6.631   0.258   3.842  0.2516  0.1877  0.2273
  138CHL1  H15A16417   6.597   0.163   3.796  0.9825  0.6116 -1.2596
  138CHL1  H15B16418   6.730   0.293   3.805 -0.3934  1.7688 -0.1134
  138CHL1   C1616419   6.628   0.246   3.991  0.1420  0.1386 -0.2979
  138CHL1  H16A16420   6.587   0.145   4.013 -0.7812  0.9180  1.8118
  138CHL1  H16B16421   6.733   0.255   4.028 -0.6215  0.3104  2.0005
  138CHL1   C1716422   6.523   0.338   4.054  0.4467  0.1495 -0.4432
  138CHL1   H1716423   6.565   0.440   4.071  1.8101 -0.2908 -1.1239
  138CHL1   C1316424   6.422   0.369   3.938  0.0398 -0.3800  0.2559
  138CHL1   C1816425   6.335   0.242   3.918 -0.2150  0.0976 -0.3417
  138CHL1  H18A16426   6.275   0.257   3.826 -0.1004 -0.9487 -0.5964
  138CHL1  H18B16427   6.394   0.148   3.908  0.8436  0.8149 -1.1061
  138CHL1  H18C16428   6.266   0.240   4.005 -1.2757 -1.1834 -1.1690
  138CHL1   C1216429   6.344   0.504   3.936  0.3615  0.1984 -0.6930
  138CHL1  H12A16430   6.261   0.495   4.009 -0.6180  0.5579 -1.7355
  138CHL1  H12B16431   6.413   0.586   3.963  0.0541  0.5542 -0.9865
  138CHL1   C1116432   6.284   0.535   3.801  0.5211  0.3879  0.4528
  138CHL1  H11A16433   6.205   0.458   3.789  0.9715 -0.0192  0.0490
  138CHL1  H11B16434   6.236   0.635   3.793 -0.0641  0.0596 -0.2482
  138CHL1    C916435   6.382   0.524   3.682 -0.0919  0.6144 -0.3504
  138CHL1    H916436   6.457   0.604   3.697  0.4141  0.0280  0.3613
  138CHL1   C1016437   6.307   0.556   3.544  0.2508 -0.1019 -0.6572
  138CHL1   C1916438   6.168   0.488   3.538 -0.9417  0.8941  0.2706
  138CHL1  H19A16439   6.111   0.482   3.442 -0.4696  0.0586  0.0317
  138CHL1  H19B16440   6.181   0.380   3.561 -0.9142  0.7622 -0.3292
  138CHL1  H19C16441   6.104   0.548   3.606 -0.4660  1.8536 -0.1154
  138CHL1    C116442   6.288   0.712   3.538 -0.5518  0.3658 -0.3505
  138CHL1   H1A16443   6.209   0.738   3.613 -0.3035 -0.4085  0.2011
  138CHL1   H1B16444   6.381   0.766   3.566 -0.3972 -0.0384 -0.0685
  138CHL1    C216445   6.260   0.769   3.398 -0.8225  0.4616 -0.4873
  138CHL1   H2A16446   6.254   0.880   3.398  0.2368  0.5450  0.4011
  138CHL1   H2B16447   6.163   0.742   3.352 -0.2233  0.3037 -1.6840
  138CHL1   C2016448   6.472   0.298   4.193  0.6068  0.3109 -0.6383
  138CHL1   H2016449   6.423   0.200   4.173 -1.3683  1.4074 -1.5943
  138CHL1   C2116450   6.376   0.402   4.244 -0.2852 -0.5892 -0.5314
  138CHL1  H21A16451   6.410   0.505   4.222 -0.0660  0.4268  3.6287
  138CHL1  H21B16452   6.353   0.405   4.353 -0.6252  0.3396 -0.6202
  138CHL1  H21C16453   6.275   0.402   4.197 -0.8269 -1.0253  0.5702
  138CHL1   C2216454   6.585   0.272   4.291 -0.0739 -0.1417 -0.5160
  138CHL1  H22A16455   6.655   0.192   4.258  0.0657 -0.6504  0.9640
  138CHL1  H22B16456   6.644   0.365   4.280 -1.2333  0.9608  1.9480
  138CHL1   C2316457   6.550   0.218   4.432  0.8079  0.2622  0.1000
  138CHL1  H23A16458   6.640   0.211   4.497 -1.0137 -2.9373  2.5682
  138CHL1  H23B16459   6.489   0.299   4.478  0.1891 -1.0008  1.5669
  138CHL1   C2416460   6.506   0.077   4.418 -0.5655 -0.7739 -0.4653
  138CHL1  H24A16461   6.412   0.059   4.362 -0.5739 -0.4902 -0.5430
  138CHL1  H24B16462   6.589   0.023   4.367 -0.4483  0.4442 -1.6167
  138CHL1   C2516463   6.478   0.021   4.556  0.2600 -0.1203  0.2595
  138CHL1   H2516464   6.564   0.042   4.623 -0.4875  1.8890  0.6662
  138CHL1   C2616465   6.353   0.089   4.615  0.3242 -0.4377  0.0655
  138CHL1  H26A16466   6.313   0.041   4.707  2.0045  0.4641  1.3245
  138CHL1  H26B16467   6.358   0.196   4.644 -2.9501 -0.0673 -0.2842
  138CHL1  H26C16468   6.267   0.087   4.545 -0.3585 -1.1461  0.8889
  138CHL1   C2716469   6.445  -0.131   4.549 -0.1113  0.7126 -0.5104
  138CHL1  H27A16470   6.345  -0.140   4.503 -0.2929  1.3792 -0.2629
  138CHL1  H27B16471   6.518  -0.185   4.486 -0.2517 -1.8902  1.3655
  138CHL1  H27C16472   6.445  -0.181   4.648  1.2663 -1.6566 -1.6137
  139CHL1    C316473   0.195   6.957   3.611 -0.2787 -0.8513  0.3692
  139CHL1    H316474   0.232   7.053   3.653 -1.4932 -0.7325  1.2298
  139CHL1    O316475   0.265   6.931   3.496  0.1627  0.2234  0.8638
  139CHL1   H3'16476   0.320   6.855   3.517  0.0683 -0.5201 -1.3403
  139CHL1    C416477   0.223   6.853   3.709 -0.0438  0.0203  0.0394
  139CHL1   H4A16478   0.176   6.758   3.674 -0.2161  0.2756 -0.4178
  139CHL1   H4B16479   0.333   6.839   3.720 -0.1360 -0.3568  0.5149
  139CHL1    C516480   0.158   6.898   3.838  0.1568 -0.0042  0.4021
  139CHL1    C616481   0.228   6.911   3.950 -0.2964  0.0972  0.6133
  139CHL1    H616482   0.335   6.885   3.952 -0.2673 -0.2069 -2.0350
  139CHL1    C716483   0.172   6.948   4.079 -0.8133 -0.1733 -0.3552
  139CHL1   H7A16484   0.194   6.866   4.151 -0.5593 -1.2679 -1.6299
  139CHL1   H7B16485   0.203   7.048   4.114  0.7063 -0.3484 -1.1286
  139CHL1    C816486   0.019   6.942   4.081  0.2904  0.0525  0.5661
  139CHL1    H816487   0.000   6.834   4.099  1.6367  0.0191  1.9403
  139CHL1   C1416488  -0.031   7.020   4.201  0.6148 -0.3067 -0.5389
  139CHL1   H1416489  -0.002   7.127   4.191 -0.4397  0.4910  3.2470
  139CHL1   C1516490   0.019   6.986   4.345 -0.3790  0.0559  0.1952
  139CHL1  H15A16491   0.034   6.876   4.342  1.6033  0.2264  1.6019
  139CHL1  H15B16492   0.115   7.038   4.367 -0.5904  1.6145 -2.2324
  139CHL1   C1616493  -0.094   7.035   4.435  0.6782 -0.3792 -0.6769
  139CHL1  H16A16494  -0.123   6.958   4.510 -0.6327  3.0372  2.6156
  139CHL1  H16B16495  -0.060   7.119   4.499  1.6740 -2.3032  1.4537
  139CHL1   C1716496  -0.196   7.083   4.340  0.2636 -0.0574  0.2776
  139CHL1   H1716497  -0.165   7.188   4.319  3.4348 -1.0988 -0.6571
  139CHL1   C1316498  -0.184   7.008   4.209  0.0333  0.3323 -0.0321
  139CHL1   C1816499  -0.234   6.862   4.227 -0.0879  0.3536 -0.1979
  139CHL1  H18A16500  -0.225   6.793   4.140 -0.2734  0.2233 -0.1148
  139CHL1  H18B16501  -0.192   6.799   4.309 -3.3472 -1.9751 -0.1070
  139CHL1  H18C16502  -0.344   6.857   4.244  0.0149  1.4328  0.9243
  139CHL1   C1216503  -0.259   7.074   4.092 -0.1751 -0.3975 -0.0846
  139CHL1  H12A16504  -0.370   7.080   4.095 -0.2138 -0.2486 -1.1071
  139CHL1  H12B16505  -0.227   7.181   4.091  1.8191 -0.9628 -0.1326
  139CHL1   C1116506  -0.208   7.012   3.960 -0.6514 -0.7281  0.1319
  139CHL1  H11A16507  -0.248   6.908   3.954  2.0921 -1.7933 -2.5664
  139CHL1  H11B16508  -0.247   7.074   3.877  0.3938 -0.9961 -0.5844
  139CHL1    C916509  -0.047   6.995   3.951  0.6446  0.5198 -0.4627
  139CHL1    H916510  -0.008   7.099   3.955 -0.4957  0.9286  0.5097
  139CHL1   C1016511   0.006   6.920   3.828  0.1600 -0.0293  0.3186
  139CHL1   C1916512  -0.076   6.788   3.810 -0.1420  0.3505  0.4000
  139CHL1  H19A16513  -0.064   6.730   3.904 -0.0132  0.3977  0.4128
  139CHL1  H19B16514  -0.182   6.819   3.797  0.3278  1.9602  0.1384
  139CHL1  H19C16515  -0.043   6.732   3.720  1.1595 -1.4454  1.9198
  139CHL1    C116516  -0.023   7.018   3.706 -0.2728 -0.8236  0.3255
  139CHL1   H1A16517  -0.130   7.040   3.685  0.0227 -0.2047 -0.5802
  139CHL1   H1B16518   0.027   7.110   3.743 -1.1411 -0.5811  0.9221
  139CHL1    C216519   0.046   6.974   3.581  0.1619  0.6378  0.0536
  139CHL1   H2A16520   0.036   7.038   3.490  3.1350 -0.8518 -1.4959
  139CHL1   H2B16521   0.018   6.871   3.549  1.6046 -0.1864  1.2998
  139CHL1   C2016522  -0.333   7.098   4.408  0.5574 -0.5500 -0.0602
  139CHL1   H2016523  -0.391   7.118   4.315  1.4354  0.4250 -0.4205
  139CHL1   C2116524  -0.329   7.223   4.498  0.5825 -0.0798 -0.4333
  139CHL1  H21A16525  -0.413   7.242   4.568  2.9045  1.7143  2.0138
  139CHL1  H21B16526  -0.302   7.312   4.438 -1.2099  0.3593 -0.6494
  139CHL1  H21C16527  -0.251   7.202   4.574  1.7805  0.1053 -1.5610
  139CHL1   C2216528  -0.399   6.981   4.488 -0.1681  0.8468  0.2070
  139CHL1  H22A16529  -0.374   6.888   4.433  3.5281  1.8086 -0.0307
  139CHL1  H22B16530  -0.351   6.970   4.588  0.9995 -0.7327 -0.4859
  139CHL1   C2316531  -0.554   6.996   4.503 -0.5682 -0.0793  0.1132
  139CHL1  H23A16532  -0.580   7.087   4.561 -3.7725 -1.6522  1.3699
  139CHL1  H23B16533  -0.591   7.001   4.398 -0.5966 -1.7637  0.0063
  139CHL1   C2416534  -0.623   6.868   4.568  0.9670 -0.1087 -0.1599
  139CHL1  H24A16535  -0.577   6.782   4.516  1.5077  0.0987 -0.0282
  139CHL1  H24B16536  -0.597   6.857   4.675  0.3682  1.2944  0.1568
  139CHL1   C2516537  -0.775   6.856   4.540  0.1858 -1.3785 -0.0875
  139CHL1   H2516538  -0.803   6.897   4.441  0.6526 -1.8840 -0.4380
  139CHL1   C2616539  -0.800   6.707   4.538  0.6536 -0.2394  0.1490
  139CHL1  H26A16540  -0.905   6.686   4.511  0.8318  0.8250 -1.5349
  139CHL1  H26B16541  -0.752   6.653   4.454  1.9732 -0.1878  0.8441
  139CHL1  H26C16542  -0.787   6.656   4.636 -0.5274 -1.5313 -0.3465
  139CHL1   C2716543  -0.850   6.924   4.656 -0.3659  0.3052  0.6063
  139CHL1  H27A16544  -0.960   6.923   4.645 -0.2524  0.7122 -0.7019
  139CHL1  H27B16545  -0.831   6.869   4.751 -0.4768  1.4417  1.3011
  139CHL1  H27C16546  -0.821   7.031   4.655 -0.5542  0.3850 -2.0159
  140CHL1    C316547   6.879   0.904   3.530 -0.1414 -0.1884 -0.7018
  140CHL1    H316548   6.979   0.898   3.576 -0.1945  1.9632 -0.2083
  140CHL1    O316549   6.907   0.899   3.388 -0.2502  0.0281  0.7020
  140CHL1   H3'16550   6.817   0.890   3.356  0.0332 -2.0497  0.3280
  140CHL1    C416551   6.780   0.789   3.580 -0.4723  0.9542 -0.3299
  140CHL1   H4A16552   6.696   0.782   3.507  0.9838 -3.3614 -1.8770
  140CHL1   H4B16553   6.826   0.689   3.571 -2.6873 -0.4189  2.1831
  140CHL1    C516554   6.740   0.802   3.725  0.3145 -0.3653 -0.5851
  140CHL1    C616555   6.756   0.700   3.809 -0.3081 -0.2042 -0.0094
  140CHL1    H616556   6.805   0.604   3.784 -0.6960 -0.0405 -1.4620
  140CHL1    C716557   6.709   0.713   3.955 -0.3455 -0.0501  0.0722
  140CHL1   H7A16558   6.660   0.620   3.989  0.5927 -0.1782  1.1707
  140CHL1   H7B16559   6.801   0.715   4.019 -1.1767 -0.7813  1.3238
  140CHL1    C816560   6.611   0.831   3.975  0.2448 -0.6250 -0.2818
  140CHL1    H816561   6.512   0.813   3.928 -0.0551 -1.5128  0.6518
  140CHL1   C1416562   6.585   0.854   4.126  0.3659  0.2136  0.0937
  140CHL1   H1416563   6.687   0.869   4.167  1.1216  0.2340 -1.7282
  140CHL1   C1516564   6.528   0.734   4.198 -0.0030 -0.8465 -0.5826
  140CHL1  H15A16565   6.447   0.687   4.138 -0.1549 -2.0073  0.4983
  140CHL1  H15B16566   6.602   0.654   4.220 -0.9269 -1.5247  0.0970
  140CHL1   C1616567   6.475   0.788   4.331  0.2554  0.0293 -0.0010
  140CHL1  H16A16568   6.366   0.765   4.335  0.2840 -0.0266  0.5248
  140CHL1  H16B16569   6.523   0.741   4.420  1.1386 -1.2842 -1.1284
  140CHL1   C1716570   6.491   0.940   4.322  0.1912 -0.5145 -0.4454
  140CHL1   H1716571   6.591   0.969   4.360  0.2445  1.0573 -1.6716
  140CHL1   C1316572   6.492   0.973   4.166  0.3081  0.0204 -0.0214
  140CHL1   C1816573   6.355   0.947   4.111 -0.9459  0.2553  0.6240
  140CHL1  H18A16574   6.311   1.048   4.122 -1.1446  0.5089 -2.0104
  140CHL1  H18B16575   6.360   0.915   4.005 -0.1782 -1.5108  1.1527
  140CHL1  H18C16576   6.299   0.871   4.169 -0.3708 -0.8492 -0.2264
  140CHL1   C1216577   6.563   1.103   4.111 -0.5955 -0.6381 -0.4679
  140CHL1  H12A16578   6.502   1.194   4.131  0.3825 -0.4994  2.3885
  140CHL1  H12B16579   6.662   1.122   4.158 -0.4052  0.1033 -1.1410
  140CHL1   C1116580   6.586   1.085   3.961  0.1536 -0.9122  0.5594
  140CHL1  H11A16581   6.482   1.081   3.922  0.0837  1.4100  0.3620
  140CHL1  H11B16582   6.634   1.180   3.927  0.6371 -1.3670 -0.0676
  140CHL1    C916583   6.669   0.959   3.908  0.2693 -0.3675 -0.2798
  140CHL1    H916584   6.769   0.972   3.956  0.5645  0.5061 -1.1010
  140CHL1   C1016585   6.687   0.943   3.759  0.0809  0.3377  0.6859
  140CHL1   C1916586   6.549   0.966   3.685 -0.0235  0.2521 -0.5303
  140CHL1  H19A16587   6.468   0.900   3.723  0.6306 -1.1026 -1.3835
  140CHL1  H19B16588   6.525   1.074   3.696  3.6686  1.2193 -0.4898
  140CHL1  H19C16589   6.561   0.945   3.576  1.4054  1.8145 -0.7224
  140CHL1    C116590   6.784   1.052   3.709  0.8871 -0.1398  0.2734
  140CHL1   H1A16591   6.748   1.152   3.738  1.4478  0.2058 -0.2062
  140CHL1   H1B16592   6.877   1.039   3.768  1.6745 -0.9484 -1.0783
  140CHL1    C216593   6.818   1.046   3.556  0.2805  0.4745 -0.4892
  140CHL1   H2A16594   6.909   1.110   3.543  0.6608 -0.3976 -2.5369
  140CHL1   H2B16595   6.736   1.071   3.486 -0.2218  1.9755  0.5827
  140CHL1   C2016596   6.391   1.017   4.402  0.1013 -1.2064  0.0388
  140CHL1   H2016597   6.286   1.009   4.368 -0.0524  2.2126 -0.5964
  140CHL1   C2116598   6.426   1.168   4.380  0.6178 -0.1393  0.8210
  140CHL1  H21A16599   6.393   1.231   4.465 -1.0632 -1.2493  1.0356
  140CHL1  H21B16600   6.372   1.193   4.286  1.5197 -2.2683 -0.3521
  140CHL1  H21C16601   6.534   1.180   4.354  0.3393  0.5283 -0.0836
  140CHL1   C2216602   6.402   0.985   4.559  0.1688  0.1250  0.7935
  140CHL1  H22A16603   6.321   1.051   4.596  0.4126  2.1931 -2.0910
  140CHL1  H22B16604   6.367   0.882   4.582 -2.0516  0.6126 -0.1481
  140CHL1   C2316605   6.525   1.019   4.639 -0.1140  0.2416  0.7506
  140CHL1  H23A16606   6.611   0.964   4.596  0.1605  0.2133  1.3228
  140CHL1  H23B16607   6.530   1.130   4.634 -0.6375  0.2080 -1.0900
  140CHL1   C2416608   6.508   0.967   4.780  0.1090  0.7697 -0.3224
  140CHL1  H24A16609   6.434   1.021   4.842 -0.3366 -2.6539  2.4523
  140CHL1  H24B16610   6.478   0.860   4.777 -0.9862  1.0863 -2.5668
  140CHL1   C2516611   6.646   0.973   4.850 -0.7757  0.2885  0.6541
  140CHL1   H2516612   6.724   0.926   4.786 -1.6133 -0.0196 -0.1516
  140CHL1   C2616613   6.651   0.907   4.988  0.6865  0.2693  0.1257
  140CHL1  H26A16614   6.568   0.949   5.050  0.6315  1.6689 -0.8504
  140CHL1  H26B16615   6.645   0.796   4.987 -0.5679  0.3266 -0.7085
  140CHL1  H26C16616   6.747   0.934   5.038 -0.4029  0.1195  2.4571
  140CHL1   C2716617   6.678   1.129   4.865  0.2726 -0.0795  0.0927
  140CHL1  H27A16618   6.678   1.182   4.767 -4.3833  0.7563  0.3357
  140CHL1  H27B16619   6.603   1.187   4.922 -0.7754  1.2368 -2.4373
  140CHL1  H27C16620   6.784   1.137   4.897  0.8795 -0.8879 -1.5562
  141DOPC     N16621   5.497   3.105   7.304  0.0284  0.8020 -0.4378
  141DOPC   C1216622   5.522   3.254   7.304 -0.2580 -0.0985  0.9435
  141DOPC  H12A16623   5.547   3.276   7.407  2.6174 -0.3631  0.3577
  141DOPC  H12B16624   5.430   3.307   7.281  0.3845  0.8448  0.4864
  141DOPC   C1316625   5.394   3.065   7.412 -0.2978 -0.3779 -0.0376
  141DOPC  H13A16626   5.435   3.070   7.512 -0.3173  2.2795 -0.0918
  141DOPC  H13B16627   5.315   3.139   7.411 -0.9698 -1.0559  0.7012
  141DOPC  H13C16628   5.350   2.968   7.396  0.5404 -0.6882 -0.5391
  141DOPC   C1416629   5.624   3.027   7.325  0.0449 -0.5868  0.3431
  141DOPC  H14A16630   5.668   3.040   7.423 -0.8658 -3.8563  1.3281
  141DOPC  H14B16631   5.605   2.921   7.315 -0.6235 -0.4230 -0.1803
  141DOPC  H14C16632   5.694   3.062   7.250 -1.4160  0.0845 -0.7441
  141DOPC   C1516633   5.435   3.073   7.175 -0.0888 -0.1781  0.6937
  141DOPC  H15A16634   5.487   3.121   7.093 -0.2066 -0.4295  0.4699
  141DOPC  H15B16635   5.331   3.103   7.172 -0.4590 -1.4597 -0.1591
  141DOPC  H15C16636   5.433   2.965   7.169 -2.7132 -0.1393 -0.8479
  141DOPC   C1116637   5.632   3.299   7.206 -0.0820  0.1854  0.8806
  141DOPC  H11A16638   5.612   3.268   7.101  0.2671  0.5446  0.7052
  141DOPC  H11B16639   5.630   3.410   7.209 -0.5174  0.3828 -2.4515
  141DOPC     P16640   5.896   3.320   7.183 -0.1763 -0.1572  0.0788
  141DOPC   O1316641   6.001   3.217   7.180  0.4223  0.2751 -0.0148
  141DOPC   O1416642   5.921   3.437   7.269 -0.9355  0.5371 -0.3474
  141DOPC   O1216643   5.764   3.257   7.241 -0.4323  0.4744 -0.1872
  141DOPC   O1116644   5.858   3.377   7.037 -0.1737  0.5278 -0.1535
  141DOPC    C116645   5.952   3.368   6.930  0.2588 -0.5729 -0.0460
  141DOPC    HA16646   6.013   3.275   6.930  0.2762 -0.5738 -0.9106
  141DOPC    HB16647   6.028   3.444   6.957 -1.2270  0.7088  0.6588
  141DOPC    C216648   5.896   3.382   6.791 -0.7204  0.2720  0.6946
  141DOPC    HS16649   5.982   3.357   6.725 -1.2180 -1.9047  0.7963
  141DOPC   O2116650   5.836   3.508   6.762  0.6133  0.0861 -0.0331
  141DOPC   C2116651   5.918   3.602   6.728 -0.2491  0.4734 -1.1944
  141DOPC   O2216652   6.039   3.583   6.726  0.0553 -0.1990 -0.0149
  141DOPC   C2216653   5.851   3.728   6.698  0.5370 -0.6560  0.4594
  141DOPC   H2R16654   5.901   3.808   6.757  1.5002 -0.3188 -0.7925
  141DOPC   H2S16655   5.744   3.719   6.728  0.6638  0.0247  1.1557
  141DOPC    C316656   5.787   3.273   6.763  0.2069 -1.0486  0.3790
  141DOPC    HX16657   5.695   3.298   6.820 -0.1924  0.3576 -0.8133
  141DOPC    HY16658   5.836   3.182   6.803  0.7812 -1.4696 -1.1906
  141DOPC   O3116659   5.761   3.268   6.617  0.1657 -0.4335  0.0522
  141DOPC   C3116660   5.746   3.147   6.562 -0.2352  0.3967 -0.0662
  141DOPC   O3216661   5.730   3.042   6.625  0.0643 -0.4367 -0.4511
  141DOPC   C3216662   5.741   3.166   6.415  0.5364  0.9546  0.2854
  141DOPC   H2X16663   5.647   3.222   6.397 -0.2613 -0.5308 -0.4134
  141DOPC   H2Y16664   5.826   3.227   6.379  1.0877  0.0554  0.0194
  141DOPC   C2316665   5.870   3.762   6.549  0.1418  0.0601  0.2258
  141DOPC   H3R16666   5.967   3.730   6.506  1.3766  0.6394  2.4059
  141DOPC   H3S16667   5.873   3.873   6.559 -0.5319 -0.0075  1.4660
  141DOPC   C2416668   5.756   3.730   6.455  0.0730 -0.4264 -1.1139
  141DOPC   H4R16669   5.786   3.775   6.358  1.5443  0.8611 -0.0944
  141DOPC   H4S16670   5.660   3.770   6.495 -1.0889 -3.1603 -0.8877
  141DOPC   C2516671   5.743   3.579   6.432 -0.0486  0.1156 -0.3333
  141DOPC   H5R16672   5.690   3.527   6.514 -1.6976 -0.0165 -1.4402
  141DOPC   H5S16673   5.848   3.542   6.424 -0.2444 -0.1503 -1.9907
  141DOPC   C2616674   5.668   3.545   6.301  0.1038  0.1373  0.3019
  141DOPC   H6R16675   5.601   3.630   6.273 -1.2330 -0.8481  0.4305
  141DOPC   H6S16676   5.610   3.452   6.317  1.8797 -0.9612  0.6268
  141DOPC   C2716677   5.762   3.514   6.180  0.2692  0.8237 -0.5106
  141DOPC   H7R16678   5.713   3.438   6.115  2.8366 -0.6161 -0.8849
  141DOPC   H7S16679   5.854   3.462   6.213 -0.4312 -0.2959 -0.2702
  141DOPC   C2816680   5.820   3.636   6.109 -0.4818  0.2659 -0.7359
  141DOPC   H8R16681   5.880   3.703   6.174  1.5667 -0.7509 -1.4859
  141DOPC   H8S16682   5.728   3.690   6.078 -0.0415  0.5079 -1.6812
  141DOPC   C2916683   5.919   3.591   6.007 -0.2802  0.0541 -0.0469
  141DOPC   H9R16684   6.015   3.556   6.046 -0.4528 -0.4335 -0.0497
  141DOPC  C21016685   5.898   3.579   5.874  0.2412  0.2734  0.2219
  141DOPC  H10R16686   5.979   3.542   5.810 -0.0413  1.2591 -0.7315
  141DOPC  C21116687   5.757   3.615   5.810 -0.2130  0.1433  0.2137
  141DOPC  H11R16688   5.708   3.703   5.858 -1.0454 -0.9952  1.5338
  141DOPC  H11S16689   5.687   3.529   5.820  0.3357 -0.2459  0.8314
  141DOPC  C21216690   5.778   3.639   5.659 -0.2264 -0.5530 -0.7077
  141DOPC  H12R16691   5.869   3.700   5.646 -1.0671  1.1652  1.0064
  141DOPC  H12S16692   5.688   3.694   5.625  0.6056 -0.0772 -2.2150
  141DOPC  C21316693   5.786   3.509   5.576 -0.1619 -0.4640  0.3598
  141DOPC  H13R16694   5.709   3.448   5.629 -0.3194  1.2880  2.2480
  141DOPC  H13S16695   5.890   3.470   5.573  0.8857  2.0104  1.9377
  141DOPC  C21416696   5.742   3.530   5.431  0.2247  0.2307 -0.3269
  141DOPC  H14R16697   5.643   3.580   5.435 -0.6652 -1.4241 -0.7613
  141DOPC  H14S16698   5.710   3.432   5.389 -0.0528 -0.4480  1.4108
  141DOPC  C21516699   5.831   3.603   5.328  0.1228 -0.1364 -0.4502
  141DOPC  H15R16700   5.921   3.537   5.320 -0.1788 -0.4300 -1.5696
  141DOPC  H15S16701   5.854   3.711   5.344 -1.1824  0.1682 -0.5566
  141DOPC  C21616702   5.763   3.604   5.191  0.6034 -0.0740 -0.8482
  141DOPC  H16R16703   5.669   3.663   5.194  0.2659 -0.6376  0.6856
  141DOPC  H16S16704   5.732   3.500   5.169 -0.6160  0.4638 -1.8020
  141DOPC  C21716705   5.850   3.664   5.087  0.4336  0.1159  0.7494
  141DOPC  H17R16706   5.956   3.661   5.122  0.4885  1.1319  0.6748
  141DOPC  H17S16707   5.814   3.769   5.088 -1.7417 -0.5912  1.0816
  141DOPC  C21816708   5.822   3.602   4.942 -0.3850  0.3489 -0.2252
  141DOPC  H18R16709   5.871   3.503   4.929 -0.9551 -0.6231  3.6712
  141DOPC  H18S16710   5.868   3.678   4.875 -0.4470 -0.4199 -1.1553
  141DOPC  H18T16711   5.715   3.609   4.912  0.1000  1.6120 -1.7792
  141DOPC   C3316712   5.719   3.032   6.338  0.1068 -0.0307 -0.6539
  141DOPC   H3X16713   5.620   2.987   6.363  1.0495 -1.0318  1.6230
  141DOPC   H3Y16714   5.798   2.962   6.373  0.1923  0.8869  1.1063
  141DOPC   C3416715   5.750   3.043   6.183 -0.6531 -0.2012  0.3305
  141DOPC   H4X16716   5.747   2.940   6.141 -4.2247  0.2881 -0.9640
  141DOPC   H4Y16717   5.849   3.089   6.163 -0.5516 -0.4694  0.2142
  141DOPC   C3516718   5.647   3.125   6.110 -0.0464  0.1690  0.3962
  141DOPC   H5X16719   5.665   3.234   6.124 -0.9483  0.2786  0.8355
  141DOPC   H5Y16720   5.543   3.106   6.144 -0.3237  0.6317 -0.1711
  141DOPC   C3616721   5.661   3.086   5.964  1.0918  0.3825  0.2446
  141DOPC   H6X16722   5.768   3.107   5.942  1.2520 -1.0561 -0.5029
  141DOPC   H6Y16723   5.642   2.978   5.944 -0.2386  0.6175  0.1436
  141DOPC   C3716724   5.575   3.174   5.868  0.0542 -0.5355 -0.1352
  141DOPC   H7X16725   5.467   3.149   5.879  0.4219 -1.8980  0.6109
  141DOPC   H7Y16726   5.594   3.279   5.896  0.5174 -0.4394 -0.7685
  141DOPC   C3816727   5.614   3.168   5.719  0.0283  0.4590  0.0582
  141DOPC   H8X16728   5.723   3.186   5.722  0.0736  0.0464  2.8071
  141DOPC   H8Y16729   5.572   3.254   5.662  0.4474  0.3494 -0.4209
  141DOPC   C3916730   5.586   3.040   5.648  0.4040 -0.4794  0.0158
  141DOPC   H9X16731   5.659   2.963   5.677 -0.1821 -1.1277 -0.1995
  141DOPC  C31016732   5.481   3.016   5.559  0.5811  0.8812 -0.4987
  141DOPC  H10X16733   5.468   2.915   5.518 -1.1315  1.0565 -0.4621
  141DOPC  C31116734   5.379   3.124   5.520 -0.2273  0.0192  1.2886
  141DOPC  H11X16735   5.342   3.188   5.603  0.5256  0.1871  1.4979
  141DOPC  H11Y16736   5.287   3.073   5.484  1.4498 -0.9520 -1.9961
  141DOPC  C31216737   5.442   3.210   5.405  0.0776 -0.0499  0.7941
  141DOPC  H12X16738   5.474   3.147   5.320 -2.1417 -0.2831  0.0581
  141DOPC  H12Y16739   5.531   3.259   5.451 -0.2132  1.4484 -0.1517
  141DOPC  C31316740   5.345   3.318   5.359 -0.7799  0.0897 -0.0954
  141DOPC  H13X16741   5.260   3.259   5.319 -0.5229 -0.4229  0.1089
  141DOPC  H13Y16742   5.309   3.378   5.446  1.1834 -1.4686  1.8945
  141DOPC  C31416743   5.408   3.405   5.252 -0.3338  0.0406 -0.3249
  141DOPC  H14X16744   5.336   3.487   5.227  1.0021  0.6670 -2.4112
  141DOPC  H14Y16745   5.489   3.465   5.297 -0.1894 -0.4432  0.0612
  141DOPC  C31516746   5.438   3.325   5.121 -0.3061 -0.3680  0.1138
  141DOPC  H15X16747   5.353   3.257   5.097 -1.3993  0.4795  1.4274
  141DOPC  H15Y16748   5.533   3.270   5.137  0.0816  0.6083  1.3494
  141DOPC  C31616749   5.465   3.417   5.004  0.2878  0.3355 -0.2594
  141DOPC  H16X16750   5.375   3.480   4.985 -0.6702 -0.6139  0.9678
  141DOPC  H16Y16751   5.555   3.477   5.030  0.2310 -0.1590  1.1568
  141DOPC  C31716752   5.486   3.338   4.877 -0.5458 -0.0380 -0.5084
  141DOPC  H17X16753   5.581   3.284   4.896 -0.2384  0.6196 -0.1677
  141DOPC  H17Y16754   5.397   3.274   4.857 -1.5587  1.4366 -0.8638
  141DOPC  C31816755   5.514   3.426   4.761  0.6377 -0.4316  0.2719
  141DOPC  H18X16756   5.424   3.491   4.748 -0.0905 -1.3967  0.3464
  141DOPC  H18Y16757   5.608   3.481   4.779  0.0213  0.0102  2.3218
  141DOPC  H18Z16758   5.533   3.362   4.672  0.8726 -1.5093  1.0951
  142DOPC     N16759   6.319   3.384   7.316  0.0134 -0.3353  0.4199
  142DOPC   C1216760   6.247   3.483   7.217 -0.1339 -0.5360 -0.2253
  142DOPC  H12A16761   6.259   3.581   7.260  2.4187 -2.2026  3.3631
  142DOPC  H12B16762   6.142   3.459   7.231 -0.2457  0.0786  0.0217
  142DOPC   C1316763   6.282   3.241   7.295  0.0456  0.5456  0.2476
  142DOPC  H13A16764   6.175   3.233   7.286 -0.1018 -0.0294  2.0296
  142DOPC  H13B16765   6.320   3.217   7.197 -1.0739  0.3653 -0.1500
  142DOPC  H13C16766   6.337   3.180   7.366 -1.0308  0.1963  0.8047
  142DOPC   C1416767   6.285   3.406   7.459  0.4454  0.0218  0.1454
  142DOPC  H14A16768   6.296   3.507   7.494 -1.3550  2.0371 -4.3677
  142DOPC  H14B16769   6.180   3.385   7.464  0.4523  0.2238  1.7754
  142DOPC  H14C16770   6.332   3.333   7.524 -0.8363 -0.8649  0.0989
  142DOPC   C1516771   6.463   3.396   7.294  0.0214 -0.2058 -0.2745
  142DOPC  H15A16772   6.494   3.498   7.307 -0.2696 -0.0602 -0.7042
  142DOPC  H15B16773   6.480   3.365   7.192  1.4493 -0.4180  0.0087
  142DOPC  H15C16774   6.527   3.336   7.357  0.5243  1.8250  1.2148
  142DOPC   C1116775   6.282   3.484   7.069 -0.5090  0.2117 -0.3448
  142DOPC  H11A16776   6.191   3.527   7.022 -0.6461 -0.8070 -1.0552
  142DOPC  H11B16777   6.364   3.553   7.038  0.4744 -1.1438 -0.8540
  142DOPC     P16778   6.416   3.309   6.917  0.2064 -0.3279  0.0698
  142DOPC   O1316779   6.377   3.191   6.833  0.0458  0.5058 -0.0807
  142DOPC   O1416780   6.526   3.299   7.014 -0.1604  0.0102 -0.6795
  142DOPC   O1216781   6.291   3.351   7.011  0.0545 -0.3999 -0.4310
  142DOPC   O1116782   6.440   3.438   6.828  0.0190  0.3077  0.4623
  142DOPC    C116783   6.351   3.492   6.736  0.4548 -0.0589  0.4983
  142DOPC    HA16784   6.377   3.597   6.712 -1.9178  0.0520 -2.0269
  142DOPC    HB16785   6.254   3.496   6.790  0.7115  0.7841  0.9071
  142DOPC    C216786   6.352   3.422   6.602  0.0219  0.1906 -0.3203
  142DOPC    HS16787   6.340   3.312   6.616 -3.0471  0.7086  2.5357
  142DOPC   O2116788   6.480   3.448   6.531 -0.1085  0.3410 -0.5242
  142DOPC   C2116789   6.527   3.352   6.462 -0.0725  0.0182  0.4325
  142DOPC   O2216790   6.486   3.235   6.451  0.5332  0.5526 -0.1651
  142DOPC   C2216791   6.655   3.392   6.383 -0.0592  0.6191 -0.5914
  142DOPC   H2R16792   6.729   3.420   6.460  0.8019  1.5865 -1.7364
  142DOPC   H2S16793   6.624   3.479   6.321 -1.4386  0.6185  0.0400
  142DOPC    C316794   6.239   3.474   6.510  0.3477  0.5283  0.3640
  142DOPC    HX16795   6.251   3.582   6.485 -0.2362  0.6873  0.7570
  142DOPC    HY16796   6.143   3.461   6.564 -1.0558 -0.1960 -2.1138
  142DOPC   O3116797   6.242   3.404   6.385  0.1836  0.0680 -0.0861
  142DOPC   C3116798   6.167   3.291   6.382 -0.5283 -0.0506  0.6133
  142DOPC   O3216799   6.106   3.240   6.472 -0.0456  0.3218  0.1883
  142DOPC   C3216800   6.182   3.219   6.255 -0.6373 -0.2913 -0.0066
  142DOPC   H2X16801   6.286   3.184   6.243 -0.6444 -1.2599  2.3902
  142DOPC   H2Y16802   6.120   3.127   6.259 -1.4760  0.2934  1.3470
  142DOPC   C2316803   6.704   3.279   6.294 -0.4179  0.2549  0.1165
  142DOPC   H3R16804   6.731   3.187   6.349  0.0193  0.4516  0.2361
  142DOPC   H3S16805   6.803   3.308   6.255  0.2698  0.7391  2.0853
  142DOPC   C2416806   6.616   3.257   6.175  0.9366 -0.4539  0.2993
  142DOPC   H4R16807   6.570   3.351   6.138  0.2384 -1.5579 -1.7720
  142DOPC   H4S16808   6.529   3.198   6.211 -0.4033  1.6606  0.6778
  142DOPC   C2516809   6.674   3.175   6.053  2.0297 -0.1824  0.3664
  142DOPC   H5R16810   6.737   3.105   6.112  0.5200 -2.0266 -0.0708
  142DOPC   H5S16811   6.738   3.235   5.985  1.7760 -1.1629 -0.7808
  142DOPC   C2616812   6.568   3.106   5.967 -0.2872  0.2568  0.2862
  142DOPC   H6R16813   6.485   3.179   5.953  1.1946  1.6785 -1.4757
  142DOPC   H6S16814   6.536   3.014   6.021 -0.7213 -0.7074 -1.5637
  142DOPC   C2716815   6.610   3.066   5.825 -0.3557  0.1315 -0.1571
  142DOPC   H7R16816   6.710   3.018   5.831 -1.2256 -1.6875  0.5423
  142DOPC   H7S16817   6.612   3.162   5.769 -0.3308 -0.5396 -1.3490
  142DOPC   C2816818   6.511   2.960   5.761 -0.0618  1.0170 -0.3705
  142DOPC   H8R16819   6.411   3.009   5.756 -0.1672  0.6840 -1.8777
  142DOPC   H8S16820   6.486   2.870   5.821  0.6717  1.2598  0.3095
  142DOPC   C2916821   6.561   2.919   5.622  0.3939  0.2805 -0.0107
  142DOPC   H9R16822   6.619   2.994   5.567  1.5722  0.9336  2.0034
  142DOPC  C21016823   6.502   2.818   5.555 -0.2282 -0.2196 -0.4385
  142DOPC  H10R16824   6.543   2.792   5.456  0.1780 -1.3045  0.0029
  142DOPC  C21116825   6.390   2.724   5.599  0.3382  0.1838 -0.0062
  142DOPC  H11R16826   6.414   2.689   5.701 -0.3096  0.7662  0.3495
  142DOPC  H11S16827   6.387   2.626   5.546 -0.9017  0.7539 -1.0470
  142DOPC  C21216828   6.244   2.786   5.610 -0.0650  0.7181 -1.0242
  142DOPC  H12R16829   6.245   2.863   5.690  3.7672  1.1659 -1.2777
  142DOPC  H12S16830   6.168   2.707   5.627  0.3305  0.3032 -1.1587
  142DOPC  C21316831   6.193   2.845   5.482  0.1140 -0.0863 -0.5148
  142DOPC  H13R16832   6.203   2.769   5.401 -2.6331 -0.8451 -0.2620
  142DOPC  H13S16833   6.266   2.924   5.457 -0.7623  0.3795 -1.6783
  142DOPC  C21416834   6.054   2.909   5.490  0.1759  0.7052  0.1083
  142DOPC  H14R16835   6.037   2.985   5.570 -0.5770 -1.4535  2.1149
  142DOPC  H14S16836   5.970   2.837   5.503  0.2568  0.6698  0.4547
  142DOPC  C21516837   6.021   2.980   5.361 -0.5422 -0.0695  0.2743
  142DOPC  H15R16838   5.979   2.910   5.286  0.0344  0.3880 -0.4932
  142DOPC  H15S16839   6.111   3.025   5.313 -0.8296 -0.4676 -0.6544
  142DOPC  C21616840   5.902   3.080   5.373  0.4289  0.3794  0.0484
  142DOPC  H16R16841   5.923   3.160   5.447  0.3590 -0.7648  1.3588
  142DOPC  H16S16842   5.823   3.016   5.417 -0.9408  0.2124 -2.4980
  142DOPC  C21716843   5.855   3.150   5.249 -0.0490 -0.2795  0.0825
  142DOPC  H17R16844   5.763   3.204   5.279 -1.2180 -1.5442 -1.1100
  142DOPC  H17S16845   5.830   3.080   5.167 -1.3922  0.2164  0.0565
  142DOPC  C21816846   5.950   3.253   5.193 -0.0257  0.1126  0.7066
  142DOPC  H18R16847   5.887   3.319   5.129 -0.7553 -2.6266 -1.6034
  142DOPC  H18S16848   6.034   3.210   5.135 -2.5267 -0.5085 -2.7910
  142DOPC  H18T16849   6.000   3.307   5.276 -0.4770  0.8155  0.5289
  142DOPC   C3316850   6.149   3.303   6.135 -0.2763  0.5149  0.5745
  142DOPC   H3X16851   6.211   3.396   6.135  1.1943 -0.4211 -0.2344
  142DOPC   H3Y16852   6.041   3.327   6.137 -0.2801  0.4630  1.2479
  142DOPC   C3416853   6.175   3.233   5.999 -0.3598  0.9822  0.8257
  142DOPC   H4X16854   6.127   3.132   5.993  0.6858  0.4602  1.0053
  142DOPC   H4Y16855   6.284   3.215   5.992 -0.4897  0.7994 -1.8591
  142DOPC   C3516856   6.147   3.316   5.871 -0.3870  0.4280 -0.3936
  142DOPC   H5X16857   6.160   3.424   5.893  0.9458  0.3320 -0.6750
  142DOPC   H5Y16858   6.037   3.304   5.859 -0.1255 -1.0211 -1.5119
  142DOPC   C3616859   6.220   3.260   5.750 -0.3104  0.3837  0.8222
  142DOPC   H6X16860   6.327   3.286   5.755 -0.1617  0.0515 -0.3364
  142DOPC   H6Y16861   6.227   3.149   5.748  1.0859  0.4564 -0.6348
  142DOPC   C3716862   6.163   3.290   5.617  0.5037  0.3209  0.2517
  142DOPC   H7X16863   6.066   3.237   5.604  0.6540  0.4970 -2.0354
  142DOPC   H7Y16864   6.139   3.398   5.603  2.0389  0.8495  1.4482
  142DOPC   C3816865   6.257   3.253   5.501 -0.2695 -0.6094  0.2559
  142DOPC   H8X16866   6.194   3.237   5.411  0.0655 -0.7431  0.0416
  142DOPC   H8Y16867   6.309   3.158   5.524  1.4221  0.8759  3.1194
  142DOPC   C3916868   6.366   3.352   5.472  0.0060  0.0639 -0.3207
  142DOPC   H9X16869   6.449   3.354   5.544 -0.9331  0.4722  0.7801
  142DOPC  C31016870   6.358   3.451   5.382 -0.0712  0.6194  1.3465
  142DOPC  H10X16871   6.446   3.517   5.377 -0.3439  0.9937  1.4538
  142DOPC  C31116872   6.250   3.491   5.285  0.4963  0.5920 -0.4484
  142DOPC  H11X16873   6.165   3.543   5.335 -0.3188 -0.8561 -0.2434
  142DOPC  H11Y16874   6.208   3.400   5.238 -2.3948  2.1335 -1.0907
  142DOPC  C31216875   6.301   3.584   5.174  0.0216  0.0761 -0.4094
  142DOPC  H12X16876   6.358   3.674   5.205  1.4940 -0.5679 -1.0971
  142DOPC  H12Y16877   6.223   3.621   5.105 -0.4675  0.3617  0.2849
  142DOPC  C31316878   6.393   3.515   5.070 -0.7552  0.2539  0.0742
  142DOPC  H13X16879   6.455   3.440   5.124 -0.1558  0.7344  0.0629
  142DOPC  H13Y16880   6.324   3.448   5.015 -0.0857 -1.5962  1.3439
  142DOPC  C31416881   6.481   3.601   4.977  1.3772 -0.4758  0.3875
  142DOPC  H14X16882   6.409   3.673   4.931  0.1753 -1.7189  0.2481
  142DOPC  H14Y16883   6.555   3.667   5.026 -0.2477  0.0789  2.2588
  142DOPC  C31516884   6.553   3.510   4.882  0.0173 -0.0125 -0.3949
  142DOPC  H15X16885   6.476   3.436   4.848 -1.4288  0.2549  2.0738
  142DOPC  H15Y16886   6.630   3.449   4.935 -1.3178 -1.3613  0.0692
  142DOPC  C31616887   6.598   3.585   4.761 -0.1233  0.5987 -0.3631
  142DOPC  H16X16888   6.505   3.622   4.712 -1.1683 -0.9490  0.3453
  142DOPC  H16Y16889   6.665   3.671   4.784  1.3331 -0.8901  1.2981
  142DOPC  C31716890   6.679   3.507   4.654  0.7725 -0.4106  0.0820
  142DOPC  H17X16891   6.743   3.429   4.702 -0.0732 -0.9554  0.3528
  142DOPC  H17Y16892   6.614   3.455   4.581  0.6818  0.0291 -0.1505
  142DOPC  C31816893   6.778   3.598   4.578  0.6388 -0.1059 -0.3468
  142DOPC  H18X16894   6.847   3.651   4.647  1.3299 -0.2296 -0.9260
  142DOPC  H18Y16895   6.845   3.543   4.509  2.5979  1.5969  0.0976
  142DOPC  H18Z16896   6.729   3.679   4.519  2.7551  1.4414 -0.0856
  143DOPC     N16897   3.901   3.201   7.561 -0.4940 -0.2422  0.0881
  143DOPC   C1216898   4.040   3.146   7.598 -0.3414 -0.1205 -0.1115
  143DOPC  H12A16899   4.032   3.083   7.685 -1.1716 -1.8036 -1.3506
  143DOPC  H12B16900   4.096   3.236   7.620 -1.0471  0.3327 -0.1291
  143DOPC   C1316901   3.919   3.274   7.431  0.2149  0.0306 -0.3026
  143DOPC  H13A16902   4.008   3.236   7.382  1.2408  0.7793  0.9227
  143DOPC  H13B16903   3.828   3.283   7.374 -1.1653  1.0648  1.9237
  143DOPC  H13C16904   3.954   3.372   7.457 -0.6526  1.0083 -2.5807
  143DOPC   C1416905   3.854   3.297   7.669  0.0076  0.0460 -0.2394
  143DOPC  H14A16906   3.751   3.318   7.642  0.3638 -0.7483 -2.4759
  143DOPC  H14B16907   3.864   3.262   7.770 -2.2202 -0.8451 -0.2696
  143DOPC  H14C16908   3.912   3.388   7.660  0.3595 -0.1420  0.1467
  143DOPC   C1516909   3.810   3.085   7.534  0.1810 -0.1771 -0.4720
  143DOPC  H15A16910   3.789   3.024   7.620 -3.7196 -0.3997 -1.3644
  143DOPC  H15B16911   3.853   3.015   7.463 -0.7104 -1.6119  0.3663
  143DOPC  H15C16912   3.714   3.108   7.488 -2.3759 -1.5140  3.6785
  143DOPC   C1116913   4.122   3.079   7.488 -0.3914  0.1407 -0.2652
  143DOPC  H11A16914   4.176   2.997   7.540 -1.0377 -1.4593 -1.9863
  143DOPC  H11B16915   4.042   3.024   7.433 -1.4236  0.6253  0.7061
  143DOPC     P16916   4.299   3.262   7.477 -0.0456 -0.2530 -0.0449
  143DOPC   O1316917   4.430   3.191   7.503 -0.5283  0.3757  0.2683
  143DOPC   O1416918   4.248   3.333   7.600  0.0971 -0.2867  0.6593
  143DOPC   O1216919   4.197   3.163   7.417 -0.5532 -0.1333  0.4051
  143DOPC   O1116920   4.320   3.364   7.361 -0.2151  0.5406  0.1627
  143DOPC    C116921   4.280   3.315   7.229  0.2628  0.1933  0.0049
  143DOPC    HA16922   4.170   3.329   7.221  0.0642 -0.7082  0.8615
  143DOPC    HB16923   4.289   3.205   7.212 -3.0743 -0.7166  2.9136
  143DOPC    C216924   4.349   3.402   7.107  0.3092  0.4396 -0.3053
  143DOPC    HS16925   4.459   3.396   7.116  0.3105  0.9312 -0.0110
  143DOPC   O2116926   4.312   3.541   7.103  0.6403  0.8128  0.2196
  143DOPC   C2116927   4.394   3.640   7.066 -0.2078 -0.4263 -0.3978
  143DOPC   O2216928   4.508   3.625   7.016 -0.6464  0.0209 -0.1347
  143DOPC   C2216929   4.329   3.775   7.082 -0.0434  0.0177  0.1242
  143DOPC   H2R16930   4.397   3.863   7.088  0.3431 -0.1590 -1.2366
  143DOPC   H2S16931   4.276   3.774   7.180  0.3179  0.3629  0.3297
  143DOPC    C316932   4.299   3.355   6.980  0.0029 -0.3735 -0.1557
  143DOPC    HX16933   4.189   3.373   6.977  0.0178 -0.2027  0.2416
  143DOPC    HY16934   4.309   3.245   6.974 -0.9641 -0.3963 -2.1169
  143DOPC   O3116935   4.369   3.424   6.880 -0.2005 -0.3285  0.3580
  143DOPC   C3116936   4.480   3.367   6.829  0.1548 -0.2806 -0.0547
  143DOPC   O3216937   4.529   3.265   6.877  0.9195  0.3741 -0.1604
  143DOPC   C3216938   4.540   3.469   6.718  0.6670  0.0735  0.2020
  143DOPC   H2X16939   4.520   3.574   6.751  1.0685 -0.2766  1.6304
  143DOPC   H2Y16940   4.648   3.460   6.739  0.4750  0.8309  1.6603
  143DOPC   C2316941   4.213   3.801   6.984 -0.2399 -0.3094 -0.3348
  143DOPC   H3R16942   4.142   3.876   7.024  1.3242  0.5304  1.0223
  143DOPC   H3S16943   4.161   3.703   6.973  2.3295 -1.7951 -0.1655
  143DOPC   C2416944   4.247   3.871   6.853 -0.2370 -0.4282 -0.0399
  143DOPC   H4R16945   4.347   3.832   6.822  1.4644  2.2538  1.5966
  143DOPC   H4S16946   4.263   3.976   6.886 -3.4536  0.7988 -1.9911
  143DOPC   C2516947   4.147   3.866   6.737 -0.7831 -0.0636 -0.3836
  143DOPC   H5R16948   4.051   3.906   6.777 -0.3060 -1.4270  2.4055
  143DOPC   H5S16949   4.122   3.762   6.709 -0.5825  0.2496 -1.7544
  143DOPC   C2616950   4.187   3.933   6.612 -0.4879  0.2062 -0.4415
  143DOPC   H6R16951   4.225   4.032   6.648 -0.3969  0.6801 -1.8014
  143DOPC   H6S16952   4.097   3.959   6.552 -1.8713 -1.0871  0.9886
  143DOPC   C2716953   4.280   3.847   6.532  0.3830  0.7805  0.0223
  143DOPC   H7R16954   4.218   3.762   6.493  0.6915  0.3226  0.5163
  143DOPC   H7S16955   4.359   3.796   6.591 -0.1251 -2.3518 -1.7357
  143DOPC   C2816956   4.352   3.913   6.415  0.0063  0.2474  0.6939
  143DOPC   H8R16957   4.400   4.004   6.457 -0.2333  0.9167 -0.4337
  143DOPC   H8S16958   4.278   3.954   6.342  0.9671  0.5166 -0.1559
  143DOPC   C2916959   4.458   3.829   6.342  0.0814  0.0619  0.3900
  143DOPC   H9R16960   4.483   3.734   6.390  2.6816  0.9961  1.0721
  143DOPC  C21016961   4.525   3.876   6.230  0.9318 -0.2195 -0.4123
  143DOPC  H10R16962   4.602   3.813   6.183  0.5711  0.0113 -1.3422
  143DOPC  C21116963   4.498   4.007   6.165 -0.0053  0.4222 -0.9513
  143DOPC  H11R16964   4.595   4.060   6.160  0.0811  0.3134 -0.5125
  143DOPC  H11S16965   4.439   4.069   6.236  0.5744 -4.2648  4.3366
  143DOPC  C21216966   4.433   3.985   6.037  0.9155 -0.3548  0.1675
  143DOPC  H12R16967   4.387   4.081   6.003 -2.4576 -1.7689  0.3661
  143DOPC  H12S16968   4.344   3.919   6.043 -0.2714  1.2318  0.5333
  143DOPC  C21316969   4.519   3.946   5.920  0.1454  0.7791  0.0615
  143DOPC  H13R16970   4.545   3.838   5.921 -0.2674  0.6710 -0.4470
  143DOPC  H13S16971   4.605   4.016   5.930 -0.7033  1.6289  1.8316
  143DOPC  C21416972   4.448   3.978   5.792  0.0061  0.2440  0.6136
  143DOPC  H14R16973   4.468   4.086   5.778  1.3960 -0.0193  0.3897
  143DOPC  H14S16974   4.339   3.964   5.807  0.0626 -0.3477  0.5087
  143DOPC  C21516975   4.484   3.895   5.664  0.1992 -0.8026  0.9145
  143DOPC  H15R16976   4.519   3.791   5.682 -1.7057 -1.5353  0.6339
  143DOPC  H15S16977   4.570   3.941   5.611 -2.1880  0.9493 -1.8001
  143DOPC  C21616978   4.360   3.873   5.566  0.2616 -0.4036  0.7509
  143DOPC  H16R16979   4.302   3.786   5.602  0.4597  0.2163  2.6874
  143DOPC  H16S16980   4.404   3.861   5.465 -1.1482  0.0635  0.0617
  143DOPC  C21716981   4.268   3.999   5.548 -0.8667 -0.7190  0.1804
  143DOPC  H17R16982   4.338   4.079   5.517 -1.0090 -0.3577  0.7811
  143DOPC  H17S16983   4.225   4.032   5.645 -1.6537  0.4297 -0.5527
  143DOPC  C21816984   4.152   3.993   5.453 -0.5359 -0.7472  0.2608
  143DOPC  H18R16985   4.102   4.092   5.450  1.3331  0.2295  0.3421
  143DOPC  H18S16986   4.080   3.926   5.505 -1.4249  0.7330  0.9951
  143DOPC  H18T16987   4.187   3.956   5.355 -1.1633  0.4045 -0.4123
  143DOPC   C3316988   4.523   3.435   6.575 -0.2063  0.7348 -0.5558
  143DOPC   H3X16989   4.534   3.325   6.570 -1.3745  0.4727  1.4537
  143DOPC   H3Y16990   4.597   3.484   6.509 -0.3979  0.3253 -1.0827
  143DOPC   C3416991   4.392   3.486   6.524 -0.7590 -0.3291  0.9821
  143DOPC   H4X16992   4.389   3.597   6.530 -0.0127  0.0968 -3.3986
  143DOPC   H4Y16993   4.317   3.442   6.593 -1.5300  1.0887  1.0829
  143DOPC   C3516994   4.363   3.448   6.374  0.4103  0.2235  0.4363
  143DOPC   H5X16995   4.380   3.338   6.365 -2.2917 -0.2963  1.0261
  143DOPC   H5Y16996   4.435   3.500   6.307  0.1943  0.8206  0.6610
  143DOPC   C3616997   4.223   3.489   6.313 -0.8449  0.2496 -1.1208
  143DOPC   H6X16998   4.156   3.437   6.386  1.5712 -2.2205 -0.4940
  143DOPC   H6Y16999   4.204   3.598   6.325  1.6991  0.6241 -0.0197
  143DOPC   C3717000   4.177   3.428   6.185  0.1364 -0.0758 -0.8767
  143DOPC   H7X17001   4.170   3.319   6.202  1.4292  0.0350  0.5697
  143DOPC   H7Y17002   4.076   3.450   6.144  0.2374 -2.9524 -2.9886
  143DOPC   C3817003   4.284   3.444   6.074  0.6062 -0.5435  0.3266
  143DOPC   H8X17004   4.249   3.382   5.989 -1.0500  0.1741  0.4534
  143DOPC   H8Y17005   4.387   3.411   6.102  1.5610  2.0784  0.1692
  143DOPC   C3917006   4.306   3.587   6.027 -0.0843 -0.1237  0.2174
  143DOPC   H9X17007   4.307   3.659   6.109 -0.5765 -0.4722  0.5354
  143DOPC  C31017008   4.312   3.631   5.900 -0.4195  0.1087 -0.1384
  143DOPC  H10X17009   4.331   3.739   5.886 -0.7402  0.1176 -0.5272
  143DOPC  C31117010   4.299   3.533   5.783  0.5931  0.0175  0.8626
  143DOPC  H11X17011   4.335   3.429   5.804  1.2300 -0.2642 -1.3613
  143DOPC  H11Y17012   4.363   3.567   5.699 -0.0793  1.1965  0.8197
  143DOPC  C31217013   4.158   3.541   5.744  0.1254 -0.5581  0.4921
  143DOPC  H12X17014   4.130   3.644   5.711 -0.7952 -1.3702 -1.3875
  143DOPC  H12Y17015   4.089   3.519   5.828 -1.3338  0.6503 -0.3433
  143DOPC  C31317016   4.117   3.453   5.622 -0.0208 -0.0490  1.0711
  143DOPC  H13X17017   4.191   3.462   5.540 -2.1756  0.8091 -0.8828
  143DOPC  H13Y17018   4.125   3.347   5.657  2.0774  0.0228  0.9681
  143DOPC  C31417019   3.973   3.481   5.582 -0.0386  0.0880  0.0756
  143DOPC  H14X17020   3.934   3.398   5.519  0.4069 -0.4565  0.5038
  143DOPC  H14Y17021   3.914   3.477   5.676 -1.8167 -0.7525 -1.0113
  143DOPC  C31517022   3.951   3.623   5.521 -0.1476  0.1838 -0.1032
  143DOPC  H15X17023   4.013   3.700   5.571  0.3396 -0.3833  0.1805
  143DOPC  H15Y17024   3.848   3.662   5.540 -0.2064  0.4566 -0.9492
  143DOPC  C31617025   3.977   3.626   5.369 -0.1097  0.3391 -0.4934
  143DOPC  H16X17026   3.998   3.729   5.334 -1.0493  0.5856 -0.3558
  143DOPC  H16Y17027   4.066   3.560   5.356  1.7194  2.4290  0.7497
  143DOPC  C31717028   3.859   3.579   5.285 -0.3281  0.2137  0.9280
  143DOPC  H17X17029   3.815   3.488   5.332  1.2527 -0.5633  0.9519
  143DOPC  H17Y17030   3.787   3.664   5.291  0.8217  1.3453 -0.5348
  143DOPC  C31817031   3.906   3.550   5.144 -0.2061  0.0707  1.0616
  143DOPC  H18X17032   3.832   3.488   5.088  0.0694  0.7723 -0.1193
  143DOPC  H18Y17033   3.920   3.643   5.086 -1.1738  0.4396  1.3915
  143DOPC  H18Z17034   4.002   3.495   5.135  0.7508  2.0227 -2.2515
  144DOPC     N17035   5.639   2.606   7.622 -0.1887 -0.7785  0.1626
  144DOPC   C1217036   5.527   2.529   7.550 -0.0444  0.5428  0.2568
  144DOPC  H12A17037   5.438   2.586   7.568  0.0501  0.6104  0.5105
  144DOPC  H12B17038   5.512   2.437   7.604 -1.2866 -0.6358 -1.9419
  144DOPC   C1317039   5.601   2.628   7.766  0.1796  0.1599  0.3495
  144DOPC  H13A17040   5.688   2.665   7.818 -1.8745  2.7967  2.1730
  144DOPC  H13B17041   5.525   2.705   7.767  0.6787  0.6499  0.9190
  144DOPC  H13C17042   5.572   2.543   7.826 -2.2942 -0.7000 -1.8336
  144DOPC   C1417043   5.658   2.737   7.556  0.4421  0.5813 -0.6860
  144DOPC  H14A17044   5.725   2.802   7.610 -0.0362 -0.0788  0.7474
  144DOPC  H14B17045   5.699   2.713   7.459 -0.4724 -2.6795 -0.3816
  144DOPC  H14C17046   5.562   2.787   7.550  0.1631  0.4501  1.7119
  144DOPC   C1517047   5.771   2.523   7.618 -0.7108 -0.4116 -0.6474
  144DOPC  H15A17048   5.750   2.421   7.646 -1.3307 -0.1990 -0.3069
  144DOPC  H15B17049   5.843   2.577   7.678 -2.7697  2.1257 -0.2693
  144DOPC  H15C17050   5.803   2.528   7.515 -2.0330  0.6211 -1.0493
  144DOPC   C1117051   5.551   2.490   7.397  0.3886  0.2425 -0.6312
  144DOPC  H11A17052   5.649   2.437   7.389  0.6828 -0.6952  4.9465
  144DOPC  H11B17053   5.468   2.420   7.378 -1.2000  1.5450  1.0985
  144DOPC     P17054   5.408   2.676   7.283  0.3059  0.2792  0.2916
  144DOPC   O1317055   5.424   2.777   7.172  0.3837 -0.0229 -0.1600
  144DOPC   O1417056   5.345   2.731   7.404 -0.1395 -0.1405 -0.2715
  144DOPC   O1217057   5.544   2.604   7.316  0.0499  0.1357  0.2908
  144DOPC   O1117058   5.314   2.561   7.223 -0.4215 -0.6259  0.1466
  144DOPC    C117059   5.329   2.522   7.085  0.1256 -0.1539 -0.2919
  144DOPC    HA17060   5.389   2.429   7.083 -3.4585 -2.6413 -0.7068
  144DOPC    HB17061   5.371   2.604   7.023 -0.0208 -0.4004 -0.7214
  144DOPC    C217062   5.188   2.497   7.017  0.2563 -0.1664  0.0308
  144DOPC    HS17063   5.134   2.593   7.032 -0.7079 -0.9679  2.0388
  144DOPC   O2117064   5.125   2.384   7.074 -0.3310 -0.0980 -0.0303
  144DOPC   C2117065   5.005   2.376   7.032  0.2331 -0.1264  0.6939
  144DOPC   O2217066   4.950   2.456   6.959  0.1843  0.3348 -1.1086
  144DOPC   C2217067   4.961   2.239   7.072  0.7780 -0.5637 -0.1806
  144DOPC   H2R17068   4.855   2.250   7.103  0.7456 -1.9885  0.2833
  144DOPC   H2S17069   5.011   2.206   7.165 -0.4651  0.7458  1.0112
  144DOPC    C317070   5.218   2.485   6.863 -0.0047 -0.9235  0.1982
  144DOPC    HX17071   5.136   2.473   6.789  0.6081 -0.9149 -0.4918
  144DOPC    HY17072   5.286   2.398   6.857 -0.1724 -0.9827 -0.9166
  144DOPC   O3117073   5.300   2.595   6.818  0.3075  0.0347  0.3981
  144DOPC   C3117074   5.227   2.707   6.790  0.3004 -0.2594 -0.1830
  144DOPC   O3217075   5.109   2.722   6.813 -0.4456  0.3709  0.2231
  144DOPC   C3217076   5.327   2.808   6.721 -0.3196 -0.1877 -0.3149
  144DOPC   H2X17077   5.365   2.877   6.799  0.6213  1.0325 -1.7805
  144DOPC   H2Y17078   5.411   2.753   6.674 -0.9943  0.0590 -1.8756
  144DOPC   C2317079   4.965   2.135   6.963  0.3624 -0.0233 -0.5750
  144DOPC   H3R17080   4.902   2.178   6.882 -0.3741 -0.2103 -0.1165
  144DOPC   H3S17081   4.913   2.046   7.007  1.5244  0.3555  1.6930
  144DOPC   C2417082   5.108   2.106   6.922 -0.1778  0.0259 -0.0214
  144DOPC   H4R17083   5.165   2.064   7.007 -1.4043  0.3223  0.9713
  144DOPC   H4S17084   5.158   2.200   6.890 -0.3440  0.4528  0.9625
  144DOPC   C2517085   5.109   2.022   6.792 -0.1103  0.3314 -0.5311
  144DOPC   H5R17086   5.052   1.930   6.820  0.0511 -0.6178 -3.1098
  144DOPC   H5S17087   5.214   1.989   6.780  0.5781  0.9465  2.7739
  144DOPC   C2617088   5.049   2.084   6.667  0.2350 -0.5916 -0.7926
  144DOPC   H6R17089   5.114   2.172   6.646  0.5610 -0.6224  0.0713
  144DOPC   H6S17090   4.945   2.116   6.689  1.0280 -0.5606  3.6857
  144DOPC   C2717091   5.060   1.996   6.544  0.0024  0.5406  0.4739
  144DOPC   H7R17092   5.025   1.896   6.577  0.7013  0.9260  2.5080
  144DOPC   H7S17093   5.168   1.984   6.520  0.2893  0.6138  1.6674
  144DOPC   C2817094   4.983   2.066   6.429 -0.3511  0.5415 -0.1495
  144DOPC   H8R17095   5.016   2.172   6.419 -0.6683  0.6324 -0.2744
  144DOPC   H8S17096   4.880   2.079   6.469 -0.4707 -0.3653 -0.1395
  144DOPC   C2917097   4.989   1.976   6.306 -0.2139 -0.0498 -0.0442
  144DOPC   H9R17098   4.900   1.913   6.292 -0.6394  0.4030  0.5985
  144DOPC  C21017099   5.087   1.977   6.214  0.2795 -0.7135  0.7852
  144DOPC  H10R17100   5.077   1.916   6.123 -0.6686  2.0236 -1.0394
  144DOPC  C21117101   5.212   2.064   6.202 -0.0163 -0.3767 -0.8072
  144DOPC  H11R17102   5.302   2.000   6.191  0.0899 -0.3771  0.0489
  144DOPC  H11S17103   5.222   2.135   6.286 -0.4838 -0.3817 -0.7438
  144DOPC  C21217104   5.217   2.160   6.084 -0.0585  0.9327 -0.1713
  144DOPC  H12R17105   5.203   2.107   5.987  0.5826  1.3650 -0.5110
  144DOPC  H12S17106   5.324   2.192   6.081  0.9801 -2.0235  1.2505
  144DOPC  C21317107   5.129   2.281   6.086 -0.5158  0.1255 -0.7858
  144DOPC  H13R17108   5.030   2.246   6.122 -0.1788 -1.1185 -1.0119
  144DOPC  H13S17109   5.122   2.326   5.984  1.6725  3.1424  0.2546
  144DOPC  C21417110   5.180   2.394   6.180 -0.6658 -0.4842 -0.6201
  144DOPC  H14R17111   5.277   2.439   6.149 -0.2771 -0.5939  0.3970
  144DOPC  H14S17112   5.194   2.343   6.278 -2.6828  0.5975  0.2816
  144DOPC  C21517113   5.065   2.500   6.210 -0.0485  0.5095  0.1731
  144DOPC  H15R17114   5.011   2.534   6.119 -0.6529  0.9477  0.6907
  144DOPC  H15S17115   5.112   2.594   6.247 -1.7792  1.0055  1.2134
  144DOPC  C21617116   4.978   2.454   6.325  0.2953  0.4104  0.2455
  144DOPC  H16R17117   4.967   2.343   6.316  1.1077  0.2421  1.1173
  144DOPC  H16S17118   4.878   2.501   6.311 -0.5889 -0.3861  3.1191
  144DOPC  C21717119   5.015   2.511   6.464  0.2358  0.2755 -0.5165
  144DOPC  H17R17120   5.017   2.621   6.450  0.8078  0.2198 -0.9404
  144DOPC  H17S17121   5.120   2.483   6.489 -0.6131 -0.9636  1.8935
  144DOPC  C21817122   4.915   2.467   6.577  0.6724  0.3239  0.2203
  144DOPC  H18R17123   4.810   2.488   6.547  0.8723 -1.6490 -2.2213
  144DOPC  H18S17124   4.948   2.512   6.673  1.6152  3.2915 -1.3830
  144DOPC  H18T17125   4.914   2.357   6.595 -0.1509 -0.1146 -2.1320
  144DOPC   C3317126   5.265   2.900   6.612  0.0580  0.2652 -0.0900
  144DOPC   H3X17127   5.196   2.976   6.653  2.3078  2.1967  0.3544
  144DOPC   H3Y17128   5.204   2.842   6.540 -0.2871 -1.7839  1.7436
  144DOPC   C3417129   5.371   2.983   6.538  0.3383 -0.3923  0.4058
  144DOPC   H4X17130   5.453   2.914   6.506  1.3184  0.7236  0.4207
  144DOPC   H4Y17131   5.413   3.043   6.622  0.4911 -0.4026  0.3371
  144DOPC   C3517132   5.328   3.085   6.432  0.0326  0.7545 -0.1612
  144DOPC   H5X17133   5.419   3.141   6.402  0.3796  1.2340  1.6922
  144DOPC   H5Y17134   5.255   3.158   6.471 -0.6476  0.3277 -0.6133
  144DOPC   C3617135   5.279   3.012   6.303 -0.0867  0.7257 -0.3812
  144DOPC   H6X17136   5.363   2.945   6.275 -0.4401 -0.7401  1.7752
  144DOPC   H6Y17137   5.202   2.935   6.326  1.2111 -0.3918  0.4182
  144DOPC   C3717138   5.241   3.112   6.187  0.5187  0.0729  0.3817
  144DOPC   H7X17139   5.149   3.172   6.204  1.7838  2.9029 -1.9137
  144DOPC   H7Y17140   5.326   3.184   6.191 -0.4119  1.1580  2.6972
  144DOPC   C3817141   5.229   3.035   6.052 -0.3427 -0.1375 -0.3219
  144DOPC   H8X17142   5.317   2.968   6.054 -0.7496 -0.6879 -0.7198
  144DOPC   H8Y17143   5.232   3.095   5.958 -1.0947 -2.3113 -1.8068
  144DOPC   C3917144   5.099   2.955   6.049 -0.5446  0.0166  0.0002
  144DOPC   H9X17145   5.028   2.988   6.125  1.9580  0.1807  2.4197
  144DOPC  C31017146   5.076   2.859   5.956  0.6269  0.4526  0.1430
  144DOPC  H10X17147   4.975   2.815   5.962  0.3399  1.2982  3.3864
  144DOPC  C31117148   5.155   2.816   5.835  0.5586 -0.2615  1.0096
  144DOPC  H11X17149   5.168   2.707   5.820 -0.2226 -0.2080 -0.2769
  144DOPC  H11Y17150   5.260   2.847   5.855  1.3302 -1.6069 -0.7102
  144DOPC  C31217151   5.118   2.882   5.703 -0.3265  0.0875  0.5228
  144DOPC  H12X17152   5.167   2.833   5.617 -1.2491  2.3780 -1.4217
  144DOPC  H12Y17153   5.145   2.990   5.712 -1.1027  0.2893  0.4691
  144DOPC  C31317154   4.971   2.875   5.677  0.8221  0.5154  0.0542
  144DOPC  H13X17155   4.935   2.780   5.721  0.7619  0.7080  0.4259
  144DOPC  H13Y17156   4.911   2.962   5.713  0.0711  1.2849 -2.8334
  144DOPC  C31417157   4.925   2.879   5.528  0.4924  0.0040 -0.4025
  144DOPC  H14X17158   4.977   2.962   5.474  0.5850  0.6540  0.6397
  144DOPC  H14Y17159   4.949   2.783   5.478 -3.5168 -2.0253  1.1965
  144DOPC  C31517160   4.775   2.902   5.499 -0.2951  0.3491 -0.2170
  144DOPC  H15X17161   4.760   2.992   5.562  1.2706  1.9524 -1.9746
  144DOPC  H15Y17162   4.721   2.812   5.534  1.3570 -1.6725 -2.4728
  144DOPC  C31617163   4.744   2.932   5.353  0.2527  0.1297 -0.1224
  144DOPC  H16X17164   4.635   2.956   5.356 -0.0626 -1.3128  1.1839
  144DOPC  H16Y17165   4.798   3.022   5.315  0.6405 -0.5855 -1.3384
  144DOPC  C31717166   4.753   2.820   5.247 -0.1662  0.4438 -0.4154
  144DOPC  H17X17167   4.849   2.765   5.256 -1.2241 -1.2424  1.6679
  144DOPC  H17Y17168   4.681   2.739   5.272  1.0912 -1.3690 -2.3133
  144DOPC  C31817169   4.728   2.865   5.110 -0.5541  0.0095  0.6729
  144DOPC  H18X17170   4.726   2.774   5.047 -3.1790 -0.3931  1.2133
  144DOPC  H18Y17171   4.632   2.920   5.098  0.2742  1.0406 -2.5714
  144DOPC  H18Z17172   4.805   2.939   5.079 -1.3169  1.4873  2.1650
  145DOPC     N17173   5.361   4.582   7.315 -0.6334  0.3745  0.1716
  145DOPC   C1217174   5.495   4.654   7.309 -0.2159  0.0707 -0.2912
  145DOPC  H12A17175   5.556   4.595   7.244 -2.0192 -1.1047 -1.0043
  145DOPC  H12B17176   5.538   4.663   7.408 -0.7220  0.0446 -0.0635
  145DOPC   C1317177   5.383   4.443   7.359  0.2404 -0.4838  0.6543
  145DOPC  H13A17178   5.297   4.378   7.348 -0.3229  0.4073 -0.5550
  145DOPC  H13B17179   5.461   4.395   7.303 -1.5096 -0.6128 -1.8806
  145DOPC  H13C17180   5.403   4.449   7.465 -1.3998  1.4403  0.9279
  145DOPC   C1417181   5.304   4.577   7.175 -0.4542 -0.1599 -0.6818
  145DOPC  H14A17182   5.282   4.680   7.152  0.9250  0.1144 -0.9029
  145DOPC  H14B17183   5.371   4.547   7.095 -0.4556  0.2718 -0.8484
  145DOPC  H14C17184   5.213   4.519   7.168 -1.5638  1.2649  1.0926
  145DOPC   C1517185   5.262   4.651   7.410 -0.8761  0.2515  0.7531
  145DOPC  H15A17186   5.161   4.615   7.395 -1.2400  1.3526  0.4395
  145DOPC  H15B17187   5.280   4.757   7.398  2.0384  0.0376  2.3123
  145DOPC  H15C17188   5.276   4.620   7.513 -0.7186 -1.8251  0.1522
  145DOPC   C1117189   5.503   4.796   7.260  0.0957 -0.4356  0.1330
  145DOPC  H11A17190   5.600   4.847   7.279  0.2977  0.2283 -2.3504
  145DOPC  H11B17191   5.496   4.778   7.150  0.0424  1.5173 -0.2266
  145DOPC     P17192   5.364   5.020   7.249 -0.0430  0.0937 -0.2973
  145DOPC   O1317193   5.488   5.102   7.245  0.4836  0.1535  0.0155
  145DOPC   O1417194   5.244   5.072   7.325  0.2318 -0.2634  0.1375
  145DOPC   O1217195   5.398   4.883   7.316  0.1086 -0.0167  0.3381
  145DOPC   O1117196   5.322   4.976   7.109  0.2720 -0.2134 -0.0642
  145DOPC    C117197   5.361   5.025   6.984  0.4337  0.2238 -0.8258
  145DOPC    HA17198   5.292   4.981   6.908 -1.9670  0.8907  0.8674
  145DOPC    HB17199   5.470   5.008   6.969  0.7381  1.9389 -0.6591
  145DOPC    C217200   5.331   5.180   6.964  0.2557 -0.0628 -0.1770
  145DOPC    HS17201   5.325   5.220   7.068 -0.0419 -1.4246  0.3627
  145DOPC   O2117202   5.210   5.202   6.895 -0.0596  0.4980  0.0421
  145DOPC   C2117203   5.142   5.302   6.929 -0.0758 -0.5495 -0.8419
  145DOPC   O2217204   5.175   5.388   7.012  0.6960 -0.1659  0.2554
  145DOPC   C2217205   5.022   5.315   6.837  0.2616  0.4136 -0.1545
  145DOPC   H2R17206   4.965   5.401   6.878 -1.4111 -1.0626  0.7404
  145DOPC   H2S17207   4.949   5.234   6.857  0.2125  0.7459  1.0989
  145DOPC    C317208   5.428   5.260   6.887 -0.5927 -0.4724 -0.2729
  145DOPC    HX17209   5.519   5.263   6.950 -0.5783 -0.9676 -0.2671
  145DOPC    HY17210   5.396   5.366   6.880  2.6959  0.7430  1.0762
  145DOPC   O3117211   5.456   5.219   6.749 -0.3858 -0.1892  0.0462
  145DOPC   C3117212   5.572   5.144   6.741  0.4599 -0.2747 -0.4955
  145DOPC   O3217213   5.652   5.138   6.828 -0.6310 -0.4057  0.1081
  145DOPC   C3217214   5.581   5.071   6.604 -0.9430  0.1580 -0.1467
  145DOPC   H2X17215   5.598   5.141   6.520  0.8369  2.1652  1.7852
  145DOPC   H2Y17216   5.677   5.015   6.609 -1.3601 -0.7776 -1.8467
  145DOPC   C2317217   5.066   5.339   6.688  0.6891 -0.1412  0.9068
  145DOPC   H3R17218   4.989   5.347   6.608  3.5017  2.4996 -1.8166
  145DOPC   H3S17219   5.125   5.247   6.668 -0.2130 -0.8693  1.5432
  145DOPC   C2417220   5.154   5.470   6.678 -0.1228 -0.4193 -0.4434
  145DOPC   H4R17221   5.256   5.469   6.721  0.7276  1.4158 -2.2486
  145DOPC   H4S17222   5.092   5.544   6.732 -2.9150 -2.7524 -0.1899
  145DOPC   C2517223   5.166   5.507   6.524 -0.3653 -0.0373 -0.3485
  145DOPC   H5R17224   5.068   5.511   6.472 -0.3920 -0.1800 -0.3105
  145DOPC   H5S17225   5.236   5.434   6.477 -0.5946 -1.4929  1.4631
  145DOPC   C2617226   5.238   5.637   6.495 -0.9359  0.2418 -0.0145
  145DOPC   H6R17227   5.349   5.623   6.499 -1.0902 -0.8813  1.1858
  145DOPC   H6S17228   5.209   5.726   6.555  0.7254  2.7857 -2.7291
  145DOPC   C2717229   5.207   5.680   6.355  0.2543 -0.1148 -0.3617
  145DOPC   H7R17230   5.257   5.779   6.348  0.2159  0.1894  2.4221
  145DOPC   H7S17231   5.098   5.698   6.363 -0.0300 -2.1669  1.3752
  145DOPC   C2817232   5.250   5.590   6.235  0.8046  0.6362 -0.0413
  145DOPC   H8R17233   5.199   5.494   6.257  2.4016 -0.4136 -0.7056
  145DOPC   H8S17234   5.360   5.589   6.249  0.8238  1.1938 -0.1460
  145DOPC   C2917235   5.213   5.639   6.101 -0.3192 -0.6836  0.9536
  145DOPC   H9R17236   5.107   5.670   6.095 -1.1575 -3.1112  1.6796
  145DOPC  C21017237   5.296   5.643   5.993 -0.0480 -0.3445 -0.6629
  145DOPC  H10R17238   5.255   5.665   5.893 -1.9380  2.3587  0.5902
  145DOPC  C21117239   5.441   5.594   5.989  0.4395 -0.6405  0.1210
  145DOPC  H11R17240   5.465   5.547   5.891 -0.0095 -2.3685  0.8031
  145DOPC  H11S17241   5.465   5.516   6.064 -0.6966 -3.6139 -2.3854
  145DOPC  C21217242   5.545   5.710   5.997 -0.0318 -0.5805 -0.4887
  145DOPC  H12R17243   5.514   5.800   5.940  2.1936  1.2654  1.0098
  145DOPC  H12S17244   5.639   5.667   5.956  0.9267  1.7786 -0.9636
  145DOPC  C21317245   5.558   5.760   6.147  0.4902 -0.8182  0.4868
  145DOPC  H13R17246   5.567   5.669   6.211  0.1969  0.6175  2.6655
  145DOPC  H13S17247   5.465   5.810   6.180  1.2046 -0.2980  1.8139
  145DOPC  C21417248   5.671   5.856   6.175  0.0829 -0.3192  0.1155
  145DOPC  H14R17249   5.663   5.947   6.112  2.1093 -1.1898 -1.5391
  145DOPC  H14S17250   5.770   5.813   6.147 -0.1020  0.1741 -1.4138
  145DOPC  C21517251   5.677   5.891   6.319 -0.5315  0.5327  0.3175
  145DOPC  H15R17252   5.679   5.803   6.386 -2.5838  1.1044  1.2030
  145DOPC  H15S17253   5.584   5.945   6.345  0.1491  1.5188  0.7666
  145DOPC  C21617254   5.810   5.957   6.346  0.4166  0.1041  0.0888
  145DOPC  H16R17255   5.838   6.028   6.265  1.0099  1.3905  1.3873
  145DOPC  H16S17256   5.891   5.883   6.330  0.0693 -0.0843 -0.8913
  145DOPC  C21717257   5.815   6.042   6.473  0.3369  0.6461 -0.0175
  145DOPC  H17R17258   5.770   5.978   6.552 -0.4797  1.6280  0.3386
  145DOPC  H17S17259   5.755   6.130   6.443  0.5603  0.6410 -0.4966
  145DOPC  C21817260   5.955   6.082   6.519  0.1443  0.0201  0.4775
  145DOPC  H18R17261   5.956   6.153   6.604  1.7666  1.0872 -0.3843
  145DOPC  H18S17262   6.012   6.137   6.441 -0.8632  1.6429  0.8517
  145DOPC  H18T17263   6.015   5.995   6.554 -0.0239  0.5821  2.2666
  145DOPC   C3317264   5.462   4.982   6.578  0.0867 -0.6699 -0.1524
  145DOPC   H3X17265   5.368   5.040   6.590  0.9099  0.5134  0.7807
  145DOPC   H3Y17266   5.456   4.897   6.649  0.9962  1.1272  2.1952
  145DOPC   C3417267   5.461   4.920   6.436 -0.0897  0.0584  0.0565
  145DOPC   H4X17268   5.539   4.842   6.422 -0.5151 -0.1570 -1.2514
  145DOPC   H4Y17269   5.503   4.997   6.366 -0.0819 -0.9078 -1.0351
  145DOPC   C3517270   5.317   4.889   6.394  0.0525 -0.0420  0.7472
  145DOPC   H5X17271   5.242   4.971   6.404 -0.8819 -0.5994 -1.1534
  145DOPC   H5Y17272   5.283   4.816   6.471  1.4831 -0.0489  1.3977
  145DOPC   C3617273   5.297   4.824   6.257  0.2428  0.4769  0.6330
  145DOPC   H6X17274   5.379   4.751   6.246  1.5857  1.9725  0.3291
  145DOPC   H6Y17275   5.203   4.764   6.255  1.4428 -1.4749 -1.6918
  145DOPC   C3717276   5.294   4.919   6.128 -0.8805 -0.7072 -0.2876
  145DOPC   H7X17277   5.384   4.982   6.110 -0.8174 -1.0573 -1.2676
  145DOPC   H7Y17278   5.286   4.856   6.038  1.6272 -1.8469  0.2112
  145DOPC   C3817279   5.178   5.019   6.132 -0.0205 -0.0183  0.2749
  145DOPC   H8X17280   5.192   5.111   6.192 -2.1492 -0.2568  1.2018
  145DOPC   H8Y17281   5.081   4.983   6.170  0.6546  0.0808  2.1848
  145DOPC   C3917282   5.146   5.049   5.991  0.2840 -0.1840  0.2696
  145DOPC   H9X17283   5.175   5.148   5.954  0.8595 -0.4258  0.0638
  145DOPC  C31017284   5.068   4.976   5.909  0.4561  0.5382 -0.4937
  145DOPC  H10X17285   5.039   5.017   5.811  0.3314  3.2798  0.6024
  145DOPC  C31117286   5.000   4.848   5.951 -0.7829  0.2215 -0.2505
  145DOPC  H11X17287   5.027   4.822   6.056  0.0788  0.5660 -0.3807
  145DOPC  H11Y17288   5.045   4.764   5.895 -0.6111  0.3734 -0.3421
  145DOPC  C31217289   4.849   4.857   5.939 -0.2331 -0.6863  0.4095
  145DOPC  H12X17290   4.826   4.899   5.839 -1.3093  0.7860  1.2397
  145DOPC  H12Y17291   4.816   4.937   6.009  1.1063 -0.0661  0.3526
  145DOPC  C31317292   4.786   4.724   5.961 -0.1156  0.4322 -0.0230
  145DOPC  H13X17293   4.835   4.639   5.910  0.3729  0.1955  0.8155
  145DOPC  H13Y17294   4.799   4.691   6.066 -0.3391 -0.5103 -0.2839
  145DOPC  C31417295   4.636   4.737   5.924 -0.0416 -0.0378 -0.3182
  145DOPC  H14X17296   4.586   4.811   5.991 -0.2932  1.0111 -1.6201
  145DOPC  H14Y17297   4.621   4.762   5.817  1.5985 -0.3155 -0.6368
  145DOPC  C31517298   4.566   4.597   5.960  1.1380  0.6358  0.3159
  145DOPC  H15X17299   4.603   4.560   6.058  1.1238  0.4060  0.2348
  145DOPC  H15Y17300   4.599   4.521   5.886 -2.3127 -1.4907  0.7478
  145DOPC  C31617301   4.415   4.598   5.957 -0.3399 -0.8090  0.0763
  145DOPC  H16X17302   4.376   4.663   6.039  0.0031 -1.3298  0.6617
  145DOPC  H16Y17303   4.390   4.640   5.857  0.0173 -0.1095  0.2689
  145DOPC  C31717304   4.368   4.452   5.962 -0.3191 -0.1191 -0.5788
  145DOPC  H17X17305   4.273   4.442   5.904  0.8170 -0.8386 -2.4025
  145DOPC  H17Y17306   4.429   4.378   5.906 -1.5239 -2.3965  0.9442
  145DOPC  C31817307   4.323   4.401   6.103 -0.2921 -0.1063  0.8213
  145DOPC  H18X17308   4.268   4.305   6.092 -1.7539  0.8012 -0.1735
  145DOPC  H18Y17309   4.423   4.387   6.150  0.5950 -1.0374 -1.2146
  145DOPC  H18Z17310   4.271   4.480   6.161 -0.6676 -0.4879  1.0161
  146DOPC     N17311   7.081   2.439   7.269  0.0619 -0.1209  0.1887
  146DOPC   C1217312   7.139   2.459   7.133  0.1289  0.0552 -0.0681
  146DOPC  H12A17313   7.231   2.513   7.149 -0.9258  2.8469 -2.4804
  146DOPC  H12B17314   7.071   2.529   7.086 -1.6615 -0.4917  1.5801
  146DOPC   C1317315   7.188   2.370   7.356  0.2992 -0.5884 -0.2466
  146DOPC  H13A17316   7.273   2.432   7.381 -0.9590  1.6821 -1.2603
  146DOPC  H13B17317   7.140   2.345   7.449 -0.7278 -2.1213 -1.1511
  146DOPC  H13C17318   7.226   2.278   7.313 -1.5120 -0.8036 -1.4795
  146DOPC   C1417319   6.961   2.350   7.262 -0.8443  0.0454 -0.0413
  146DOPC  H14A17320   6.880   2.386   7.201  0.5753 -1.9198 -3.3681
  146DOPC  H14B17321   6.992   2.256   7.218  1.7582  0.2793  1.0868
  146DOPC  H14C17322   6.926   2.321   7.361 -2.4391  0.5177 -0.4404
  146DOPC   C1517323   7.033   2.561   7.343 -0.0571  0.1129  0.6175
  146DOPC  H15A17324   6.939   2.595   7.301 -0.1373 -2.8948 -2.0844
  146DOPC  H15B17325   7.106   2.640   7.349 -0.0205  0.0608  0.8367
  146DOPC  H15C17326   7.005   2.527   7.441  0.1406  2.1363  1.4039
  146DOPC   C1117327   7.155   2.333   7.043  0.4720  0.3986  0.1939
  146DOPC  H11A17328   7.054   2.289   7.029 -0.3738  1.8409  1.4597
  146DOPC  H11B17329   7.189   2.360   6.941  2.8356 -1.5985  0.3520
  146DOPC     P17330   7.403   2.255   7.095 -0.2950 -0.1100  0.2416
  146DOPC   O1317331   7.463   2.197   7.214  0.2792 -0.5236 -0.3663
  146DOPC   O1417332   7.442   2.395   7.076 -0.0307 -0.0021  0.1752
  146DOPC   O1217333   7.251   2.239   7.098  0.3323  0.0916 -0.4771
  146DOPC   O1117334   7.439   2.181   6.962 -0.3595  0.0652 -0.9500
  146DOPC    C117335   7.423   2.036   6.974  0.0722  0.5083  0.7104
  146DOPC    HA17336   7.322   2.000   7.001 -0.2371  2.4824  2.4262
  146DOPC    HB17337   7.498   1.995   7.045  1.2352  0.8192 -0.2952
  146DOPC    C217338   7.469   1.974   6.834 -0.4155 -0.0578 -0.0999
  146DOPC    HS17339   7.579   1.972   6.822 -0.2237 -0.3993  1.4345
  146DOPC   O2117340   7.418   2.049   6.721  0.2703  0.2971 -0.4931
  146DOPC   C2117341   7.291   2.064   6.719  0.6310 -0.1945 -0.0224
  146DOPC   O2217342   7.212   1.996   6.780 -0.1125  0.0544 -0.2879
  146DOPC   C2217343   7.245   2.166   6.610  0.3128 -0.0396  0.0878
  146DOPC   H2R17344   7.317   2.169   6.525 -0.4511  0.3476 -0.5625
  146DOPC   H2S17345   7.236   2.261   6.667  0.3454 -0.3226  0.5656
  146DOPC    C317346   7.428   1.824   6.829 -0.1989 -1.1177  0.7779
  146DOPC    HX17347   7.322   1.807   6.860 -0.0638  0.2111  2.0463
  146DOPC    HY17348   7.499   1.770   6.894  3.9256  0.8062 -1.7455
  146DOPC   O3117349   7.454   1.772   6.695 -0.1174  0.2209 -0.0163
  146DOPC   C3117350   7.428   1.643   6.694  0.0207 -1.0009  0.0229
  146DOPC   O3217351   7.410   1.578   6.795 -0.2325  0.4691  0.4061
  146DOPC   C3217352   7.444   1.587   6.551  0.1556 -0.1211  0.2497
  146DOPC   H2X17353   7.494   1.668   6.495 -1.0229  1.4521  1.3870
  146DOPC   H2Y17354   7.505   1.494   6.555  0.7464  0.1667 -1.3511
  146DOPC   C2317355   7.107   2.121   6.558  0.4823  0.0027  0.0054
  146DOPC   H3R17356   7.064   2.207   6.504  1.4107 -0.6122 -1.7991
  146DOPC   H3S17357   7.042   2.091   6.643 -2.0194  0.1058 -1.7354
  146DOPC   C2417358   7.125   1.993   6.467  0.8785 -0.7991  0.1778
  146DOPC   H4R17359   7.180   1.913   6.521  0.3960 -1.7855 -0.7492
  146DOPC   H4S17360   7.179   2.030   6.377 -2.8123  0.3902 -1.7559
  146DOPC   C2517361   6.994   1.940   6.414  0.8824  0.5352 -0.1313
  146DOPC   H5R17362   6.921   1.924   6.496  0.1598 -1.3376 -1.0818
  146DOPC   H5S17363   7.016   1.838   6.376 -1.6154 -0.4372  0.7894
  146DOPC   C2617364   6.935   2.027   6.306 -0.2781  0.2772  0.1936
  146DOPC   H6R17365   7.018   2.051   6.236  1.2804 -0.3410  1.7478
  146DOPC   H6S17366   6.894   2.116   6.356 -2.8732 -1.6719  1.7727
  146DOPC   C2717367   6.824   1.963   6.220  0.2263  0.5616 -0.6811
  146DOPC   H7R17368   6.743   1.930   6.288  0.7080 -1.2224 -0.9274
  146DOPC   H7S17369   6.868   1.873   6.173  1.6579 -0.6444  2.6449
  146DOPC   C2817370   6.763   2.055   6.111 -0.9209  0.7166  0.0697
  146DOPC   H8R17371   6.853   2.097   6.063  0.4750 -1.1637  0.9385
  146DOPC   H8S17372   6.718   2.147   6.155  1.0973  1.9644 -0.3305
  146DOPC   C2917373   6.668   1.991   6.009  0.7211 -0.4486 -0.5085
  146DOPC   H9R17374   6.603   1.921   6.062 -0.3490 -0.2513 -1.5246
  146DOPC  C21017375   6.655   2.007   5.876 -0.0556  0.2446 -0.3649
  146DOPC  H10R17376   6.575   1.955   5.821  0.0843 -1.8681  1.2736
  146DOPC  C21117377   6.740   2.093   5.786 -0.2012  0.0341  0.1000
  146DOPC  H11R17378   6.801   2.164   5.846 -0.3385  0.4484 -0.2435
  146DOPC  H11S17379   6.680   2.165   5.727 -0.4495  1.1872  1.6890
  146DOPC  C21217380   6.843   2.010   5.704  0.0308 -0.5151 -0.5408
  146DOPC  H12R17381   6.912   1.964   5.777  1.3256  1.2426 -0.5953
  146DOPC  H12S17382   6.903   2.079   5.641 -0.0737  0.6654  0.6239
  146DOPC  C21317383   6.783   1.906   5.616 -0.0668 -0.0613  0.1951
  146DOPC  H13R17384   6.708   1.845   5.671 -0.8718 -1.1273 -1.9753
  146DOPC  H13S17385   6.852   1.821   5.597 -0.8777 -0.6748 -0.0293
  146DOPC  C21417386   6.722   1.968   5.493  0.0738 -0.0090  1.1994
  146DOPC  H14R17387   6.802   2.035   5.454  0.2081 -1.4038 -1.0977
  146DOPC  H14S17388   6.644   2.042   5.516 -1.3529 -0.4863 -1.6680
  146DOPC  C21517389   6.659   1.872   5.400  0.4479 -0.2067  0.3168
  146DOPC  H15R17390   6.597   1.799   5.456  0.9588 -1.8092 -1.1194
  146DOPC  H15S17391   6.746   1.831   5.344  0.0522  1.9813 -2.0614
  146DOPC  C21617392   6.569   1.944   5.295  0.0079  0.2987 -0.7615
  146DOPC  H16R17393   6.618   2.031   5.246 -1.7395  1.7420 -0.0631
  146DOPC  H16S17394   6.483   1.987   5.351 -0.4085 -0.2020 -1.0019
  146DOPC  C21717395   6.528   1.834   5.188 -0.6159  0.0471 -0.0515
  146DOPC  H17R17396   6.512   1.734   5.234 -0.5144  0.5214  1.0686
  146DOPC  H17S17397   6.623   1.828   5.131  0.0290 -1.1014  1.0920
  146DOPC  C21817398   6.412   1.871   5.094  0.1537  0.5186  1.5527
  146DOPC  H18R17399   6.339   1.952   5.119 -1.7215  0.5174 -2.9646
  146DOPC  H18S17400   6.351   1.784   5.061  0.8202  0.8901 -0.8462
  146DOPC  H18T17401   6.460   1.916   5.005  0.4180 -0.0764  1.3962
  146DOPC   C3317402   7.315   1.563   6.477  0.3613  0.4853  0.2630
  146DOPC   H3X17403   7.337   1.542   6.371  0.5101  1.6300  0.0563
  146DOPC   H3Y17404   7.271   1.665   6.476 -0.3106  0.2064  0.6218
  146DOPC   C3417405   7.217   1.464   6.538 -0.1518 -0.4148  0.0345
  146DOPC   H4X17406   7.219   1.477   6.649 -0.0921 -0.6628  0.0629
  146DOPC   H4Y17407   7.249   1.365   6.501 -1.3157 -1.0084  0.5686
  146DOPC   C3517408   7.067   1.477   6.496 -0.0225 -0.4486 -0.1019
  146DOPC   H5X17409   7.015   1.562   6.545 -0.4936 -0.0190 -1.3110
  146DOPC   H5Y17410   7.022   1.379   6.525 -1.9663  1.1247  2.7790
  146DOPC   C3617411   7.057   1.501   6.346  0.2408  0.9900  0.1127
  146DOPC   H6X17412   7.108   1.596   6.320  0.8799 -0.0030 -2.6089
  146DOPC   H6Y17413   7.121   1.419   6.306 -1.7094 -1.3651  1.5046
  146DOPC   C3717414   6.921   1.476   6.286 -0.1412  0.1083 -0.5826
  146DOPC   H7X17415   6.921   1.435   6.183 -3.3142 -1.8426  0.0548
  146DOPC   H7Y17416   6.896   1.390   6.352  1.8740 -1.2584 -1.4632
  146DOPC   C3817417   6.817   1.591   6.297 -0.2761  1.0980  0.2563
  146DOPC   H8X17418   6.859   1.683   6.253  1.6905 -0.5074 -1.4586
  146DOPC   H8Y17419   6.806   1.613   6.405  2.9572 -0.8835  1.1464
  146DOPC   C3917420   6.688   1.552   6.225 -0.4152  0.7488 -0.0844
  146DOPC   H9X17421   6.606   1.520   6.291  0.0887  0.1922  0.2872
  146DOPC  C31017422   6.666   1.560   6.094  0.3327  0.1807 -0.2794
  146DOPC  H10X17423   6.568   1.520   6.065 -0.4630  1.6367  0.2793
  146DOPC  C31117424   6.762   1.604   5.985  0.3147  0.0224  0.4635
  146DOPC  H11X17425   6.869   1.598   6.014 -0.0259 -1.2147  1.5813
  146DOPC  H11Y17426   6.745   1.710   5.957  1.8707  0.2835  0.4442
  146DOPC  C31217427   6.739   1.516   5.864 -0.5862 -0.1258  0.3928
  146DOPC  H12X17428   6.631   1.505   5.841 -0.5485 -1.5064  0.7590
  146DOPC  H12Y17429   6.777   1.413   5.884 -1.9611 -1.1367 -1.7340
  146DOPC  C31317430   6.815   1.562   5.733  0.0487  0.2506  0.2124
  146DOPC  H13X17431   6.774   1.654   5.686  1.0685 -0.6813 -2.6719
  146DOPC  H13Y17432   6.922   1.587   5.748  0.1090  2.3365 -2.8999
  146DOPC  C31417433   6.799   1.456   5.620 -0.2412  0.4563 -0.2738
  146DOPC  H14X17434   6.882   1.476   5.549 -0.6755  1.1224 -0.6096
  146DOPC  H14Y17435   6.813   1.358   5.671 -0.7001  1.0179  0.9778
  146DOPC  C31517436   6.665   1.451   5.546  0.1945 -0.6554  0.1540
  146DOPC  H15X17437   6.630   1.553   5.522  2.0910 -0.3768 -1.7125
  146DOPC  H15Y17438   6.591   1.398   5.610  0.4186 -0.6813  0.3954
  146DOPC  C31617439   6.674   1.366   5.418  0.5324  0.8449 -0.4249
  146DOPC  H16X17440   6.777   1.363   5.376  0.1791 -0.1776 -1.2431
  146DOPC  H16Y17441   6.661   1.261   5.450 -0.2932  1.0134 -0.1758
  146DOPC  C31717442   6.577   1.404   5.301 -0.6097 -0.0419 -0.6378
  146DOPC  H17X17443   6.473   1.387   5.337 -0.9224  2.8784  0.0690
  146DOPC  H17Y17444   6.582   1.514   5.291 -0.2598 -0.0818 -0.8945
  146DOPC  C31817445   6.609   1.336   5.165 -1.2173 -0.4421  0.0914
  146DOPC  H18X17446   6.712   1.373   5.143 -1.0513  0.0608  1.5602
  146DOPC  H18Y17447   6.630   1.227   5.167  2.7572  0.1283 -0.6218
  146DOPC  H18Z17448   6.537   1.373   5.090 -2.9615 -1.8783  0.9927
  147DOPC     N17449   4.758   4.977   7.408  0.8145  0.0101 -0.5897
  147DOPC   C1217450   4.785   4.898   7.277 -0.2503  0.0949  0.4831
  147DOPC  H12A17451   4.826   4.971   7.208  0.4017 -0.5558  0.1668
  147DOPC  H12B17452   4.691   4.856   7.247  0.9270 -1.0004 -1.9422
  147DOPC   C1317453   4.687   4.884   7.507  0.0453  0.0982  0.3567
  147DOPC  H13A17454   4.758   4.806   7.530  0.5204  0.2056 -0.7160
  147DOPC  H13B17455   4.657   4.936   7.597  0.1361  0.0750  0.4001
  147DOPC  H13C17456   4.606   4.829   7.462  0.9128 -2.5873  1.8441
  147DOPC   C1417457   4.665   5.088   7.380  0.5976 -0.3036 -0.0732
  147DOPC  H14A17458   4.561   5.062   7.365 -0.2255  1.9637  1.2782
  147DOPC  H14B17459   4.666   5.160   7.461  0.7530 -1.7930  1.2957
  147DOPC  H14C17460   4.695   5.147   7.294 -0.0955 -0.7131 -0.6059
  147DOPC   C1517461   4.883   5.036   7.460 -0.6617  0.4493 -0.7229
  147DOPC  H15A17462   4.928   5.091   7.379 -0.0357 -1.9024 -2.0591
  147DOPC  H15B17463   4.954   4.960   7.490 -0.2800  0.8707 -0.5542
  147DOPC  H15C17464   4.875   5.110   7.539  3.2394  0.1113  0.2235
  147DOPC   C1117465   4.885   4.776   7.280 -0.4702 -0.7016  0.3103
  147DOPC  H11A17466   4.920   4.739   7.181  0.4418  1.8739 -0.4058
  147DOPC  H11B17467   4.978   4.813   7.328 -0.2307  1.8792 -1.9090
  147DOPC     P17468   4.847   4.518   7.337  0.0866  0.5731 -0.1801
  147DOPC   O1317469   4.747   4.447   7.417  0.5407  0.2738 -0.7966
  147DOPC   O1417470   4.980   4.470   7.355 -0.4383 -0.0664  0.3897
  147DOPC   O1217471   4.831   4.677   7.357  0.6817  0.2172 -0.3354
  147DOPC   O1117472   4.827   4.502   7.185 -0.4792  0.5576  0.0693
  147DOPC    C117473   4.712   4.545   7.116  0.5489 -0.7455 -0.4330
  147DOPC    HA17474   4.735   4.537   7.008  0.0749  1.0950 -0.7042
  147DOPC    HB17475   4.685   4.652   7.130  1.2852 -0.4358 -1.2400
  147DOPC    C217476   4.584   4.448   7.136 -0.0309 -0.4318  0.2775
  147DOPC    HS17477   4.549   4.472   7.239 -3.5260 -1.0558 -0.6222
  147DOPC   O2117478   4.627   4.319   7.116 -0.4004  0.1363  0.2517
  147DOPC   C2117479   4.560   4.217   7.165 -0.1534 -0.1309 -0.0798
  147DOPC   O2217480   4.466   4.228   7.237  0.1459  0.1996  0.0290
  147DOPC   C2217481   4.629   4.080   7.134  0.4385 -0.6037  0.7479
  147DOPC   H2R17482   4.596   4.016   7.218  1.6173 -1.2467  0.7501
  147DOPC   H2S17483   4.739   4.082   7.147  0.8215  0.2278 -1.9220
  147DOPC    C317484   4.466   4.468   7.040 -0.8965  0.1257  0.4659
  147DOPC    HX17485   4.437   4.572   7.068  0.7275  0.2553  1.8475
  147DOPC    HY17486   4.381   4.405   7.074 -0.7541  0.0141  0.6183
  147DOPC   O3117487   4.492   4.465   6.899  0.6294 -0.3025 -0.0335
  147DOPC   C3117488   4.439   4.372   6.822 -0.2860  0.2118 -0.1578
  147DOPC   O3217489   4.366   4.278   6.850  1.0079  0.0548 -0.3869
  147DOPC   C3217490   4.490   4.392   6.680  0.0431 -0.2093 -0.4634
  147DOPC   H2X17491   4.421   4.468   6.637  0.7193  0.4455 -0.3970
  147DOPC   H2Y17492   4.597   4.419   6.692  0.0776 -0.2552 -0.6558
  147DOPC   C2317493   4.593   4.008   6.998  0.1852  0.7349  0.1398
  147DOPC   H3R17494   4.484   4.020   6.981 -0.3337 -1.9774  0.9302
  147DOPC   H3S17495   4.613   3.899   7.008 -0.8407  0.4332 -0.8903
  147DOPC   C2417496   4.674   4.058   6.877  0.3261  0.2258 -0.0318
  147DOPC   H4R17497   4.779   4.056   6.914  0.6991 -1.4826 -1.0290
  147DOPC   H4S17498   4.646   4.161   6.848 -1.7265 -0.2040  0.2717
  147DOPC   C2517499   4.665   3.971   6.752 -1.0518 -0.1913 -0.1418
  147DOPC   H5R17500   4.576   3.987   6.687 -2.3651  1.8459  2.0101
  147DOPC   H5S17501   4.645   3.863   6.772 -0.8978 -0.1287  0.3488
  147DOPC   C2617502   4.778   3.997   6.650  0.5719 -0.3260 -0.2254
  147DOPC   H6R17503   4.865   3.934   6.674  1.1290  0.4389 -0.2043
  147DOPC   H6S17504   4.811   4.103   6.642 -2.4518  0.7234 -0.2950
  147DOPC   C2717505   4.732   3.938   6.521  0.4678  0.0214 -0.5887
  147DOPC   H7R17506   4.641   3.992   6.487  0.8853  0.8288 -0.4649
  147DOPC   H7S17507   4.711   3.830   6.535  2.7855 -0.2475  1.5208
  147DOPC   C2817508   4.834   3.941   6.412 -0.1796  0.0295  0.3120
  147DOPC   H8R17509   4.860   4.047   6.392 -1.0204  0.3614  0.8956
  147DOPC   H8S17510   4.784   3.909   6.318 -0.4112  0.3298  0.3324
  147DOPC   C2917511   4.955   3.853   6.431  0.3139 -0.7383  0.8047
  147DOPC   H9R17512   4.936   3.747   6.455 -0.3682 -0.5767  0.9931
  147DOPC  C21017513   5.077   3.878   6.398 -0.4946 -0.0516  0.3858
  147DOPC  H10R17514   5.146   3.802   6.436 -1.3090 -0.3355  1.3100
  147DOPC  C21117515   5.136   4.006   6.337 -0.3666  0.1300  0.4146
  147DOPC  H11R17516   5.240   4.020   6.374 -0.5711 -0.0466  1.0752
  147DOPC  H11S17517   5.085   4.101   6.365  1.0258  0.4900  1.8825
  147DOPC  C21217518   5.146   3.993   6.174 -0.1283 -0.2549  0.0833
  147DOPC  H12R17519   5.229   3.925   6.149 -1.9434 -2.6705  0.3211
  147DOPC  H12S17520   5.170   4.096   6.140 -3.5585  0.5115 -0.3146
  147DOPC  C21317521   5.027   3.946   6.096  0.5830  0.3256 -0.1854
  147DOPC  H13R17522   4.937   4.007   6.117  0.2014 -0.3264  0.1168
  147DOPC  H13S17523   5.012   3.840   6.128  2.2599  0.7049  2.1358
  147DOPC  C21417524   5.057   3.952   5.943  0.0161 -0.0517 -0.3660
  147DOPC  H14R17525   5.118   3.862   5.919  0.2258  0.4675 -1.9435
  147DOPC  H14S17526   5.119   4.039   5.909  0.4973 -0.8143 -1.5000
  147DOPC  C21517527   4.931   3.925   5.850  0.3781  0.5968  0.6820
  147DOPC  H15R17528   4.861   4.010   5.862  0.6354  0.5283  3.4292
  147DOPC  H15S17529   4.880   3.836   5.893  0.9015  0.5787  1.2825
  147DOPC  C21617530   4.977   3.912   5.704 -0.3948  0.2338  0.0566
  147DOPC  H16R17531   5.034   3.817   5.698 -0.7820 -0.1042  1.3850
  147DOPC  H16S17532   5.050   3.993   5.687  0.2226 -0.6329 -1.6277
  147DOPC  C21717533   4.870   3.921   5.599 -0.0182  0.2677  0.5573
  147DOPC  H17R17534   4.818   4.017   5.619  0.9042  0.8075  0.4446
  147DOPC  H17S17535   4.806   3.832   5.615 -0.0915  0.6968  3.1382
  147DOPC  C21817536   4.924   3.925   5.453  0.1593  0.2955  0.8628
  147DOPC  H18R17537   4.842   3.920   5.378  0.4172  0.9676  0.5297
  147DOPC  H18S17538   5.001   3.846   5.446 -0.9635 -0.7705  0.0372
  147DOPC  H18T17539   4.981   4.016   5.427  0.4380 -0.0698  0.1516
  147DOPC   C3317540   4.484   4.259   6.608  0.2759 -0.4720  0.2026
  147DOPC   H3X17541   4.375   4.237   6.599 -0.2975  1.2673  2.0947
  147DOPC   H3Y17542   4.541   4.179   6.660  1.4793  0.9380  1.1247
  147DOPC   C3417543   4.532   4.262   6.458 -0.1219 -0.0443  0.2551
  147DOPC   H4X17544   4.464   4.323   6.396 -0.1929 -1.1375 -0.7659
  147DOPC   H4Y17545   4.517   4.162   6.412  1.8027 -0.2126 -0.0948
  147DOPC   C3517546   4.678   4.318   6.431 -0.5193 -0.1307  0.3392
  147DOPC   H5X17547   4.749   4.266   6.498 -0.0629 -1.2332 -0.9532
  147DOPC   H5Y17548   4.671   4.421   6.471  0.9676  0.9527 -1.9588
  147DOPC   C3617549   4.720   4.322   6.285 -0.1210  0.4674  0.2004
  147DOPC   H6X17550   4.689   4.223   6.244  2.3938 -0.8315  1.2431
  147DOPC   H6Y17551   4.676   4.401   6.220  1.4999 -0.8451 -2.6740
  147DOPC   C3717552   4.873   4.331   6.257  0.7916 -0.2840  0.1062
  147DOPC   H7X17553   4.914   4.409   6.325  0.2967  2.1699 -2.2389
  147DOPC   H7Y17554   4.920   4.233   6.281 -0.9131 -1.0330  0.5015
  147DOPC   C3817555   4.899   4.376   6.111  0.2141  0.4739 -0.0255
  147DOPC   H8X17556   5.008   4.381   6.095  0.0778  1.1548 -0.8522
  147DOPC   H8Y17557   4.869   4.483   6.113  0.4119  0.6930  5.1946
  147DOPC   C3917558   4.831   4.306   6.002  0.1743 -0.2357 -0.2351
  147DOPC   H9X17559   4.733   4.265   6.031  0.3237  1.2794  2.8145
  147DOPC  C31017560   4.867   4.294   5.875 -0.1896 -0.3842  0.6419
  147DOPC  H10X17561   4.795   4.239   5.813 -1.1934 -1.4733  2.6862
  147DOPC  C31117562   4.989   4.350   5.804  0.2158 -0.3344  0.4500
  147DOPC  H11X17563   5.053   4.266   5.770  0.2151  0.1548 -0.8178
  147DOPC  H11Y17564   5.045   4.420   5.871 -0.5040 -0.4414  1.1770
  147DOPC  C31217565   4.957   4.418   5.671  0.1346 -0.0747  0.1799
  147DOPC  H12X17566   5.034   4.492   5.642  0.5908 -1.0903 -1.3330
  147DOPC  H12Y17567   4.866   4.481   5.675  0.8544  1.2928 -2.5131
  147DOPC  C31317568   4.943   4.318   5.553 -0.3289 -0.7328 -0.4202
  147DOPC  H13X17569   5.039   4.264   5.538  0.2455 -0.1326  1.0071
  147DOPC  H13Y17570   4.870   4.239   5.578  0.7112 -1.3140  0.8991
  147DOPC  C31417571   4.906   4.393   5.432 -0.9099 -0.6081  0.2186
  147DOPC  H14X17572   4.809   4.441   5.459 -0.7329 -0.4561  0.5824
  147DOPC  H14Y17573   4.975   4.479   5.417 -0.4869 -0.8865  0.5705
  147DOPC  C31517574   4.908   4.321   5.291 -0.7961 -0.6676 -0.0457
  147DOPC  H15X17575   5.007   4.271   5.280 -0.1831  0.1196  1.5634
  147DOPC  H15Y17576   4.900   4.403   5.216  1.1241 -0.1345  0.2793
  147DOPC  C31617577   4.795   4.226   5.288  0.2482 -0.2806  0.6011
  147DOPC  H16X17578   4.814   4.175   5.191  0.7976 -1.7312  1.4314
  147DOPC  H16Y17579   4.793   4.159   5.377  0.4021  1.0319  1.6285
  147DOPC  C31717580   4.645   4.273   5.281  0.6815  0.0054 -0.5130
  147DOPC  H17X17581   4.631   4.311   5.384  1.1444 -1.0897 -0.0333
  147DOPC  H17Y17582   4.629   4.368   5.225 -0.3480  0.2479  0.1767
  147DOPC  C31817583   4.537   4.166   5.263  0.0419  0.2124 -0.3307
  147DOPC  H18X17584   4.558   4.078   5.327  1.4053 -0.1524 -1.2409
  147DOPC  H18Y17585   4.434   4.202   5.286 -0.0869 -1.1707  1.4012
  147DOPC  H18Z17586   4.539   4.132   5.157  0.5042  0.7152 -0.4874
  148DOPC     N17587   2.904   5.905   6.991 -0.0239 -0.0676 -0.2148
  148DOPC   C1217588   2.920   5.980   6.863  0.3476 -0.0709 -0.1360
  148DOPC  H12A17589   3.009   6.040   6.868  0.0998  0.5032 -2.0749
  148DOPC  H12B17590   2.838   6.048   6.850  1.9138  1.9301  0.0281
  148DOPC   C1317591   2.880   6.007   7.096 -0.6160 -0.1948 -0.3039
  148DOPC  H13A17592   2.855   5.965   7.192  0.2832 -1.0995 -0.4600
  148DOPC  H13B17593   2.961   6.074   7.121  0.0205 -1.8195  2.3493
  148DOPC  H13C17594   2.796   6.070   7.068  0.5526  1.9510  0.7256
  148DOPC   C1417595   3.034   5.827   7.022  0.1475 -0.0563  0.0733
  148DOPC  H14A17596   3.059   5.756   6.944  0.0550  1.4201 -1.3418
  148DOPC  H14B17597   3.121   5.885   7.048  1.6821 -2.9267  1.8538
  148DOPC  H14C17598   3.010   5.772   7.112  0.2996  0.9262  0.7197
  148DOPC   C1517599   2.782   5.811   6.992 -0.2958  0.1749 -0.1640
  148DOPC  H15A17600   2.687   5.861   7.004 -0.5324 -0.2393 -0.3214
  148DOPC  H15B17601   2.792   5.736   7.069 -1.8817  0.2601  0.1567
  148DOPC  H15C17602   2.784   5.756   6.899 -0.4742  1.4692 -0.9566
  148DOPC   C1117603   2.938   5.887   6.740 -0.2727 -0.5511 -0.4981
  148DOPC  H11A17604   2.955   5.956   6.654 -0.3912 -0.2490 -0.2823
  148DOPC  H11B17605   3.030   5.826   6.749  0.4153  0.6099  0.8813
  148DOPC     P17606   2.708   5.870   6.639  0.1535  0.0216 -0.0620
  148DOPC   O1317607   2.682   6.008   6.684  0.0025 -0.0214 -0.1658
  148DOPC   O1417608   2.591   5.774   6.653 -0.1329 -0.3399 -0.3414
  148DOPC   O1217609   2.833   5.803   6.720  0.5083  0.3426  0.1538
  148DOPC   O1117610   2.755   5.867   6.490  0.0275 -0.0510 -0.0498
  148DOPC    C117611   2.842   5.761   6.454 -0.0922 -0.3736  0.5433
  148DOPC    HA17612   2.806   5.667   6.500 -2.2952 -0.5035 -1.2615
  148DOPC    HB17613   2.945   5.791   6.482 -0.3308  1.2907 -0.1934
  148DOPC    C217614   2.846   5.736   6.296 -0.1672 -0.0933  0.5931
  148DOPC    HS17615   2.743   5.708   6.266 -0.0515 -0.2223  0.3175
  148DOPC   O2117616   2.942   5.636   6.266 -0.1645  0.0167 -0.1941
  148DOPC   C2117617   2.908   5.513   6.309 -0.3886 -0.5317  0.6380
  148DOPC   O2217618   2.800   5.487   6.362 -0.6920 -0.3217 -0.4868
  148DOPC   C2217619   3.030   5.414   6.282  0.8970  0.0088  0.6814
  148DOPC   H2R17620   3.117   5.444   6.345  0.8260 -0.4932  1.0206
  148DOPC   H2S17621   3.056   5.431   6.175 -0.1031 -1.0561  0.2567
  148DOPC    C317622   2.898   5.869   6.232 -0.1245 -1.0885  0.6536
  148DOPC    HX17623   2.999   5.890   6.273 -0.1033 -0.4134  0.2787
  148DOPC    HY17624   2.836   5.954   6.270  1.0882  0.3157 -0.3709
  148DOPC   O3117625   2.912   5.861   6.088  0.4113  0.0448 -0.4599
  148DOPC   C3117626   2.806   5.891   6.012  0.3617  0.2537 -0.6820
  148DOPC   O3217627   2.706   5.945   6.055 -0.0127  0.1133  0.7762
  148DOPC   C3217628   2.828   5.848   5.869 -0.2255  0.1061  0.5065
  148DOPC   H2X17629   2.744   5.882   5.805  0.2808  0.8626  0.2326
  148DOPC   H2Y17630   2.910   5.911   5.829  0.6010 -0.2423  1.6048
  148DOPC   C2317631   2.994   5.272   6.310  0.4433  0.0659 -0.2466
  148DOPC   H3R17632   2.920   5.235   6.236 -0.4437 -2.5281  1.7875
  148DOPC   H3S17633   2.962   5.246   6.413  2.5920 -0.2808  0.3829
  148DOPC   C2417634   3.112   5.189   6.272 -0.7483  0.3666  0.4412
  148DOPC   H4R17635   3.093   5.085   6.306  1.9307 -1.1442 -2.2264
  148DOPC   H4S17636   3.204   5.235   6.314 -0.2105 -0.6608  0.4127
  148DOPC   C2517637   3.141   5.178   6.118  0.2562 -0.1447  0.0086
  148DOPC   H5R17638   3.169   5.279   6.080 -3.6306  1.6877  1.4625
  148DOPC   H5S17639   3.042   5.157   6.072 -1.5282 -0.7168  3.7606
  148DOPC   C2617640   3.232   5.064   6.082  0.2969  0.5057 -0.0049
  148DOPC   H6R17641   3.309   5.045   6.160 -0.2645 -1.4949  0.1275
  148DOPC   H6S17642   3.293   5.082   5.991  2.2823 -2.7364  0.5361
  148DOPC   C2717643   3.161   4.930   6.057 -0.1221  0.3819 -0.0406
  148DOPC   H7R17644   3.080   4.936   5.981 -1.2858 -1.6530  0.9272
  148DOPC   H7S17645   3.099   4.907   6.146 -0.1874  1.6967  0.2607
  148DOPC   C2817646   3.255   4.820   6.011  0.7178  0.1941  0.0767
  148DOPC   H8R17647   3.322   4.860   5.933 -1.0110 -1.1060 -2.2016
  148DOPC   H8S17648   3.201   4.734   5.966  0.9688  0.0991 -0.0405
  148DOPC   C2917649   3.327   4.766   6.140  0.4288 -0.2972  0.4461
  148DOPC   H9R17650   3.270   4.789   6.231 -0.4995 -1.9097  0.2915
  148DOPC  C21017651   3.439   4.697   6.146 -0.4454 -0.6144 -0.7984
  148DOPC  H10R17652   3.472   4.658   6.244  0.4625 -0.2841 -0.9603
  148DOPC  C21117653   3.519   4.655   6.028 -0.2832 -0.2300 -0.0644
  148DOPC  H11R17654   3.479   4.688   5.929 -0.0944 -2.4437 -0.9319
  148DOPC  H11S17655   3.525   4.545   6.021  1.7766 -0.0674 -3.1542
  148DOPC  C21217656   3.672   4.691   6.028 -0.4932  0.7321  0.1226
  148DOPC  H12R17657   3.707   4.659   6.129  0.0415  0.9708  0.0130
  148DOPC  H12S17658   3.688   4.800   6.022 -0.8626  0.8028  0.3672
  148DOPC  C21317659   3.759   4.617   5.916  0.9143  0.3516  0.2833
  148DOPC  H13R17660   3.722   4.652   5.817  0.3510  1.9431  1.0131
  148DOPC  H13S17661   3.755   4.506   5.921  1.3783  0.3523  0.7639
  148DOPC  C21417662   3.907   4.663   5.923 -0.2998  0.4263  0.4407
  148DOPC  H14R17663   3.945   4.650   6.027 -2.0270 -0.1237  1.0563
  148DOPC  H14S17664   3.908   4.770   5.893 -1.1572 -0.3888 -2.8343
  148DOPC  C21517665   3.989   4.578   5.825 -0.0636 -0.5037 -0.4488
  148DOPC  H15R17666   3.985   4.475   5.866 -0.9390  0.0642  0.9613
  148DOPC  H15S17667   4.091   4.615   5.803 -0.4608  1.3045  0.5624
  148DOPC  C21617668   3.917   4.573   5.687  0.1846 -1.0758 -0.0299
  148DOPC  H16R17669   3.903   4.681   5.669 -1.9478 -1.1772  0.7725
  148DOPC  H16S17670   3.819   4.521   5.698 -0.6287  0.5169  0.5410
  148DOPC  C21717671   3.999   4.487   5.584  0.4918 -0.6829 -0.0409
  148DOPC  H17R17672   4.000   4.380   5.615 -1.8433 -1.2609 -1.6082
  148DOPC  H17S17673   4.104   4.521   5.589  0.2826 -0.0182 -0.0116
  148DOPC  C21817674   3.954   4.508   5.438 -0.0530 -0.5840  0.3356
  148DOPC  H18R17675   4.010   4.458   5.357 -2.1127 -1.1461 -0.8031
  148DOPC  H18S17676   3.946   4.616   5.414  0.5389 -0.9174 -1.4853
  148DOPC  H18T17677   3.855   4.461   5.421  1.4230 -3.1748 -1.8764
  148DOPC   C3317678   2.846   5.698   5.846 -0.3892  0.0051 -0.6490
  148DOPC   H3X17679   2.935   5.671   5.907 -1.7578  1.3977  2.1485
  148DOPC   H3Y17680   2.867   5.676   5.739 -0.3214  0.9359 -0.8299
  148DOPC   C3417681   2.722   5.617   5.896  0.3763  0.0143 -0.1923
  148DOPC   H4X17682   2.633   5.652   5.840  2.9490  0.6930 -4.2700
  148DOPC   H4Y17683   2.707   5.613   6.006 -0.3587  1.3350 -0.2310
  148DOPC   C3517684   2.740   5.473   5.856 -0.4153 -0.1958 -0.9033
  148DOPC   H5X17685   2.848   5.447   5.856 -0.6893 -1.5191  1.3933
  148DOPC   H5Y17686   2.710   5.466   5.749 -1.9900 -0.3446 -0.4875
  148DOPC   C3617687   2.657   5.370   5.936  0.2892  0.6081  0.5365
  148DOPC   H6X17688   2.688   5.382   6.042  0.9267  1.0644  0.3018
  148DOPC   H6Y17689   2.548   5.388   5.923  0.3823  0.6415 -0.2114
  148DOPC   C3717690   2.673   5.221   5.885  0.3562 -0.1647 -0.4715
  148DOPC   H7X17691   2.632   5.211   5.783 -2.7032  0.7663  0.5531
  148DOPC   H7Y17692   2.778   5.189   5.874  1.0493  1.5246  0.7421
  148DOPC   C3817693   2.580   5.118   5.971  0.8251 -0.5030  0.1633
  148DOPC   H8X17694   2.575   5.034   5.899  1.1192  0.2124 -0.7016
  148DOPC   H8Y17695   2.474   5.150   5.976  0.6085 -0.3950 -3.0767
  148DOPC   C3917696   2.652   5.085   6.105 -0.0969  0.6227 -0.1500
  148DOPC   H9X17697   2.668   5.168   6.174 -3.2310  1.3433 -0.1469
  148DOPC  C31017698   2.696   4.962   6.133 -0.5541  0.2343 -0.1341
  148DOPC  H10X17699   2.734   4.942   6.235 -2.7662  0.9453  0.8906
  148DOPC  C31117700   2.688   4.843   6.044  0.0935 -1.2853  0.0189
  148DOPC  H11X17701   2.595   4.848   5.982  0.6135 -0.5890 -0.7233
  148DOPC  H11Y17702   2.687   4.756   6.113  1.4800 -0.9216  0.5311
  148DOPC  C31217703   2.813   4.835   5.956  0.1863 -0.7218 -0.3178
  148DOPC  H12X17704   2.891   4.837   6.036 -0.9882  2.6780  0.9076
  148DOPC  H12Y17705   2.831   4.924   5.893  2.8158 -2.7793 -2.7270
  148DOPC  C31317706   2.814   4.712   5.867  0.1174  0.2727  0.4816
  148DOPC  H13X17707   2.814   4.623   5.934 -3.3155  0.5095  0.9466
  148DOPC  H13Y17708   2.724   4.705   5.803  1.3391  1.7077 -1.5351
  148DOPC  C31417709   2.943   4.718   5.774  0.5413  0.0452  0.2363
  148DOPC  H14X17710   2.950   4.812   5.715  1.0523 -0.4384 -0.4991
  148DOPC  H14Y17711   3.019   4.718   5.855 -0.9389  0.5779  1.6936
  148DOPC  C31517712   2.951   4.593   5.687  0.1561 -0.8776  0.2774
  148DOPC  H15X17713   2.943   4.496   5.741  1.7041 -2.1228 -1.5297
  148DOPC  H15Y17714   3.043   4.592   5.623 -1.5490 -0.6605 -2.3232
  148DOPC  C31617715   2.840   4.569   5.580 -0.3493  0.2635  0.0499
  148DOPC  H16X17716   2.740   4.592   5.624 -1.3929 -2.7491 -0.5246
  148DOPC  H16Y17717   2.876   4.644   5.507  0.2538  0.5605  0.6407
  148DOPC  C31717718   2.847   4.426   5.517 -0.2694  0.0535  0.0971
  148DOPC  H17X17719   2.950   4.397   5.487 -1.0506 -1.0679 -1.6324
  148DOPC  H17Y17720   2.821   4.353   5.596  0.7152  2.6156  3.0000
  148DOPC  C31817721   2.761   4.415   5.391  0.1038 -0.3155 -0.7398
  148DOPC  H18X17722   2.767   4.504   5.326 -0.3263 -0.0057 -0.3687
  148DOPC  H18Y17723   2.805   4.332   5.331  0.4457 -1.8237  1.4587
  148DOPC  H18Z17724   2.652   4.407   5.412  0.3114  0.3484  0.7365
  149DOPC     N17725   3.176   3.441   7.449  0.4939  0.1308  0.0454
  149DOPC   C1217726   3.199   3.305   7.395 -0.0580  0.3060  0.3176
  149DOPC  H12A17727   3.230   3.308   7.291 -0.8761 -2.9655 -0.1290
  149DOPC  H12B17728   3.103   3.256   7.393  0.1673 -0.1443 -0.5120
  149DOPC   C1317729   3.084   3.512   7.357 -0.1424  0.2663 -0.5656
  149DOPC  H13A17730   3.069   3.608   7.404 -1.1049 -0.9107  1.7427
  149DOPC  H13B17731   3.129   3.523   7.260  1.8008 -1.9972  0.0004
  149DOPC  H13C17732   2.986   3.467   7.356 -1.3397  2.2566  3.4716
  149DOPC   C1417733   3.311   3.508   7.442 -0.6986  0.2885  0.4659
  149DOPC  H14A17734   3.316   3.591   7.511  2.0845  0.2967  0.3653
  149DOPC  H14B17735   3.392   3.439   7.458 -0.8434 -0.0213 -0.1216
  149DOPC  H14C17736   3.332   3.542   7.342 -1.7841 -1.0624 -0.2477
  149DOPC   C1517737   3.125   3.435   7.585 -0.1999 -0.2342 -0.0271
  149DOPC  H15A17738   3.036   3.374   7.592 -1.2076  1.2368  0.3507
  149DOPC  H15B17739   3.087   3.528   7.624  0.2064  0.4797 -1.2706
  149DOPC  H15C17740   3.201   3.403   7.655 -0.3067  1.1394  0.7467
  149DOPC   C1117741   3.303   3.220   7.469 -0.0984 -0.4955  0.0859
  149DOPC  H11A17742   3.273   3.219   7.577  0.5720 -1.5139  0.2677
  149DOPC  H11B17743   3.277   3.116   7.440  0.7942 -0.2639 -1.6685
  149DOPC     P17744   3.513   3.209   7.325  0.3470  0.1037  0.4217
  149DOPC   O1317745   3.557   3.075   7.357  0.0897  1.0390  0.2804
  149DOPC   O1417746   3.619   3.308   7.292  0.0458 -0.6597  0.0657
  149DOPC   O1217747   3.442   3.260   7.452  0.3653  0.0394  0.1333
  149DOPC   O1117748   3.399   3.218   7.214 -0.4306  0.6761  0.1016
  149DOPC    C117749   3.376   3.102   7.127  0.2148 -0.1558  0.5724
  149DOPC    HA17750   3.268   3.085   7.111  0.3733 -1.8359  1.1275
  149DOPC    HB17751   3.405   3.006   7.174 -2.8178 -0.1347  2.8043
  149DOPC    C217752   3.449   3.103   6.987 -0.1651  0.0680 -0.3426
  149DOPC    HS17753   3.556   3.109   7.016 -0.2510 -0.2784  0.0626
  149DOPC   O2117754   3.404   3.216   6.908 -0.4455 -0.1155 -0.0585
  149DOPC   C2117755   3.510   3.273   6.838 -0.5232  0.7111  0.3130
  149DOPC   O2217756   3.632   3.249   6.856  0.3063  0.1575 -0.0651
  149DOPC   C2217757   3.459   3.383   6.739  0.3200 -0.4806  0.6060
  149DOPC   H2R17758   3.526   3.380   6.650 -1.0232 -1.7022 -0.4098
  149DOPC   H2S17759   3.471   3.482   6.788 -0.4191 -0.1792  0.1939
  149DOPC    C317760   3.424   2.964   6.910  0.5930 -0.4741 -0.0990
  149DOPC    HX17761   3.316   2.977   6.887  0.6766 -0.4014 -0.4584
  149DOPC    HY17762   3.441   2.871   6.968 -0.7918 -1.5279 -1.3187
  149DOPC   O3117763   3.498   2.961   6.785 -0.0560 -0.5367 -0.7921
  149DOPC   C3117764   3.625   2.912   6.799 -0.1664  0.1068 -0.2282
  149DOPC   O3217765   3.679   2.884   6.905  0.0483  0.2561 -0.1971
  149DOPC   C3217766   3.699   2.901   6.667  0.1845  0.2954  0.0015
  149DOPC   H2X17767   3.806   2.896   6.697 -0.0143  0.5215  0.7616
  149DOPC   H2Y17768   3.677   2.799   6.628 -0.6720  1.0471 -1.6199
  149DOPC   C2317769   3.315   3.345   6.686 -0.6054 -0.4284 -0.0114
  149DOPC   H3R17770   3.281   3.434   6.628  3.0597  1.1789  0.0146
  149DOPC   H3S17771   3.252   3.338   6.777  0.6872  0.2890  0.9685
  149DOPC   C2417772   3.313   3.216   6.601 -0.3402 -0.2013 -0.6804
  149DOPC   H4R17773   3.366   3.143   6.665  0.9863  1.1026 -0.2323
  149DOPC   H4S17774   3.373   3.231   6.509 -0.3312  1.1243 -0.4780
  149DOPC   C2517775   3.175   3.163   6.557 -0.7532  0.5237 -0.6103
  149DOPC   H5R17776   3.118   3.245   6.507  2.2617  2.0570 -1.7363
  149DOPC   H5S17777   3.105   3.154   6.643 -0.7060  2.2667 -0.3627
  149DOPC   C2617778   3.181   3.039   6.474  0.4071  0.5260  0.0512
  149DOPC   H6R17779   3.233   2.958   6.529 -1.0389 -0.9911 -0.7231
  149DOPC   H6S17780   3.227   3.068   6.378  0.6878 -0.5201 -0.1360
  149DOPC   C2717781   3.045   2.976   6.428 -0.3017  0.1663 -0.1711
  149DOPC   H7R17782   2.976   3.046   6.378 -0.7831  0.2647  0.6102
  149DOPC   H7S17783   3.003   2.926   6.519  0.9249 -0.5063  0.0426
  149DOPC   C2817784   3.071   2.857   6.325 -0.3791 -0.6353  0.2192
  149DOPC   H8R17785   2.987   2.785   6.318  1.2778 -2.5791 -0.7544
  149DOPC   H8S17786   3.162   2.808   6.365  0.0073 -0.1205 -0.0060
  149DOPC   C2917787   3.107   2.913   6.187  0.5239 -0.2115 -0.3028
  149DOPC   H9R17788   3.153   3.013   6.184 -0.4363  0.2424 -0.1634
  149DOPC  C21017789   3.086   2.849   6.071 -0.0369 -0.3620  0.0731
  149DOPC  H10R17790   3.109   2.906   5.980  2.1781  1.8835  1.9250
  149DOPC  C21117791   3.029   2.719   6.046  0.6076 -0.0246  0.2880
  149DOPC  H11R17792   2.961   2.714   5.958  0.9463 -1.9266  0.1054
  149DOPC  H11S17793   2.957   2.706   6.129  1.7749  1.3499  1.5788
  149DOPC  C21217794   3.137   2.610   6.027  0.0170  0.2438  0.0962
  149DOPC  H12R17795   3.202   2.633   5.940  0.3244 -0.7353  0.0527
  149DOPC  H12S17796   3.081   2.515   6.008 -0.1701  0.0450  1.4861
  149DOPC  C21317797   3.224   2.590   6.160 -0.5530 -0.5102  0.2482
  149DOPC  H13R17798   3.161   2.578   6.251 -0.8964  0.3609  0.1339
  149DOPC  H13S17799   3.284   2.684   6.167  1.0118 -1.4126 -0.5150
  149DOPC  C21417800   3.319   2.469   6.153  0.4695 -0.4957  0.2058
  149DOPC  H14R17801   3.260   2.375   6.157  2.3484 -1.7377  0.2210
  149DOPC  H14S17802   3.385   2.469   6.243  1.2225  0.5558 -0.3273
  149DOPC  C21517803   3.412   2.469   6.029  0.6407  0.3820 -0.0065
  149DOPC  H15R17804   3.460   2.568   6.017 -1.2149  1.2767 -0.2753
  149DOPC  H15S17805   3.365   2.441   5.933 -0.0371  1.3843  0.0178
  149DOPC  C21617806   3.518   2.356   6.040  0.0001  0.4069 -0.2612
  149DOPC  H16R17807   3.474   2.256   6.026 -1.9808  1.0214  1.1224
  149DOPC  H16S17808   3.557   2.354   6.144 -2.5543 -0.5984  0.7381
  149DOPC  C21717809   3.627   2.372   5.935 -0.1309  0.1900 -0.3251
  149DOPC  H17R17810   3.720   2.326   5.974  0.2419  2.0850  1.2272
  149DOPC  H17S17811   3.648   2.480   5.915  0.8272  0.1928  0.5795
  149DOPC  C21817812   3.591   2.306   5.799  0.0449  0.5711  0.0737
  149DOPC  H18R17813   3.598   2.197   5.818  0.1707  0.7806  1.3553
  149DOPC  H18S17814   3.671   2.323   5.724  0.0983 -1.7674 -0.4668
  149DOPC  H18T17815   3.495   2.345   5.761  0.9998  1.8088 -1.1849
  149DOPC   C3317816   3.667   2.999   6.553  1.0172  0.4179 -0.4463
  149DOPC   H3X17817   3.766   3.026   6.511  2.0091 -0.4718  1.1955
  149DOPC   H3Y17818   3.618   3.096   6.577 -1.7780 -0.9057 -0.4876
  149DOPC   C3417819   3.588   2.930   6.432 -0.0558  0.8114 -0.3775
  149DOPC   H4X17820   3.494   2.880   6.465  1.2128 -1.7710 -0.4022
  149DOPC   H4Y17821   3.649   2.847   6.390 -1.8480 -1.0419  0.4953
  149DOPC   C3517822   3.559   3.036   6.331 -0.0750 -0.2838  0.0413
  149DOPC   H5X17823   3.652   3.092   6.305 -1.3750  1.5895 -0.7882
  149DOPC   H5Y17824   3.497   3.116   6.377 -0.5645 -0.0655 -0.9672
  149DOPC   C3617825   3.487   2.998   6.206  0.5236 -0.2496  0.7075
  149DOPC   H6X17826   3.546   2.917   6.158 -0.6340 -0.7772  0.1333
  149DOPC   H6Y17827   3.382   2.970   6.229 -0.6136  1.5155 -1.8051
  149DOPC   C3717828   3.464   3.119   6.116 -0.4073  0.3102  0.5164
  149DOPC   H7X17829   3.387   3.181   6.167  1.3052  0.9684  2.4479
  149DOPC   H7Y17830   3.551   3.188   6.116 -0.6912  0.6849 -0.4566
  149DOPC   C3817831   3.423   3.083   5.968 -0.2908 -1.0161  0.2311
  149DOPC   H8X17832   3.356   2.995   5.980  0.8011 -2.0894 -1.1957
  149DOPC   H8Y17833   3.504   3.035   5.909  1.0796  0.0519  1.1478
  149DOPC   C3917834   3.350   3.205   5.909 -0.5059 -0.0566 -0.3456
  149DOPC   H9X17835   3.257   3.228   5.963  0.0220  0.0251  0.5384
  149DOPC  C31017836   3.389   3.285   5.805  0.1272 -0.0315  0.0016
  149DOPC  H10X17837   3.311   3.358   5.779 -1.5355 -1.4639  0.7675
  149DOPC  C31117838   3.513   3.283   5.720  0.0026  0.0906  0.2205
  149DOPC  H11X17839   3.573   3.192   5.742 -0.7316 -0.6273 -0.6802
  149DOPC  H11Y17840   3.574   3.375   5.731 -0.1744  0.1212  1.0184
  149DOPC  C31217841   3.488   3.269   5.564 -0.2219  0.0350  0.6394
  149DOPC  H12X17842   3.421   3.353   5.536 -1.3775 -1.4003 -1.1993
  149DOPC  H12Y17843   3.430   3.180   5.530 -1.2702  0.4516  1.2857
  149DOPC  C31317844   3.619   3.284   5.474  0.0562  0.5473 -0.1885
  149DOPC  H13X17845   3.660   3.388   5.475  0.4002  0.4219 -0.9643
  149DOPC  H13Y17846   3.699   3.225   5.524 -0.5870  0.1127  0.3466
  149DOPC  C31417847   3.601   3.232   5.328 -0.2289  0.4109  0.7331
  149DOPC  H14X17848   3.548   3.134   5.331  0.2732  0.0365 -1.3779
  149DOPC  H14Y17849   3.549   3.304   5.262  1.0016 -0.8220 -1.7062
  149DOPC  C31517850   3.740   3.191   5.266 -0.0322 -0.7411  0.4620
  149DOPC  H15X17851   3.794   3.121   5.333 -0.4520  0.2422  1.8472
  149DOPC  H15Y17852   3.812   3.276   5.271 -0.4658 -0.4363  1.9679
  149DOPC  C31617853   3.724   3.131   5.122  0.4411  0.0565 -0.1671
  149DOPC  H16X17854   3.829   3.120   5.088  1.6023  3.6711  1.6448
  149DOPC  H16Y17855   3.681   3.029   5.126  1.8502 -0.5277  1.2614
  149DOPC  C31717856   3.646   3.236   5.034  0.1459  0.1907 -0.2180
  149DOPC  H17X17857   3.540   3.221   5.061  0.0485  0.2815 -0.5441
  149DOPC  H17Y17858   3.678   3.336   5.071 -0.4471  0.6206 -0.8569
  149DOPC  C31817859   3.663   3.231   4.883  0.4146 -0.9707  0.0680
  149DOPC  H18X17860   3.611   3.311   4.826 -0.2001  0.5056  2.5538
  149DOPC  H18Y17861   3.770   3.234   4.853  0.0595  2.6345 -1.3747
  149DOPC  H18Z17862   3.617   3.141   4.836 -0.6834  0.0757 -0.9288
  150DOPC     N17863   0.151   5.063   7.114 -0.0633 -0.3131 -0.2430
  150DOPC   C1217864   0.226   5.123   6.996  0.1064  0.0285  0.6681
  150DOPC  H12A17865   0.270   5.037   6.947 -3.6275 -2.1236  0.7590
  150DOPC  H12B17866   0.308   5.185   7.030  0.6002  0.1670 -0.7187
  150DOPC   C1317867   0.083   5.162   7.200  0.1400 -0.1450 -0.3232
  150DOPC  H13A17868   0.023   5.102   7.267  2.8533 -2.3925  0.3016
  150DOPC  H13B17869   0.140   5.222   7.269  1.2789  0.3676 -1.6681
  150DOPC  H13C17870   0.022   5.226   7.138  2.8070  0.5891 -2.3909
  150DOPC   C1417871   0.249   4.980   7.194  0.7573 -0.1087 -0.4079
  150DOPC  H14A17872   0.199   4.933   7.277  0.0198 -0.0417 -0.8002
  150DOPC  H14B17873   0.295   4.895   7.144  0.0348  0.2622 -1.7636
  150DOPC  H14C17874   0.326   5.038   7.242 -0.6578  1.5863 -0.0947
  150DOPC   C1517875   0.044   4.973   7.074  0.1587  0.1978  0.1523
  150DOPC  H15A17876  -0.028   5.038   7.027 -0.6083 -0.8683 -0.1820
  150DOPC  H15B17877   0.000   4.922   7.159  1.8244  0.7596  1.4185
  150DOPC  H15C17878   0.073   4.887   7.016 -0.1462 -0.1622  0.5275
  150DOPC   C1117879   0.153   5.206   6.894 -0.1840 -0.2060 -1.0789
  150DOPC  H11A17880   0.221   5.220   6.808  3.1269 -1.4248  1.1245
  150DOPC  H11B17881   0.074   5.145   6.845 -0.6081  0.4110 -1.1766
  150DOPC     P17882   0.176   5.455   6.966 -0.0753 -0.2001 -0.8533
  150DOPC   O1317883   0.325   5.424   6.963  0.2561 -0.1024 -0.2652
  150DOPC   O1417884   0.130   5.523   7.090  0.3619  0.5791 -0.0365
  150DOPC   O1217885   0.089   5.325   6.945  0.3231 -0.3932 -0.2909
  150DOPC   O1117886   0.146   5.531   6.838  0.1384  0.3944  0.2750
  150DOPC    C117887   0.056   5.641   6.834  0.0549  0.2105 -0.5260
  150DOPC    HA17888   0.117   5.732   6.817  0.8820 -0.5784 -1.9272
  150DOPC    HB17889  -0.014   5.648   6.920  1.2230 -0.9641  0.5654
  150DOPC    C217890  -0.042   5.624   6.711 -0.2759  0.4140 -0.5393
  150DOPC    HS17891  -0.120   5.552   6.743  0.2014  0.5179  0.9100
  150DOPC   O2117892   0.030   5.578   6.591 -0.7811  0.7104 -0.3701
  150DOPC   C2117893   0.008   5.462   6.541 -0.5845  0.5675 -0.0891
  150DOPC   O2217894  -0.069   5.374   6.582 -0.4240 -0.1170  0.2817
  150DOPC   C2217895   0.073   5.453   6.403  0.4431  0.3862 -0.2605
  150DOPC   H2R17896   0.150   5.372   6.411  0.5271  0.3912 -1.0042
  150DOPC   H2S17897   0.118   5.547   6.366  1.2115 -0.1495 -0.7083
  150DOPC    C317898  -0.096   5.772   6.686  0.5474 -0.0152  0.2638
  150DOPC    HX17899  -0.010   5.840   6.669  0.6960 -0.0719  0.7790
  150DOPC    HY17900  -0.145   5.797   6.783  1.5978 -0.7947  1.0156
  150DOPC   O3117901  -0.177   5.759   6.573  0.4669  0.7895 -0.0081
  150DOPC   C3117902  -0.287   5.841   6.566  0.3718 -0.2390 -0.3017
  150DOPC   O3217903  -0.314   5.921   6.656 -0.4720  0.0680 -0.4071
  150DOPC   C3217904  -0.365   5.834   6.433  0.0055  0.3203  0.7450
  150DOPC   H2X17905  -0.474   5.845   6.451 -0.3008 -1.2572  0.0561
  150DOPC   H2Y17906  -0.339   5.926   6.377 -1.5704  0.0025 -0.6166
  150DOPC   C2317907  -0.029   5.398   6.296 -0.0712  0.0947  1.2231
  150DOPC   H3R17908  -0.097   5.484   6.280 -2.1426 -1.2563  2.3451
  150DOPC   H3S17909  -0.090   5.317   6.341  1.1433  0.1922  3.1730
  150DOPC   C2417910   0.039   5.358   6.168  0.6927  0.7312 -0.1876
  150DOPC   H4R17911   0.095   5.262   6.172  0.9786  0.9496  2.9505
  150DOPC   H4S17912   0.105   5.437   6.125  0.7382 -0.5339 -2.6866
  150DOPC   C2517913  -0.064   5.328   6.065 -0.1611 -0.0273 -0.0384
  150DOPC   H5R17914  -0.135   5.414   6.062  1.0070  1.0029  0.9801
  150DOPC   H5S17915  -0.129   5.241   6.090  0.7773 -1.7504 -3.1086
  150DOPC   C2617916  -0.001   5.280   5.928  0.1885 -0.4192  0.1926
  150DOPC   H6R17917   0.047   5.183   5.956  2.1019  0.3739 -0.1691
  150DOPC   H6S17918   0.073   5.357   5.897 -0.6251  0.2658 -0.0538
  150DOPC   C2717919  -0.100   5.242   5.820  0.3933  0.5794 -0.1016
  150DOPC   H7R17920  -0.157   5.335   5.798  0.6751  0.9373  0.6700
  150DOPC   H7S17921  -0.168   5.170   5.870  0.9477  1.1097  1.4875
  150DOPC   C2817922  -0.022   5.174   5.693  0.5779 -0.0107 -1.0640
  150DOPC   H8R17923  -0.105   5.141   5.627 -0.6291  0.8922 -0.0615
  150DOPC   H8S17924   0.035   5.086   5.727  1.4335  0.2213 -1.8424
  150DOPC   C2917925   0.066   5.271   5.621 -0.3485 -0.3794 -0.1913
  150DOPC   H9R17926   0.155   5.304   5.676  0.2196  0.3115 -1.4981
  150DOPC  C21017927   0.051   5.315   5.489  0.1761  0.1774  0.1921
  150DOPC  H10R17928   0.118   5.394   5.451  0.2068  0.9143  1.7067
  150DOPC  C21117929  -0.063   5.281   5.392  0.2479  0.3268  0.2263
  150DOPC  H11R17930  -0.138   5.211   5.434 -0.1540  0.4202 -0.3252
  150DOPC  H11S17931  -0.038   5.240   5.292 -1.0528  0.1164 -0.0343
  150DOPC  C21217932  -0.145   5.414   5.362  0.1386  0.0004  0.4017
  150DOPC  H12R17933  -0.167   5.471   5.454 -1.4637 -0.2479  0.1882
  150DOPC  H12S17934  -0.246   5.390   5.323 -0.1079 -1.5711  1.9261
  150DOPC  C21317935  -0.072   5.502   5.263 -0.2758  0.2821  0.4102
  150DOPC  H13R17936   0.034   5.518   5.290 -0.0005  0.0997 -0.5287
  150DOPC  H13S17937  -0.120   5.601   5.244  0.2061  0.5386  0.5331
  150DOPC  C21417938  -0.062   5.442   5.123  0.8782  0.2123  0.0359
  150DOPC  H14R17939  -0.156   5.387   5.100  2.8684 -2.9734 -1.0528
  150DOPC  H14S17940   0.035   5.390   5.107  0.5137  0.2167 -2.7419
  150DOPC  C21517941  -0.059   5.561   5.022  0.5462  0.6836 -0.2963
  150DOPC  H15R17942  -0.149   5.627   5.022  0.8917  1.2037 -2.0062
  150DOPC  H15S17943  -0.062   5.505   4.926  1.2655 -0.1067  0.1340
  150DOPC  C21617944   0.063   5.650   5.035  0.4091  1.1013 -0.8386
  150DOPC  H16R17945   0.165   5.605   5.036 -0.0047  0.1450 -0.1811
  150DOPC  H16S17946   0.042   5.718   5.120 -0.6838 -1.0563  0.7073
  150DOPC  C21717947   0.071   5.743   4.915  0.3978 -0.1893 -0.2865
  150DOPC  H17R17948  -0.032   5.784   4.903  0.6343  0.2722 -0.8033
  150DOPC  H17S17949   0.089   5.693   4.818  0.2950  0.9907 -0.9414
  150DOPC  C21817950   0.165   5.853   4.942  0.3140 -0.0469 -0.3327
  150DOPC  H18R17951   0.165   5.926   4.858  0.5374  1.0880  0.6210
  150DOPC  H18S17952   0.264   5.803   4.937  0.7593  0.7460  0.2959
  150DOPC  H18T17953   0.157   5.903   5.041 -1.0696  3.5076 -2.0723
  150DOPC   C3317954  -0.338   5.711   6.345  0.0387  0.8358 -0.1900
  150DOPC   H3X17955  -0.400   5.624   6.374  1.4076  0.6033  2.3130
  150DOPC   H3Y17956  -0.231   5.681   6.342 -0.1504 -0.0983  1.2003
  150DOPC   C3417957  -0.370   5.753   6.204  0.5430  0.0151 -0.1255
  150DOPC   H4X17958  -0.301   5.831   6.167  0.5093 -0.5836 -1.5050
  150DOPC   H4Y17959  -0.476   5.787   6.203 -0.2823 -2.0807 -3.7380
  150DOPC   C3517960  -0.374   5.638   6.104  0.0892 -0.6522  0.1397
  150DOPC   H5X17961  -0.452   5.563   6.129 -0.7212 -0.3810 -1.4341
  150DOPC   H5Y17962  -0.281   5.580   6.084 -0.0873 -0.4787 -1.3088
  150DOPC   C3617963  -0.419   5.696   5.976 -0.3640 -0.1584  0.0441
  150DOPC   H6X17964  -0.517   5.748   5.981 -0.2195  0.1193  0.0033
  150DOPC   H6Y17965  -0.343   5.768   5.940 -0.3512 -0.9029 -1.5234
  150DOPC   C3717966  -0.442   5.588   5.871  0.0240 -0.6858  0.4157
  150DOPC   H7X17967  -0.345   5.535   5.859  1.6873  1.5356  3.0825
  150DOPC   H7Y17968  -0.529   5.528   5.905 -1.1216  0.6841  0.0034
  150DOPC   C3817969  -0.484   5.648   5.733  0.2234 -0.4551  0.2862
  150DOPC   H8X17970  -0.437   5.746   5.708 -0.8089  0.0116  0.1178
  150DOPC   H8Y17971  -0.589   5.679   5.748 -0.0116  0.1785 -2.2111
  150DOPC   C3917972  -0.461   5.550   5.621  0.3883  0.0921 -0.8011
  150DOPC   H9X17973  -0.379   5.478   5.635 -0.4187 -0.9142 -1.0755
  150DOPC  C31017974  -0.528   5.532   5.508  0.2631  0.4521 -0.8481
  150DOPC  H10X17975  -0.502   5.458   5.432 -2.2841 -0.0640 -1.3120
  150DOPC  C31117976  -0.650   5.613   5.464 -0.2222 -0.0286  0.1331
  150DOPC  H11X17977  -0.678   5.688   5.541  0.2552  1.1764 -0.8248
  150DOPC  H11Y17978  -0.738   5.546   5.461 -0.2752  0.0087  0.7423
  150DOPC  C31217979  -0.637   5.680   5.323 -0.1719  0.1495  0.1566
  150DOPC  H12X17980  -0.723   5.748   5.307 -0.0133  0.5554  0.9548
  150DOPC  H12Y17981  -0.632   5.598   5.249  1.2227 -1.3231  1.7935
  150DOPC  C31317982  -0.503   5.755   5.304 -0.1635  0.0510 -0.0227
  150DOPC  H13X17983  -0.493   5.822   5.392 -0.3181  0.3260 -0.2113
  150DOPC  H13Y17984  -0.413   5.690   5.302 -0.3772 -0.3031  1.0646
  150DOPC  C31417985  -0.520   5.838   5.178  0.0191 -0.7488  0.3215
  150DOPC  H14X17986  -0.605   5.908   5.183  0.4099 -0.1634 -0.9691
  150DOPC  H14Y17987  -0.440   5.916   5.179 -0.3288 -0.2029  4.1680
  150DOPC  C31517988  -0.518   5.760   5.049  0.0103 -0.8682  0.1091
  150DOPC  H15X17989  -0.596   5.681   5.042 -1.4007  0.6227 -2.1196
  150DOPC  H15Y17990  -0.424   5.700   5.040 -0.2030 -1.3159  0.7640
  150DOPC  C31617991  -0.513   5.858   4.931  0.6484 -0.2969  1.1612
  150DOPC  H16X17992  -0.595   5.825   4.863 -0.8864  2.0781  1.7657
  150DOPC  H16Y17993  -0.516   5.962   4.969  0.1567  1.0092 -2.1002
  150DOPC  C31717994  -0.382   5.846   4.849  0.8563 -0.4499  0.0005
  150DOPC  H17X17995  -0.363   5.944   4.800  2.3151 -0.9413 -0.4805
  150DOPC  H17Y17996  -0.287   5.841   4.906  1.7369 -0.6478 -1.4429
  150DOPC  C31817997  -0.374   5.739   4.735  0.3919  0.2689  0.1200
  150DOPC  H18X17998  -0.456   5.746   4.661 -0.3575 -1.4817  0.7369
  150DOPC  H18Y17999  -0.280   5.737   4.676  0.1013  1.5262 -0.4061
  150DOPC  H18Z18000  -0.382   5.637   4.779  0.5091 -0.3818 -1.3145
  151DOPC     N18001   3.444   4.450   7.389  0.2421  0.0727  0.0447
  151DOPC   C1218002   3.524   4.421   7.266  0.3060  0.5511  0.5344
  151DOPC  H12A18003   3.627   4.396   7.289  0.8830  0.8502 -1.5424
  151DOPC  H12B18004   3.511   4.506   7.202  0.9588 -0.8189 -1.5187
  151DOPC   C1318005   3.453   4.338   7.495 -0.3186 -0.6644 -0.0805
  151DOPC  H13A18006   3.432   4.238   7.459 -0.5351 -1.9406  3.2695
  151DOPC  H13B18007   3.547   4.342   7.547 -0.1352 -0.7205 -0.4068
  151DOPC  H13C18008   3.382   4.357   7.575  0.2342 -0.0166  0.2654
  151DOPC   C1418009   3.299   4.464   7.341  0.0752 -0.7432 -0.4746
  151DOPC  H14A18010   3.241   4.377   7.312 -0.6933 -1.0456  1.7653
  151DOPC  H14B18011   3.244   4.507   7.424 -1.0304 -0.5850 -1.2578
  151DOPC  H14C18012   3.296   4.528   7.254 -1.2431  0.0595  0.1188
  151DOPC   C1518013   3.477   4.576   7.447  0.7489  0.1242  1.0913
  151DOPC  H15A18014   3.449   4.655   7.380  1.2384  1.3609  2.2942
  151DOPC  H15B18015   3.585   4.583   7.448  0.7422  0.8581 -0.5129
  151DOPC  H15C18016   3.448   4.581   7.551  1.2165 -0.5540  1.2635
  151DOPC   C1118017   3.478   4.304   7.185 -0.1455 -0.3837 -0.3954
  151DOPC  H11A18018   3.379   4.333   7.145  0.3131  0.1976 -1.1434
  151DOPC  H11B18019   3.542   4.286   7.096  0.2579 -0.2461 -0.1355
  151DOPC     P18020   3.604   4.097   7.270  0.0245  0.0415 -0.1744
  151DOPC   O1318021   3.572   3.990   7.366 -0.1287 -0.9816 -0.3416
  151DOPC   O1418022   3.723   4.184   7.307  0.3368  0.0880  0.0097
  151DOPC   O1218023   3.475   4.187   7.254  0.1903  0.1776 -0.3803
  151DOPC   O1118024   3.625   4.027   7.134  0.2385 -0.0529 -0.0482
  151DOPC    C118025   3.731   4.060   7.042 -0.0373 -1.0145 -0.1989
  151DOPC    HA18026   3.824   4.097   7.091 -0.7952 -1.3201  1.5301
  151DOPC    HB18027   3.707   4.120   6.951 -1.6074 -0.1377  0.7593
  151DOPC    C218028   3.773   3.930   6.963 -0.7311  0.2073  0.1952
  151DOPC    HS18029   3.858   3.956   6.895 -0.0152  0.7774  1.2861
  151DOPC   O2118030   3.654   3.876   6.893  0.5759 -0.9073  0.1418
  151DOPC   C2118031   3.636   3.929   6.774 -0.1279 -0.8829 -0.5526
  151DOPC   O2218032   3.707   4.013   6.729  0.2421 -0.1401  0.3655
  151DOPC   C2218033   3.515   3.867   6.704  0.4956  0.2573  0.1278
  151DOPC   H2R18034   3.428   3.851   6.771  1.0920 -0.9729  0.6532
  151DOPC   H2S18035   3.543   3.766   6.667  2.0824  0.9654 -0.7094
  151DOPC    C318036   3.821   3.819   7.056  0.4314  0.1241 -0.2991
  151DOPC    HX18037   3.731   3.785   7.112  1.9567 -1.8072  1.1449
  151DOPC    HY18038   3.888   3.865   7.131 -2.0958  1.0736  1.5076
  151DOPC   O3118039   3.874   3.712   6.978  0.0106 -0.0708  0.3195
  151DOPC   C3118040   3.791   3.607   6.954 -0.1470  0.3988  0.5762
  151DOPC   O3218041   3.677   3.595   6.995 -0.5050  0.2059  0.3288
  151DOPC   C3218042   3.855   3.503   6.859  0.3660  0.0987  0.5921
  151DOPC   H2X18043   3.919   3.437   6.921 -0.2608 -0.7046  0.4001
  151DOPC   H2Y18044   3.767   3.449   6.819 -0.0659  1.0702  0.1907
  151DOPC   C2318045   3.469   3.954   6.585  0.0779  0.2265  0.5682
  151DOPC   H3R18046   3.553   3.983   6.518  0.1489  2.4933  1.5280
  151DOPC   H3S18047   3.432   4.051   6.626  2.4464  1.5252 -0.1251
  151DOPC   C2418048   3.373   3.876   6.498  0.5675  0.2487  0.5292
  151DOPC   H4R18049   3.284   3.847   6.558 -0.1786 -2.9041 -1.7835
  151DOPC   H4S18050   3.432   3.785   6.475  1.5517  1.0163 -0.0201
  151DOPC   C2518051   3.316   3.939   6.367 -0.0411  0.4622 -0.3557
  151DOPC   H5R18052   3.403   3.982   6.313 -0.7607  3.4772  0.7151
  151DOPC   H5S18053   3.256   4.029   6.392 -2.2909 -0.3520 -2.3937
  151DOPC   C2618054   3.219   3.839   6.300 -0.2284  0.7303 -0.2225
  151DOPC   H6R18055   3.129   3.828   6.365 -0.4496  2.6419 -0.1235
  151DOPC   H6S18056   3.273   3.744   6.284  0.7837  1.5856 -2.2436
  151DOPC   C2718057   3.156   3.882   6.166 -0.3244  0.5960 -0.5804
  151DOPC   H7R18058   3.230   3.887   6.083 -0.0598 -1.2939 -0.5027
  151DOPC   H7S18059   3.098   3.976   6.182 -0.2596  0.7934 -1.4418
  151DOPC   C2818060   3.043   3.790   6.120  0.0198  1.1198 -0.0772
  151DOPC   H8R18061   2.970   3.859   6.073 -2.8693 -0.7167  1.4443
  151DOPC   H8S18062   2.987   3.738   6.200 -4.0655  0.1315 -3.2303
  151DOPC   C2918063   3.092   3.683   6.025  0.1610 -0.0051  0.4438
  151DOPC   H9R18064   3.192   3.653   6.059  0.6277  1.3576  0.3576
  151DOPC  C21018065   3.029   3.623   5.921 -0.6406 -0.1912  0.0905
  151DOPC  H10R18066   3.074   3.542   5.863  1.7617 -0.1913  1.7861
  151DOPC  C21118067   2.887   3.650   5.875  0.3806  0.6025  0.1748
  151DOPC  H11R18068   2.832   3.710   5.951 -1.3007 -0.6311 -0.0019
  151DOPC  H11S18069   2.841   3.550   5.861  2.6731 -0.6075  0.7055
  151DOPC  C21218070   2.890   3.732   5.745 -0.2245  0.3051  1.0141
  151DOPC  H12R18071   2.790   3.776   5.731  0.4169  1.4160 -0.2947
  151DOPC  H12S18072   2.910   3.666   5.657 -1.1999  0.5646  0.5840
  151DOPC  C21318073   2.988   3.850   5.734 -0.0676 -0.3777 -0.1514
  151DOPC  H13R18074   3.094   3.816   5.738  0.1563 -0.4877 -3.7453
  151DOPC  H13S18075   2.967   3.908   5.825  2.1789  0.9385 -0.3887
  151DOPC  C21418076   2.970   3.937   5.605  0.5158  0.5722  0.2039
  151DOPC  H14R18077   2.864   3.969   5.595 -0.1247 -1.4755 -0.1179
  151DOPC  H14S18078   2.987   3.870   5.518 -0.0675  1.2236 -0.4143
  151DOPC  C21518079   3.072   4.050   5.599  1.0126 -0.7436  0.1064
  151DOPC  H15R18080   3.175   4.015   5.625  0.7454 -1.1337  0.6519
  151DOPC  H15S18081   3.049   4.127   5.676  2.1677  1.0440 -1.2307
  151DOPC  C21618082   3.065   4.136   5.467 -0.1823 -0.3344 -0.1824
  151DOPC  H16R18083   3.128   4.225   5.492 -0.2126 -0.5044  0.5145
  151DOPC  H16S18084   2.960   4.157   5.436  0.4160  0.3516 -1.8741
  151DOPC  C21718085   3.128   4.074   5.346  0.3841 -0.0564  0.0698
  151DOPC  H17R18086   3.059   3.992   5.315 -1.2073  1.7748 -1.5043
  151DOPC  H17S18087   3.227   4.028   5.367  0.5917  0.0685 -0.6158
  151DOPC  C21818088   3.136   4.176   5.231  0.1816 -0.2201 -0.1845
  151DOPC  H18R18089   3.032   4.216   5.224  0.5750  0.7005 -0.9610
  151DOPC  H18S18090   3.166   4.138   5.132  4.3056 -2.1244  1.5679
  151DOPC  H18T18091   3.196   4.265   5.261  2.3117 -1.9048  0.8911
  151DOPC   C3318092   3.925   3.555   6.732 -0.5526  0.1359  0.1318
  151DOPC   H3X18093   3.990   3.479   6.683  1.3378  1.5132  0.4018
  151DOPC   H3Y18094   3.989   3.639   6.765 -0.7779  0.8286 -1.1253
  151DOPC   C3418095   3.825   3.587   6.625  0.5127  0.3401 -0.4193
  151DOPC   H4X18096   3.727   3.607   6.673  1.3594  2.7534  0.4431
  151DOPC   H4Y18097   3.815   3.494   6.565 -0.3722 -0.9965  1.6486
  151DOPC   C3518098   3.854   3.707   6.533 -0.8051  0.4124  0.4728
  151DOPC   H5X18099   3.952   3.685   6.485 -1.5554 -1.7357 -0.2095
  151DOPC   H5Y18100   3.862   3.802   6.590 -0.1556 -0.6377  2.2191
  151DOPC   C3618101   3.779   3.729   6.404 -0.6254 -0.4184 -0.4546
  151DOPC   H6X18102   3.777   3.644   6.332 -0.7068  1.3165 -2.6162
  151DOPC   H6Y18103   3.673   3.753   6.428  0.5918  2.4333  2.8218
  151DOPC   C3718104   3.830   3.853   6.317  0.6274  0.0878  0.1784
  151DOPC   H7X18105   3.742   3.879   6.255  0.4400  0.4760  0.6013
  151DOPC   H7Y18106   3.849   3.947   6.372 -1.8974  1.3149 -0.8612
  151DOPC   C3818107   3.955   3.828   6.229 -0.0258  1.0203  0.3107
  151DOPC   H8X18108   4.026   3.783   6.302 -1.4339  0.2723  1.2612
  151DOPC   H8Y18109   3.994   3.924   6.190 -0.0686  1.5560  1.5706
  151DOPC   C3918110   3.936   3.722   6.123 -0.5319  0.4450 -0.0098
  151DOPC   H9X18111   3.917   3.619   6.157 -0.2510  0.7167  0.9905
  151DOPC  C31018112   3.946   3.747   5.991 -0.6545  0.1975 -0.3202
  151DOPC  H10X18113   3.907   3.674   5.919 -1.7678  1.7913 -1.4116
  151DOPC  C31118114   3.982   3.875   5.921  0.0149 -0.5075  0.3838
  151DOPC  H11X18115   4.013   3.856   5.816 -2.2961 -0.0894 -0.4247
  151DOPC  H11Y18116   4.072   3.927   5.962  1.6569 -1.6920 -1.5450
  151DOPC  C31218117   3.862   3.971   5.911  0.2508  0.2471  0.3839
  151DOPC  H12X18118   3.818   3.995   6.010  0.3830 -1.3019  0.8542
  151DOPC  H12Y18119   3.794   3.915   5.842  1.1711  2.1622 -2.2029
  151DOPC  C31318120   3.905   4.101   5.841 -0.3662 -0.6664  0.2977
  151DOPC  H13X18121   3.956   4.164   5.917  0.6353 -0.2804 -0.6664
  151DOPC  H13Y18122   3.980   4.079   5.762  1.7979  0.0122  2.0728
  151DOPC  C31418123   3.784   4.168   5.769 -0.3352 -0.7765 -0.1483
  151DOPC  H14X18124   3.701   4.171   5.843 -1.3106  0.1719 -1.2280
  151DOPC  H14Y18125   3.813   4.275   5.757  0.2914 -0.6576  1.9908
  151DOPC  C31518126   3.743   4.092   5.638  0.3006 -0.4661  0.3940
  151DOPC  H15X18127   3.685   4.004   5.671 -0.6208  0.2362  0.6719
  151DOPC  H15Y18128   3.838   4.050   5.597  1.0219  2.7426 -1.5351
  151DOPC  C31618129   3.670   4.182   5.549  0.3032 -0.5635  0.3085
  151DOPC  H16X18130   3.573   4.216   5.592 -0.6838 -1.2926 -1.2259
  151DOPC  H16Y18131   3.725   4.278   5.533 -1.7777  0.8289  1.0081
  151DOPC  C31718132   3.636   4.121   5.412  0.2520 -0.5491 -0.1393
  151DOPC  H17X18133   3.570   4.033   5.433  2.7687 -2.4271  0.3982
  151DOPC  H17Y18134   3.582   4.194   5.348  0.2579  0.2209  0.7199
  151DOPC  C31818135   3.754   4.078   5.325 -0.2903  0.5404 -0.4364
  151DOPC  H18X18136   3.711   4.031   5.234 -0.6708  0.5653 -0.2705
  151DOPC  H18Y18137   3.808   4.169   5.292 -0.3063  0.8118  0.2803
  151DOPC  H18Z18138   3.829   4.011   5.374  0.1446  1.3886  0.0691
  152DOPC     N18139   4.621   1.922   7.398  0.1668  0.1686 -0.5647
  152DOPC   C1218140   4.509   1.839   7.323  0.0138  0.3967  0.4475
  152DOPC  H12A18141   4.410   1.847   7.367 -0.0751 -0.4103  0.3997
  152DOPC  H12B18142   4.538   1.735   7.328 -1.9604 -0.1782  0.8536
  152DOPC   C1318143   4.756   1.898   7.339  0.5884 -0.3953  1.0047
  152DOPC  H13A18144   4.792   1.796   7.344  0.5852 -0.6125 -1.8536
  152DOPC  H13B18145   4.760   1.935   7.238  1.5217  0.5193  1.3504
  152DOPC  H13C18146   4.834   1.957   7.387  0.2291 -1.4099  2.9293
  152DOPC   C1418147   4.624   1.877   7.540 -0.2792 -0.2568 -0.0561
  152DOPC  H14A18148   4.590   1.774   7.542  2.8615 -1.3804  0.9821
  152DOPC  H14B18149   4.725   1.883   7.578 -0.3169  2.0647 -0.2314
  152DOPC  H14C18150   4.566   1.948   7.597  1.1419 -0.3188  1.5459
  152DOPC   C1518151   4.591   2.066   7.393 -0.7058  0.0861  0.0587
  152DOPC  H15A18152   4.590   2.107   7.293  1.4078 -0.7233 -0.3366
  152DOPC  H15B18153   4.670   2.120   7.443 -1.5177  2.6612 -1.2502
  152DOPC  H15C18154   4.496   2.097   7.436 -0.2170  2.7041 -0.5623
  152DOPC   C1118155   4.499   1.857   7.171  0.2071 -0.2453  1.2718
  152DOPC  H11A18156   4.417   1.795   7.129  1.8475 -1.6499  0.0184
  152DOPC  H11B18157   4.470   1.963   7.154 -0.6286 -0.3078  2.1860
  152DOPC     P18158   4.662   1.705   7.031 -0.3629 -0.1768  0.2202
  152DOPC   O1318159   4.633   1.600   7.138 -0.1447  0.3177 -0.0274
  152DOPC   O1418160   4.802   1.721   6.981 -0.1485  0.2637  0.0176
  152DOPC   O1218161   4.619   1.840   7.095 -0.0244 -0.1601 -0.1490
  152DOPC   O1118162   4.571   1.693   6.904 -0.4121 -0.3236 -0.2173
  152DOPC    C118163   4.475   1.784   6.855 -0.4490 -0.6680 -0.2183
  152DOPC    HA18164   4.516   1.811   6.756 -1.9482 -0.5515 -0.8384
  152DOPC    HB18165   4.466   1.875   6.918 -1.2827 -1.0135  0.1772
  152DOPC    C218166   4.336   1.725   6.834  0.1139  0.2744  0.1047
  152DOPC    HS18167   4.304   1.669   6.924  0.2634 -1.8439 -1.0797
  152DOPC   O2118168   4.337   1.637   6.725  0.2396  0.2398  0.5266
  152DOPC   C2118169   4.356   1.505   6.755 -0.6084 -0.0873 -0.1742
  152DOPC   O2218170   4.376   1.457   6.866 -0.5388 -0.2303 -0.4234
  152DOPC   C2218171   4.358   1.423   6.618  0.0177 -0.0285 -0.2238
  152DOPC   H2R18172   4.308   1.326   6.639 -1.0622  0.5036 -0.2254
  152DOPC   H2S18173   4.465   1.407   6.597  0.3255  0.7647  0.6674
  152DOPC    C318174   4.225   1.829   6.795 -0.3607  0.6870 -0.1866
  152DOPC    HX18175   4.121   1.789   6.789 -0.4218  0.5794  1.2999
  152DOPC    HY18176   4.245   1.856   6.689  0.1330 -2.9050 -1.1372
  152DOPC   O3118177   4.234   1.943   6.887 -0.1786 -0.0544  0.4446
  152DOPC   C3118178   4.150   1.941   6.988 -0.0227  0.0633  0.6017
  152DOPC   O3218179   4.108   1.847   7.051 -0.5090  0.2121  0.4212
  152DOPC   C3218180   4.118   2.086   7.027 -0.1528  0.4146 -0.6939
  152DOPC   H2X18181   4.052   2.082   7.116  2.5021 -0.1467  1.3756
  152DOPC   H2Y18182   4.211   2.135   7.062 -0.3455 -1.1882  2.3969
  152DOPC   C2318183   4.292   1.491   6.492 -0.3183 -0.2211 -0.4657
  152DOPC   H3R18184   4.355   1.574   6.455  0.5609 -1.2126 -1.2575
  152DOPC   H3S18185   4.194   1.527   6.530 -0.3690 -0.2788 -0.5416
  152DOPC   C2418186   4.264   1.397   6.378  0.8955 -0.4641 -0.2796
  152DOPC   H4R18187   4.195   1.314   6.403 -1.8668  2.0880  1.3185
  152DOPC   H4S18188   4.364   1.351   6.367  0.8010 -0.2691 -2.4008
  152DOPC   C2518189   4.210   1.471   6.254 -0.1142  0.3794 -0.1043
  152DOPC   H5R18190   4.277   1.554   6.225  0.8169  0.1339  1.2611
  152DOPC   H5S18191   4.116   1.523   6.283 -0.8334 -0.2200 -1.2753
  152DOPC   C2618192   4.172   1.381   6.131 -0.8583 -0.0398 -0.2173
  152DOPC   H6R18193   4.271   1.350   6.092  0.1448  2.5379  0.0582
  152DOPC   H6S18194   4.123   1.440   6.050  0.8580 -2.0751 -2.8930
  152DOPC   C2718195   4.074   1.269   6.151  0.6593 -0.3597 -0.1740
  152DOPC   H7R18196   4.111   1.208   6.237  0.4198  1.1689  1.0696
  152DOPC   H7S18197   4.071   1.196   6.068  3.2464 -0.8028  0.0177
  152DOPC   C2818198   3.931   1.319   6.181  0.6559  0.0826 -0.1489
  152DOPC   H8R18199   3.903   1.391   6.102  1.6512  1.0238  0.3395
  152DOPC   H8S18200   3.920   1.370   6.279  1.0137  0.0471 -0.0858
  152DOPC   C2918201   3.827   1.210   6.191 -0.2208 -0.4770  0.3298
  152DOPC   H9R18202   3.813   1.169   6.292 -0.8193 -0.9241  0.0722
  152DOPC  C21018203   3.768   1.143   6.090 -0.2149 -0.3181 -0.3489
  152DOPC  H10R18204   3.693   1.066   6.111  0.2823 -0.7765 -0.2502
  152DOPC  C21118205   3.794   1.169   5.944 -0.3756 -0.2376  1.0264
  152DOPC  H11R18206   3.885   1.232   5.936 -0.1260 -0.8270 -1.9222
  152DOPC  H11S18207   3.708   1.234   5.919 -2.4358 -2.6247  1.5471
  152DOPC  C21218208   3.789   1.043   5.870  0.5725  0.1946  0.4876
  152DOPC  H12R18209   3.695   0.985   5.883  0.3776 -0.0904 -1.8803
  152DOPC  H12S18210   3.868   0.967   5.888  0.5133 -0.0024 -0.0689
  152DOPC  C21318211   3.803   1.075   5.719  0.3799  0.1475 -0.6513
  152DOPC  H13R18212   3.890   1.144   5.710  1.7564 -1.4847 -0.2916
  152DOPC  H13S18213   3.715   1.131   5.679  0.5123  0.4160 -0.5743
  152DOPC  C21418214   3.839   0.962   5.627 -0.3251 -0.0775 -0.4081
  152DOPC  H14R18215   3.761   0.884   5.637 -0.8363  0.4495 -0.2294
  152DOPC  H14S18216   3.932   0.912   5.663 -0.2506  0.7954  0.6530
  152DOPC  C21518217   3.869   1.010   5.488  0.6059 -0.5209  0.0018
  152DOPC  H15R18218   3.929   1.103   5.473 -0.5815  0.0148 -1.7643
  152DOPC  H15S18219   3.771   1.036   5.444  0.1987  2.9823  2.6108
  152DOPC  C21618220   3.921   0.904   5.391  0.2433  0.5013 -0.0013
  152DOPC  H16R18221   3.900   0.953   5.294  1.4358  0.2664 -0.3932
  152DOPC  H16S18222   3.858   0.813   5.400  0.7721  0.1902  0.6746
  152DOPC  C21718223   4.070   0.862   5.406  0.4112 -0.2172  0.7415
  152DOPC  H17R18224   4.079   0.784   5.484 -0.1996 -0.0051  1.0290
  152DOPC  H17S18225   4.125   0.957   5.425 -0.7197  0.5480  0.3417
  152DOPC  C21818226   4.131   0.808   5.275  0.4953 -0.2344  0.0342
  152DOPC  H18R18227   4.073   0.715   5.260 -2.0741  0.9747  1.7657
  152DOPC  H18S18228   4.238   0.780   5.288  1.4177  3.7431  3.2214
  152DOPC  H18T18229   4.122   0.876   5.188 -0.9416 -3.1466 -2.2725
  152DOPC   C3318230   4.057   2.181   6.923  0.2925 -0.6141 -0.3802
  152DOPC   H3X18231   3.962   2.140   6.882 -0.2263  0.7066 -0.5310
  152DOPC   H3Y18232   4.132   2.186   6.842 -1.7876  2.1081 -2.3121
  152DOPC   C3418233   4.038   2.325   6.979  0.3719  0.0184  0.1090
  152DOPC   H4X18234   4.137   2.352   7.023 -0.1677 -0.8310  1.9495
  152DOPC   H4Y18235   3.963   2.322   7.061  0.0432 -2.8195 -0.1929
  152DOPC   C3518236   3.992   2.420   6.873 -0.1859 -0.1877  0.4928
  152DOPC   H5X18237   3.887   2.392   6.853 -0.4283 -0.6835  2.2591
  152DOPC   H5Y18238   4.058   2.409   6.785 -2.7546  0.7991 -1.6706
  152DOPC   C3618239   3.993   2.564   6.921  0.0168  0.1290  0.1512
  152DOPC   H6X18240   3.886   2.583   6.943  0.1886 -0.8917  2.1551
  152DOPC   H6Y18241   4.035   2.581   7.023 -1.3832  0.1581  0.7513
  152DOPC   C3718242   4.057   2.663   6.822 -0.7751  0.6636 -0.8291
  152DOPC   H7X18243   4.036   2.760   6.872  1.6034 -0.1960  2.1095
  152DOPC   H7Y18244   4.168   2.660   6.825 -0.7474  1.1713 -1.3439
  152DOPC   C3818245   3.997   2.679   6.683  0.7365  0.2692 -0.1941
  152DOPC   H8X18246   3.967   2.783   6.661 -1.8680 -0.1976  0.7205
  152DOPC   H8Y18247   3.907   2.613   6.684  0.7716  0.1574  2.3925
  152DOPC   C3918248   4.090   2.624   6.581  0.4892 -0.7808 -0.3654
  152DOPC   H9X18249   4.160   2.552   6.626  0.0922 -2.0952 -1.7767
  152DOPC  C31018250   4.087   2.646   6.449  0.2101  1.1517  0.1957
  152DOPC  H10X18251   4.160   2.595   6.384 -1.6156 -1.1952 -0.1160
  152DOPC  C31118252   3.989   2.731   6.373  0.2150  0.0472  0.0462
  152DOPC  H11X18253   4.033   2.831   6.355 -1.9702  0.8163 -1.3486
  152DOPC  H11Y18254   3.896   2.759   6.425  0.4727  0.1802  0.4406
  152DOPC  C31218255   3.952   2.683   6.230  0.5352  0.4147  0.4866
  152DOPC  H12X18256   3.898   2.587   6.244  0.4039  0.7210  2.2243
  152DOPC  H12Y18257   4.039   2.654   6.167 -2.2429 -0.4435 -3.3707
  152DOPC  C31318258   3.871   2.788   6.156  0.2896 -0.3977  0.5527
  152DOPC  H13X18259   3.801   2.835   6.228 -0.7974  0.7054 -1.1617
  152DOPC  H13Y18260   3.945   2.865   6.124 -0.7415  0.8769  1.1326
  152DOPC  C31418261   3.800   2.752   6.027  0.2088  0.1070 -0.9501
  152DOPC  H14X18262   3.748   2.654   6.032 -1.1755  0.7941 -1.1993
  152DOPC  H14Y18263   3.722   2.830   6.010  0.1961  0.5298  0.8545
  152DOPC  C31518264   3.889   2.768   5.898 -0.7522 -0.0119  0.0221
  152DOPC  H15X18265   3.988   2.720   5.913 -0.2104  0.8078 -0.8773
  152DOPC  H15Y18266   3.921   2.873   5.883  0.3576 -0.3894 -0.3739
  152DOPC  C31618267   3.821   2.709   5.767 -0.2626  0.4121  0.3413
  152DOPC  H16X18268   3.793   2.606   5.797  1.2648  0.5599  2.5700
  152DOPC  H16Y18269   3.727   2.761   5.739 -0.5384 -0.3954 -0.2612
  152DOPC  C31718270   3.910   2.716   5.647  0.0738 -0.1742 -0.0098
  152DOPC  H17X18271   3.917   2.821   5.612 -0.9166  0.2349  0.9877
  152DOPC  H17Y18272   4.010   2.686   5.687  0.7910  1.9243 -0.0929
  152DOPC  C31818273   3.859   2.629   5.530  0.1972 -0.5637 -0.4416
  152DOPC  H18X18274   3.921   2.634   5.439  0.6505  0.0774 -0.1037
  152DOPC  H18Y18275   3.840   2.524   5.562 -1.1111  0.2743  1.7763
  152DOPC  H18Z18276   3.758   2.658   5.493 -0.2834 -1.2390  0.2885
  153DOPC     N18277   5.491   6.281   7.236 -0.4868  0.2409  0.0703
  153DOPC   C1218278   5.580   6.365   7.143 -0.1653 -0.1388 -0.1738
  153DOPC  H12A18279   5.527   6.453   7.111  0.8289  0.4264 -0.2818
  153DOPC  H12B18280   5.601   6.300   7.059 -1.0939 -1.5138  0.6037
  153DOPC   C1318281   5.572   6.168   7.290 -0.0427  0.6048  0.1916
  153DOPC  H13A18282   5.661   6.207   7.338  0.1939 -0.1876  0.4115
  153DOPC  H13B18283   5.527   6.122   7.377  0.6846  0.7972  0.6825
  153DOPC  H13C18284   5.597   6.097   7.213 -0.1877  1.1803 -0.3923
  153DOPC   C1418285   5.374   6.223   7.159  0.0275 -0.2297  0.4973
  153DOPC  H14A18286   5.304   6.302   7.137  0.6668  0.7637  1.8524
  153DOPC  H14B18287   5.410   6.176   7.069  2.0921 -1.5300  1.9092
  153DOPC  H14C18288   5.322   6.150   7.219 -0.3786 -0.7545 -0.4805
  153DOPC   C1518289   5.437   6.371   7.343  0.5237  0.5280 -0.0598
  153DOPC  H15A18290   5.515   6.401   7.411  0.3965  2.7587 -0.8414
  153DOPC  H15B18291   5.370   6.318   7.410  1.8463  1.4263  2.0893
  153DOPC  H15C18292   5.371   6.450   7.312  1.2227  0.8959 -0.6324
  153DOPC   C1118293   5.712   6.425   7.201  0.6166  0.2397 -0.4095
  153DOPC  H11A18294   5.756   6.495   7.127 -0.3421  1.3995  0.0827
  153DOPC  H11B18295   5.679   6.495   7.280 -1.8166 -2.1272  0.8372
  153DOPC     P18296   5.898   6.239   7.172 -0.3254 -0.3110  0.0550
  153DOPC   O1318297   5.932   6.124   7.258 -0.9011  0.3445 -0.0587
  153DOPC   O1418298   6.007   6.314   7.105 -0.1687  0.2197 -0.7127
  153DOPC   O1218299   5.808   6.337   7.250  0.1585  0.2287 -0.5404
  153DOPC   O1118300   5.801   6.181   7.061  1.2002 -0.1918 -0.1004
  153DOPC    C118301   5.846   6.060   6.999  0.6009 -0.4294 -0.0182
  153DOPC    HA18302   5.862   5.973   7.066 -0.9101 -0.4253  0.3890
  153DOPC    HB18303   5.932   6.081   6.933 -0.0127  0.5927 -0.5265
  153DOPC    C218304   5.732   6.019   6.903  0.0436 -0.2707 -0.1551
  153DOPC    HS18305   5.642   5.998   6.965  0.2487 -4.6382 -1.0261
  153DOPC   O2118306   5.773   5.894   6.833  0.2893 -0.4762  0.0244
  153DOPC   C2118307   5.676   5.810   6.806 -0.2682 -0.3214  0.0271
  153DOPC   O2218308   5.556   5.825   6.810  0.0236  0.0991 -0.3577
  153DOPC   C2218309   5.743   5.695   6.739  0.0552  0.4603 -0.0331
  153DOPC   H2R18310   5.804   5.632   6.806 -0.3952 -0.6341 -0.6277
  153DOPC   H2S18311   5.807   5.738   6.659 -0.1624  1.1785  0.1741
  153DOPC    C318312   5.705   6.131   6.802  0.1546 -0.1333  0.3043
  153DOPC    HX18313   5.799   6.144   6.744  0.3391  2.4579  1.0645
  153DOPC    HY18314   5.680   6.224   6.858  0.2801  1.0752 -1.5616
  153DOPC   O3118315   5.595   6.097   6.718  0.0494 -0.0551  0.0946
  153DOPC   C3118316   5.470   6.126   6.751  0.6593  0.3961 -0.3818
  153DOPC   O3218317   5.432   6.189   6.851 -0.0494  0.3633  0.3653
  153DOPC   C3218318   5.373   6.064   6.653 -0.2213  0.1551  0.0110
  153DOPC   H2X18319   5.423   6.066   6.554  3.1594 -2.5198  1.4825
  153DOPC   H2Y18320   5.365   5.956   6.675 -1.0978  0.1581 -0.2609
  153DOPC   C2318321   5.646   5.606   6.655  0.1169  0.1030 -0.0395
  153DOPC   H3R18322   5.596   5.676   6.585 -0.3553 -0.8805 -0.7101
  153DOPC   H3S18323   5.574   5.546   6.715  1.9215 -0.2588  1.8911
  153DOPC   C2418324   5.720   5.509   6.562 -0.0214 -0.1298 -0.2245
  153DOPC   H4R18325   5.750   5.420   6.622  0.8532  0.2917 -0.0290
  153DOPC   H4S18326   5.802   5.570   6.519  1.7027 -2.7949 -0.9547
  153DOPC   C2518327   5.626   5.456   6.455  0.0797  0.0174 -0.0183
  153DOPC   H5R18328   5.576   5.545   6.410  1.6850  0.8011 -0.3193
  153DOPC   H5S18329   5.554   5.402   6.520  0.6488  0.8505  1.3425
  153DOPC   C2618330   5.689   5.358   6.351 -0.0903  0.2350 -0.1410
  153DOPC   H6R18331   5.744   5.281   6.410 -1.2837 -0.7635 -0.2915
  153DOPC   H6S18332   5.767   5.408   6.290  1.8892  0.3558  2.3050
  153DOPC   C2718333   5.578   5.299   6.263 -1.0854 -0.2587 -0.9813
  153DOPC   H7R18334   5.509   5.381   6.232 -2.0781 -0.2463  1.1161
  153DOPC   H7S18335   5.509   5.236   6.323 -0.5087  0.5601  0.5862
  153DOPC   C2818336   5.619   5.218   6.135  0.0198 -0.7220  0.2243
  153DOPC   H8R18337   5.531   5.157   6.103  0.2896 -0.0665 -1.8859
  153DOPC   H8S18338   5.704   5.151   6.160  0.2409 -1.3363 -1.9234
  153DOPC   C2918339   5.659   5.293   6.012 -0.1573  0.5032 -0.8420
  153DOPC   H9R18340   5.732   5.366   6.048 -1.7886  1.4907  0.6493
  153DOPC  C21018341   5.609   5.293   5.886 -0.4008  0.5940  0.1523
  153DOPC  H10R18342   5.647   5.371   5.818  2.7677 -1.4677 -0.6473
  153DOPC  C21118343   5.493   5.216   5.835 -0.2874  0.2075 -0.1433
  153DOPC  H11R18344   5.405   5.283   5.831 -0.3542  0.2684  1.6070
  153DOPC  H11S18345   5.466   5.137   5.909 -0.2122  0.0642 -0.2677
  153DOPC  C21218346   5.524   5.146   5.704 -0.4538  0.3860  0.4609
  153DOPC  H12R18347   5.425   5.102   5.678 -0.3489  0.3690  0.0876
  153DOPC  H12S18348   5.589   5.058   5.726 -0.7340  0.2499  0.7559
  153DOPC  C21318349   5.579   5.231   5.589  0.2930 -0.1947 -0.0488
  153DOPC  H13R18350   5.669   5.287   5.622 -0.4607  1.5630 -0.8367
  153DOPC  H13S18351   5.499   5.306   5.569  1.1023  0.2391 -1.9180
  153DOPC  C21418352   5.626   5.148   5.463  0.3659 -0.5801  0.4121
  153DOPC  H14R18353   5.734   5.128   5.476  0.9318  1.7351 -0.1305
  153DOPC  H14S18354   5.627   5.215   5.375  1.5286  0.1413  0.9435
  153DOPC  C21518355   5.570   5.010   5.443  0.1034 -0.0129  0.1059
  153DOPC  H15R18356   5.460   5.015   5.431  0.0889  0.0599  0.2660
  153DOPC  H15S18357   5.598   4.957   5.536  0.5725 -0.0630 -0.0607
  153DOPC  C21618358   5.641   4.948   5.324 -0.4586  0.0127 -0.1629
  153DOPC  H16R18359   5.585   4.853   5.304 -0.5719  0.3741 -1.6678
  153DOPC  H16S18360   5.746   4.936   5.356 -0.9479 -0.9063  1.2311
  153DOPC  C21718361   5.622   5.023   5.193  1.1567  0.6616 -0.3291
  153DOPC  H17R18362   5.693   5.108   5.195  0.2794  1.4039 -0.5441
  153DOPC  H17S18363   5.514   5.045   5.201  0.0419 -4.2128  3.6865
  153DOPC  C21818364   5.638   4.929   5.076  0.0497  0.2625  0.1855
  153DOPC  H18R18365   5.740   4.886   5.086  1.0359  2.5460  0.5618
  153DOPC  H18S18366   5.637   4.983   4.979  1.1341  1.8783  1.0206
  153DOPC  H18T18367   5.563   4.848   5.081  0.8116 -0.4074  2.3452
  153DOPC   C3318368   5.228   6.120   6.654 -0.3765 -0.1026  0.2535
  153DOPC   H3X18369   5.226   6.231   6.649 -0.6048 -0.1025  0.3798
  153DOPC   H3Y18370   5.182   6.086   6.749  0.1681 -1.3964  0.0779
  153DOPC   C3418371   5.141   6.065   6.538  0.2453 -0.2384 -0.2453
  153DOPC   H4X18372   5.037   6.102   6.545  0.5263  0.4830  0.2200
  153DOPC   H4Y18373   5.135   5.954   6.548 -2.8116 -0.1445 -0.1932
  153DOPC   C3518374   5.203   6.093   6.403 -0.4576  0.3615 -0.1738
  153DOPC   H5X18375   5.299   6.038   6.395  0.1508  1.2228  0.8994
  153DOPC   H5Y18376   5.214   6.203   6.395 -0.4211  0.3441 -0.3565
  153DOPC   C3618377   5.113   6.062   6.282 -0.2363 -0.0864  0.4527
  153DOPC   H6X18378   5.089   5.954   6.276  2.0942 -0.7372  1.5210
  153DOPC   H6Y18379   5.017   6.117   6.296 -1.7073 -2.4458  0.0615
  153DOPC   C3718380   5.183   6.102   6.149  0.2674  0.0420 -0.1645
  153DOPC   H7X18381   5.218   6.202   6.184 -0.4067  0.6723 -1.2249
  153DOPC   H7Y18382   5.263   6.029   6.121 -0.7218 -1.2134  0.2112
  153DOPC   C3818383   5.094   6.141   6.035  0.5166 -0.2582  0.2183
  153DOPC   H8X18384   5.161   6.192   5.962 -0.9378  2.3710  0.5678
  153DOPC   H8Y18385   5.009   6.204   6.069  0.6998  0.2716 -0.2841
  153DOPC   C3918386   5.040   6.010   5.982  0.2022  0.9054  0.1399
  153DOPC   H9X18387   4.974   5.960   6.055 -0.2569  0.2430 -0.7020
  153DOPC  C31018388   5.071   5.940   5.877  0.4288 -0.1787  0.2176
  153DOPC  H10X18389   5.015   5.850   5.849  0.8362  0.1906 -2.0101
  153DOPC  C31118390   5.174   5.990   5.778 -0.5237 -0.0724 -0.1091
  153DOPC  H11X18391   5.210   5.913   5.706  0.5268  0.5440 -0.2559
  153DOPC  H11Y18392   5.257   6.036   5.835 -2.2254  0.0444  2.4379
  153DOPC  C31218393   5.101   6.095   5.687  0.2637 -0.2825  0.9461
  153DOPC  H12X18394   5.028   6.155   5.746 -2.9727 -2.0826 -0.9443
  153DOPC  H12Y18395   5.047   6.042   5.606 -3.0627  2.4742  1.1050
  153DOPC  C31318396   5.196   6.188   5.620  0.5785  0.0382  0.0093
  153DOPC  H13X18397   5.203   6.286   5.671  1.5354  0.8502 -1.5819
  153DOPC  H13Y18398   5.294   6.136   5.619 -0.3090 -1.9514 -3.8207
  153DOPC  C31418399   5.156   6.209   5.472  0.6772 -0.3350  0.0305
  153DOPC  H14X18400   5.211   6.295   5.427  0.2852 -0.4989 -0.7993
  153DOPC  H14Y18401   5.170   6.116   5.413 -0.9042  0.3442 -1.5275
  153DOPC  C31518402   5.005   6.260   5.468  0.2630 -0.1105 -0.6588
  153DOPC  H15X18403   5.005   6.349   5.534 -0.2277 -0.8919  0.4318
  153DOPC  H15Y18404   4.936   6.186   5.516  1.0694  0.0146  0.7543
  153DOPC  C31618405   4.955   6.297   5.332  0.0655 -0.1152  0.3972
  153DOPC  H16X18406   4.862   6.358   5.328  0.4252  0.4021 -2.9691
  153DOPC  H16Y18407   5.032   6.368   5.295 -0.0213 -0.1436  0.1585
  153DOPC  C31718408   4.921   6.186   5.241  0.9885  0.5121 -0.4644
  153DOPC  H17X18409   5.014   6.135   5.207  0.3444 -2.1860  1.4496
  153DOPC  H17Y18410   4.860   6.114   5.299  0.7989  0.4598 -0.7335
  153DOPC  C31818411   4.839   6.233   5.128 -0.9260  0.1926  0.2362
  153DOPC  H18X18412   4.843   6.152   5.052 -0.7723  0.9057 -0.5288
  153DOPC  H18Y18413   4.733   6.256   5.156 -0.2160  2.8590  1.0698
  153DOPC  H18Z18414   4.888   6.317   5.075  1.8286 -0.4939  1.5610
  154DOPC     N18415   6.934   4.881   7.325  0.2132  0.1442  0.0805
  154DOPC   C1218416   6.979   4.827   7.191 -0.0110 -0.1416 -0.2232
  154DOPC  H12A18417   7.033   4.737   7.217 -0.5728  0.3540  3.1088
  154DOPC  H12B18418   7.040   4.900   7.138  0.8810 -1.6886 -1.4312
  154DOPC   C1318419   6.834   4.990   7.314 -0.1878 -0.3713  0.6892
  154DOPC  H13A18420   6.864   5.068   7.245 -2.4478  1.1408  1.3117
  154DOPC  H13B18421   6.734   4.967   7.280 -0.0326 -0.6971  0.4469
  154DOPC  H13C18422   6.825   5.044   7.407  2.9739 -0.7857  1.3233
  154DOPC   C1418423   7.050   4.936   7.402  0.3433  0.1264 -0.5923
  154DOPC  H14A18424   7.129   4.867   7.426 -0.6326 -0.6243  0.5875
  154DOPC  H14B18425   7.106   5.014   7.353  2.4184 -0.6006  0.5102
  154DOPC  H14C18426   7.011   4.986   7.489 -1.3469  0.0866 -1.2806
  154DOPC   C1518427   6.876   4.768   7.399  0.0127  0.1300  0.1499
  154DOPC  H15A18428   6.795   4.729   7.339  1.7364 -2.3544 -0.6769
  154DOPC  H15B18429   6.848   4.794   7.500  0.5230 -2.2933  0.9636
  154DOPC  H15C18430   6.946   4.686   7.398  1.4874  1.2547 -3.0924
  154DOPC   C1118431   6.865   4.798   7.087  0.3396  0.1188  0.2091
  154DOPC  H11A18432   6.824   4.890   7.040  1.1177 -0.8146 -2.4961
  154DOPC  H11B18433   6.911   4.757   6.994 -2.9683  0.3765 -1.6916
  154DOPC     P18434   6.608   4.729   7.106  0.0961  0.4587  0.2816
  154DOPC   O1318435   6.556   4.865   7.131 -0.5267 -0.2643  0.1713
  154DOPC   O1418436   6.543   4.609   7.164  0.5691  0.4583  0.0780
  154DOPC   O1218437   6.764   4.715   7.133 -0.0158 -0.3512 -0.4174
  154DOPC   O1118438   6.598   4.719   6.950 -0.0050  0.0034  0.3215
  154DOPC    C118439   6.627   4.589   6.889 -0.0734  1.0212 -0.0746
  154DOPC    HA18440   6.550   4.570   6.811 -2.1514  3.4512  1.2153
  154DOPC    HB18441   6.625   4.504   6.961  2.1228  0.4304 -0.6596
  154DOPC    C218442   6.771   4.577   6.822  0.1913 -0.6765  0.5271
  154DOPC    HS18443   6.835   4.570   6.912 -1.4767  2.2286  2.0585
  154DOPC   O2118444   6.787   4.702   6.756  0.1199  0.1704  0.2776
  154DOPC   C2118445   6.903   4.738   6.706 -0.1765 -0.4020 -0.2598
  154DOPC   O2218446   7.005   4.671   6.706 -0.2700  0.2836  0.1075
  154DOPC   C2218447   6.894   4.880   6.642 -0.4380  0.1721  0.3246
  154DOPC   H2R18448   6.936   4.941   6.725 -1.8620  1.3006  0.2492
  154DOPC   H2S18449   6.788   4.910   6.627  0.0895  1.1433 -1.7711
  154DOPC    C318450   6.785   4.453   6.734  0.5805 -0.4993  0.0712
  154DOPC    HX18451   6.742   4.368   6.791 -1.0136 -1.2365 -2.1051
  154DOPC    HY18452   6.891   4.441   6.703  0.3641  1.7809 -1.8834
  154DOPC   O3118453   6.718   4.473   6.606 -0.0572  0.2154 -0.1528
  154DOPC   C3118454   6.600   4.417   6.591 -0.2279 -0.0833  0.7147
  154DOPC   O3218455   6.542   4.349   6.675  0.1978 -1.0678 -0.2853
  154DOPC   C3218456   6.541   4.431   6.450 -0.0828 -0.0866 -0.7088
  154DOPC   H2X18457   6.431   4.446   6.447 -0.2476 -1.1552 -0.5415
  154DOPC   H2Y18458   6.587   4.520   6.401 -5.1557  3.7526  0.6202
  154DOPC   C2318459   6.972   4.889   6.511  0.1372 -0.1499  0.0952
  154DOPC   H3R18460   7.070   4.838   6.516  0.1375 -0.0467  2.1273
  154DOPC   H3S18461   6.989   4.997   6.489 -1.2847  0.1411  0.2924
  154DOPC   C2418462   6.900   4.841   6.380  0.4319  0.2258  0.0980
  154DOPC   H4R18463   6.873   4.737   6.409  0.8183  0.4344  1.2964
  154DOPC   H4S18464   6.984   4.838   6.308  0.1154 -0.3219 -0.2589
  154DOPC   C2518465   6.784   4.928   6.322  0.3876 -0.3236  0.8778
  154DOPC   H5R18466   6.815   5.034   6.334 -3.2464  0.8173  1.3567
  154DOPC   H5S18467   6.688   4.923   6.377  0.5802  1.3397  1.4264
  154DOPC   C2618468   6.766   4.899   6.169  0.2151 -0.8957 -0.2696
  154DOPC   H6R18469   6.866   4.914   6.122  0.3172 -1.8935 -0.3796
  154DOPC   H6S18470   6.688   4.961   6.121  0.2089  0.8169  1.7900
  154DOPC   C2718471   6.729   4.756   6.136 -1.5141  0.1626 -0.6914
  154DOPC   H7R18472   6.624   4.733   6.165 -0.6701 -0.8416  1.8184
  154DOPC   H7S18473   6.794   4.698   6.204 -0.2851  0.6939 -1.3763
  154DOPC   C2818474   6.752   4.709   5.992  0.2946  0.3453 -0.5138
  154DOPC   H8R18475   6.733   4.600   5.981  2.1929  0.0976 -1.8316
  154DOPC   H8S18476   6.854   4.734   5.955 -0.1503 -0.1146 -2.1304
  154DOPC   C2918477   6.654   4.777   5.898  0.5371 -0.0236  0.0201
  154DOPC   H9R18478   6.580   4.842   5.947 -0.5141 -2.4922  1.9450
  154DOPC  C21018479   6.639   4.744   5.768 -0.1919 -0.0359 -0.4314
  154DOPC  H10R18480   6.577   4.801   5.698 -0.9467 -0.4275 -0.0913
  154DOPC  C21118481   6.712   4.634   5.697 -0.3699 -0.5637  0.5808
  154DOPC  H11R18482   6.697   4.537   5.749 -1.4127 -0.3344  0.7143
  154DOPC  H11S18483   6.820   4.656   5.714 -1.3431  1.7840  5.3027
  154DOPC  C21218484   6.704   4.632   5.543 -0.3006 -0.3841 -0.2082
  154DOPC  H12R18485   6.781   4.560   5.506 -1.9514 -1.9511 -0.7257
  154DOPC  H12S18486   6.734   4.733   5.507 -1.3302 -0.4041 -1.1684
  154DOPC  C21318487   6.565   4.585   5.503  0.3706 -0.1836 -0.0527
  154DOPC  H13R18488   6.485   4.644   5.552  0.7566  1.2095 -1.0126
  154DOPC  H13S18489   6.555   4.479   5.532  0.6714 -0.4973 -1.0543
  154DOPC  C21418490   6.533   4.609   5.353 -0.1685  0.3137 -0.6868
  154DOPC  H14R18491   6.625   4.595   5.293  1.2514 -1.0848  1.6682
  154DOPC  H14S18492   6.496   4.713   5.343  0.3687  0.6277  0.4274
  154DOPC  C21518493   6.429   4.513   5.300  0.3653 -0.6786  0.0851
  154DOPC  H15R18494   6.345   4.513   5.373 -1.5292 -1.5418 -1.9592
  154DOPC  H15S18495   6.462   4.407   5.308 -0.6662 -0.9284  1.4098
  154DOPC  C21618496   6.387   4.552   5.153  0.0416  0.1630  0.3130
  154DOPC  H16R18497   6.475   4.564   5.086  0.0513  0.3674  0.3620
  154DOPC  H16S18498   6.341   4.652   5.142  0.4056  0.0617 -3.2354
  154DOPC  C21718499   6.302   4.441   5.092 -0.0232  0.3096 -0.1511
  154DOPC  H17R18500   6.213   4.431   5.158  0.8571  0.9895  1.1761
  154DOPC  H17S18501   6.366   4.351   5.101 -0.6505 -0.1442 -0.2092
  154DOPC  C21818502   6.257   4.476   4.947  0.0014  0.2548 -0.5945
  154DOPC  H18R18503   6.210   4.576   4.951 -0.7850 -0.0543 -1.4797
  154DOPC  H18S18504   6.192   4.398   4.901 -0.9452  1.8451 -2.0472
  154DOPC  H18T18505   6.351   4.479   4.888  2.2239 -1.0551  2.6263
  154DOPC   C3318506   6.565   4.306   6.359  0.0644  0.0740 -0.3020
  154DOPC   H3X18507   6.498   4.224   6.392  0.5465  0.9904  3.3520
  154DOPC   H3Y18508   6.666   4.264   6.378  1.0830  1.6963 -1.7254
  154DOPC   C3418509   6.559   4.328   6.213  0.7636 -0.2067 -0.2910
  154DOPC   H4X18510   6.641   4.401   6.196  1.9370 -1.7751 -1.6952
  154DOPC   H4Y18511   6.465   4.385   6.198  0.9708  0.6575  1.4609
  154DOPC   C3518512   6.564   4.201   6.134 -0.6346 -0.3770 -0.5941
  154DOPC   H5X18513   6.471   4.147   6.163  0.0183 -0.9479  0.5108
  154DOPC   H5Y18514   6.658   4.142   6.142 -0.6908 -0.5556 -1.1899
  154DOPC   C3618515   6.548   4.230   5.982 -0.7152 -0.6785  0.0828
  154DOPC   H6X18516   6.473   4.309   5.962  0.4032  0.3479 -0.1719
  154DOPC   H6Y18517   6.645   4.270   5.948 -0.2930  0.6332  2.5652
  154DOPC   C3718518   6.505   4.101   5.909  0.3743  0.3209  0.0605
  154DOPC   H7X18519   6.593   4.034   5.895 -0.3298 -0.5821 -0.1300
  154DOPC   H7Y18520   6.439   4.045   5.978 -0.1617  0.8841  0.0159
  154DOPC   C3818521   6.428   4.128   5.782 -0.6902  0.3513 -0.5492
  154DOPC   H8X18522   6.354   4.210   5.794 -0.5836  0.4817 -0.7791
  154DOPC   H8Y18523   6.373   4.036   5.753 -1.2811  0.7172 -0.6273
  154DOPC   C3918524   6.521   4.171   5.671 -0.6136  0.2558 -0.9065
  154DOPC   H9X18525   6.540   4.279   5.671  0.0721  0.1391 -0.8542
  154DOPC  C31018526   6.589   4.093   5.583  0.2815  0.3234  0.2483
  154DOPC  H10X18527   6.659   4.147   5.517 -1.1019  2.2599  0.2753
  154DOPC  C31118528   6.580   3.941   5.577 -0.3769  0.5509 -0.5581
  154DOPC  H11X18529   6.474   3.914   5.601 -1.2582  2.3599 -2.1184
  154DOPC  H11Y18530   6.633   3.905   5.668 -0.6155 -0.0768 -0.6631
  154DOPC  C31218531   6.618   3.882   5.442 -0.3783 -0.4411  0.2476
  154DOPC  H12X18532   6.549   3.928   5.368 -0.8150 -0.7392  0.4675
  154DOPC  H12Y18533   6.606   3.772   5.435  2.2366 -0.8756  1.2935
  154DOPC  C31318534   6.769   3.895   5.408  0.7300 -0.1266  0.0437
  154DOPC  H13X18535   6.808   3.996   5.383 -1.0588 -0.0620 -3.1338
  154DOPC  H13Y18536   6.834   3.847   5.484 -0.8545 -1.0387  0.8778
  154DOPC  C31418537   6.791   3.815   5.282  0.1123 -0.4620 -1.0238
  154DOPC  H14X18538   6.754   3.711   5.295  0.9697 -0.6890 -0.3331
  154DOPC  H14Y18539   6.745   3.863   5.193 -0.0982  0.5810 -0.3749
  154DOPC  C31518540   6.944   3.802   5.247 -0.4985  0.3937  0.3969
  154DOPC  H15X18541   6.986   3.754   5.339 -0.4766 -1.1388 -0.3740
  154DOPC  H15Y18542   6.978   3.907   5.243 -0.4065  0.4071  1.2167
  154DOPC  C31618543   6.976   3.711   5.129 -0.2241 -0.1698  0.9135
  154DOPC  H16X18544   7.083   3.681   5.124 -1.0533 -3.2628 -0.9154
  154DOPC  H16Y18545   6.922   3.615   5.141  0.4587 -1.2409 -3.0726
  154DOPC  C31718546   6.934   3.773   4.993 -0.3345 -0.5268 -0.9804
  154DOPC  H17X18547   6.826   3.799   4.989 -0.1147  0.2738 -2.6021
  154DOPC  H17Y18548   6.980   3.875   4.999 -1.0432 -0.2161 -0.7396
  154DOPC  C31818549   6.988   3.711   4.865  0.0662 -0.0656 -0.3272
  154DOPC  H18X18550   7.098   3.701   4.863 -0.1668 -3.4872 -1.2439
  154DOPC  H18Y18551   6.954   3.606   4.859 -2.8680  0.8642 -4.1049
  154DOPC  H18Z18552   6.962   3.766   4.772 -0.3647  0.7114  0.2424
  155DOPC     N18553   3.367   2.145   7.505 -0.1745  0.7308 -0.2764
  155DOPC   C1218554   3.318   1.999   7.532 -0.0832  0.7848  0.2003
  155DOPC  H12A18555   3.214   2.018   7.552 -0.4977  0.6384 -1.6439
  155DOPC  H12B18556   3.357   1.961   7.625 -1.8214  1.4894  1.2503
  155DOPC   C1318557   3.291   2.198   7.391  1.0711  0.1041  0.3609
  155DOPC  H13A18558   3.188   2.220   7.418  0.3540 -0.9150 -1.3980
  155DOPC  H13B18559   3.339   2.287   7.355  1.8288 -0.6607 -0.5579
  155DOPC  H13C18560   3.288   2.129   7.308  2.1912  1.2178 -0.6461
  155DOPC   C1418561   3.507   2.151   7.459 -0.2736  0.1215 -0.2906
  155DOPC  H14A18562   3.586   2.117   7.524 -0.1949  2.7038  1.0909
  155DOPC  H14B18563   3.519   2.102   7.364 -0.6714  0.6224 -0.6009
  155DOPC  H14C18564   3.534   2.255   7.445  0.4923 -0.3677 -3.0414
  155DOPC   C1518565   3.351   2.228   7.629 -0.2661 -0.0402  0.8165
  155DOPC  H15A18566   3.395   2.179   7.715  1.6028 -1.2947 -0.7607
  155DOPC  H15B18567   3.245   2.241   7.644 -0.1358 -0.7823  2.7609
  155DOPC  H15C18568   3.392   2.328   7.625  1.9028 -0.9169 -0.8621
  155DOPC   C1118569   3.317   1.892   7.419 -0.0533  0.3917  0.4892
  155DOPC  H11A18570   3.422   1.871   7.390 -0.8018 -0.7080 -1.6082
  155DOPC  H11B18571   3.285   1.792   7.455  2.2777 -0.3172  0.7019
  155DOPC     P18572   3.214   1.843   7.184  0.0317 -0.1052 -0.1134
  155DOPC   O1318573   3.071   1.836   7.156  0.0003 -0.3878  0.2350
  155DOPC   O1418574   3.284   1.717   7.209 -0.2664  0.1795  0.3323
  155DOPC   O1218575   3.239   1.938   7.306 -0.5821  0.2451 -0.0524
  155DOPC   O1118576   3.286   1.910   7.071 -0.4416 -0.0208  0.1271
  155DOPC    C118577   3.274   2.055   7.060  0.3583  0.2315 -0.7491
  155DOPC    HA18578   3.364   2.104   7.104 -0.0134 -0.0281  0.3312
  155DOPC    HB18579   3.191   2.096   7.122  0.2067 -1.0282 -0.0956
  155DOPC    C218580   3.250   2.091   6.911 -0.2609 -0.2252 -0.1599
  155DOPC    HS18581   3.225   2.199   6.907  0.2932 -0.0190  1.3291
  155DOPC   O2118582   3.151   2.003   6.852  0.3901 -0.2756  0.3189
  155DOPC   C2118583   3.025   2.039   6.894  0.2433  0.6437  0.0215
  155DOPC   O2218584   3.002   2.137   6.963  0.1118  0.2338 -0.1655
  155DOPC   C2218585   2.920   1.938   6.853  0.6998  0.0195  0.1222
  155DOPC   H2R18586   2.897   1.885   6.948 -0.1113  0.6587  0.3013
  155DOPC   H2S18587   2.959   1.860   6.784 -1.7630 -1.1439 -0.0941
  155DOPC    C318588   3.384   2.072   6.830 -0.1049 -0.0049 -0.0250
  155DOPC    HX18589   3.411   1.965   6.843 -0.2713 -0.4234 -2.5855
  155DOPC    HY18590   3.463   2.142   6.863 -0.6769  1.2119 -1.1583
  155DOPC   O3118591   3.365   2.104   6.688 -0.1934  0.6027  0.0802
  155DOPC   C3118592   3.338   2.013   6.601  0.0608 -0.1179  0.7415
  155DOPC   O3218593   3.330   1.891   6.616  0.2404 -0.8779  0.7868
  155DOPC   C3218594   3.332   2.075   6.463  0.4271  1.1060 -0.4020
  155DOPC   H2X18595   3.224   2.095   6.446 -0.4533 -1.7584  1.0894
  155DOPC   H2Y18596   3.395   2.166   6.453 -0.5103  1.4737 -4.3892
  155DOPC   C2318597   2.788   1.993   6.792  0.0507  0.0446 -0.3045
  155DOPC   H3R18598   2.741   2.064   6.864 -1.1610 -0.6061 -0.4377
  155DOPC   H3S18599   2.719   1.908   6.776  1.7669 -1.6100  0.6801
  155DOPC   C2418600   2.805   2.081   6.657 -0.5629  0.0970 -0.2923
  155DOPC   H4R18601   2.881   2.160   6.675 -1.3214  1.1840 -1.6628
  155DOPC   H4S18602   2.710   2.139   6.651 -0.3600  0.4703  0.0645
  155DOPC   C2518603   2.845   1.990   6.532  0.5361 -0.4077 -0.8307
  155DOPC   H5R18604   2.766   1.913   6.523  0.9929 -1.0088  0.0966
  155DOPC   H5S18605   2.939   1.933   6.551 -0.3200 -1.4094  0.6453
  155DOPC   C2618606   2.844   2.076   6.404  0.4793  0.1187 -0.3293
  155DOPC   H6R18607   2.935   2.140   6.396 -0.9950  2.0150 -3.4964
  155DOPC   H6S18608   2.762   2.151   6.408  0.9360  0.6224 -0.2714
  155DOPC   C2718609   2.830   1.992   6.277  0.6619  0.9710 -0.0012
  155DOPC   H7R18610   2.722   1.972   6.259  0.2435  1.6884  1.5651
  155DOPC   H7S18611   2.887   1.898   6.293  1.3422  1.5512  1.0677
  155DOPC   C2818612   2.885   2.062   6.147  0.4564  0.8441  0.1712
  155DOPC   H8R18613   2.833   2.159   6.131 -1.0483  0.0063 -0.2257
  155DOPC   H8S18614   2.851   2.011   6.054  0.3479  0.3781  0.4675
  155DOPC   C2918615   3.033   2.081   6.153  0.1996  0.0409  0.5070
  155DOPC   H9R18616   3.086   2.020   6.227  2.0633  0.2597 -0.5966
  155DOPC  C21018617   3.113   2.148   6.077  0.5984  0.1301  0.7386
  155DOPC  H10R18618   3.223   2.159   6.086  0.8177 -2.0364  1.1118
  155DOPC  C21118619   3.070   2.228   5.960 -0.5517 -0.4696  0.2370
  155DOPC  H11R18620   3.129   2.321   5.942  0.3418 -1.3022 -1.3012
  155DOPC  H11S18621   2.966   2.265   5.977 -1.7115 -2.0084 -2.7657
  155DOPC  C21218622   3.053   2.151   5.830 -0.0463  0.0442  0.4590
  155DOPC  H12R18623   2.986   2.201   5.757  0.1031 -0.1032  0.2204
  155DOPC  H12S18624   3.001   2.056   5.852 -1.4016  0.4992 -0.6674
  155DOPC  C21318625   3.192   2.117   5.764  0.1857  0.7643 -0.7792
  155DOPC  H13R18626   3.256   2.074   5.845 -0.1004 -0.2388 -1.0694
  155DOPC  H13S18627   3.232   2.219   5.750  1.1594  0.5898  0.4955
  155DOPC  C21418628   3.186   2.029   5.640 -0.2022  0.4964 -0.0930
  155DOPC  H14R18629   3.103   2.046   5.568 -0.7480 -0.6186  0.2588
  155DOPC  H14S18630   3.174   1.923   5.671 -0.7531  1.2391  2.4717
  155DOPC  C21518631   3.321   2.029   5.548  0.2080 -0.5951  0.5255
  155DOPC  H15R18632   3.333   2.134   5.513  1.1424 -0.7206  0.4416
  155DOPC  H15S18633   3.301   1.963   5.461  1.9530  0.3682 -0.6446
  155DOPC  C21618634   3.451   1.987   5.622  0.1658  0.0041 -0.3868
  155DOPC  H16R18635   3.427   1.906   5.694 -0.0166  2.8446  2.9918
  155DOPC  H16S18636   3.485   2.067   5.691  1.3671  0.2022 -1.1681
  155DOPC  C21718637   3.577   1.948   5.538  0.2872 -0.1442  0.4925
  155DOPC  H17R18638   3.621   2.038   5.490 -2.4066  0.2568 -1.4491
  155DOPC  H17S18639   3.543   1.874   5.462 -0.7725  2.0673 -1.2781
  155DOPC  C21818640   3.686   1.885   5.627 -0.2974  0.1905  0.3450
  155DOPC  H18R18641   3.764   1.859   5.552 -0.5779 -0.7890  0.3755
  155DOPC  H18S18642   3.641   1.798   5.680  1.3229 -1.2611 -0.5310
  155DOPC  H18T18643   3.735   1.949   5.703  0.2850  0.7316 -0.4760
  155DOPC   C3318644   3.360   1.963   6.353  0.0576  0.0402  0.4514
  155DOPC   H3X18645   3.321   1.988   6.252  0.2291 -2.5994 -0.3473
  155DOPC   H3Y18646   3.331   1.862   6.389  1.0448  0.0270  1.2374
  155DOPC   C3418647   3.516   1.959   6.329  0.0734  0.3752  0.1786
  155DOPC   H4X18648   3.541   1.853   6.309 -3.2442 -0.4868  0.1650
  155DOPC   H4Y18649   3.566   1.988   6.424 -0.3786 -0.2222  0.6013
  155DOPC   C3518650   3.566   2.033   6.204 -0.0096 -0.2539  0.3029
  155DOPC   H5X18651   3.537   2.140   6.215 -1.8496 -0.7716  0.8374
  155DOPC   H5Y18652   3.511   2.000   6.113  1.3501 -2.0381  0.0597
  155DOPC   C3618653   3.719   2.023   6.172 -0.4478  0.1512 -0.7186
  155DOPC   H6X18654   3.744   2.106   6.102  0.9419  1.1246  0.8648
  155DOPC   H6Y18655   3.781   2.047   6.260 -0.4530  2.2925 -1.2285
  155DOPC   C3718656   3.757   1.885   6.120 -0.1602 -0.5102 -0.1253
  155DOPC   H7X18657   3.714   1.802   6.180  0.9445 -0.0769  1.3239
  155DOPC   H7Y18658   3.708   1.893   6.021 -1.0013 -1.0113  0.2371
  155DOPC   C3818659   3.908   1.872   6.106 -0.1305 -0.3252 -0.3292
  155DOPC   H8X18660   3.960   1.841   6.199  1.6829 -1.0895 -1.5455
  155DOPC   H8Y18661   3.957   1.959   6.057  0.2357 -0.6571 -0.5604
  155DOPC   C3918662   3.930   1.746   6.022  0.0579  0.5782 -0.4066
  155DOPC   H9X18663   3.908   1.655   6.079  2.1510  1.1786  1.5098
  155DOPC  C31018664   3.989   1.735   5.902  0.0481  0.3834  0.5089
  155DOPC  H10X18665   4.017   1.633   5.872 -0.6108  0.5468 -0.6988
  155DOPC  C31118666   4.047   1.844   5.814  0.0707 -0.5925 -0.1290
  155DOPC  H11X18667   4.022   1.939   5.866 -0.6834 -1.3128  0.8683
  155DOPC  H11Y18668   3.993   1.846   5.716  0.4853 -0.4599 -0.3563
  155DOPC  C31218669   4.198   1.818   5.769 -0.4261 -0.3654 -0.3219
  155DOPC  H12X18670   4.223   1.888   5.687 -0.9096 -0.5368 -0.6174
  155DOPC  H12Y18671   4.207   1.719   5.719 -1.8411  0.0610 -1.4912
  155DOPC  C31318672   4.314   1.828   5.880 -0.1687 -0.1414 -0.8546
  155DOPC  H13X18673   4.281   1.759   5.960  1.0219  0.8681  0.5447
  155DOPC  H13Y18674   4.410   1.800   5.832 -1.3052 -1.4767 -2.4799
  155DOPC  C31418675   4.344   1.967   5.934 -0.7825 -0.3177  0.4742
  155DOPC  H14X18676   4.333   2.044   5.854 -1.0619  0.9092  1.6451
  155DOPC  H14Y18677   4.279   1.992   6.021  1.6586 -0.7493  2.5421
  155DOPC  C31518678   4.491   1.985   5.984  0.4096  0.6196  0.7787
  155DOPC  H15X18679   4.523   2.090   6.001  0.2057  1.0174 -1.1122
  155DOPC  H15Y18680   4.554   1.935   5.908 -0.4060  1.2044 -0.3218
  155DOPC  C31618681   4.516   1.892   6.105 -0.8202  0.7141 -0.4286
  155DOPC  H16X18682   4.459   1.929   6.194 -0.5458  2.2857 -0.8814
  155DOPC  H16Y18683   4.490   1.786   6.086  0.7389  0.4360 -1.0799
  155DOPC  C31718684   4.661   1.902   6.143 -0.3164 -0.2571 -0.0472
  155DOPC  H17X18685   4.690   2.008   6.164 -0.0629 -0.4739  0.7265
  155DOPC  H17Y18686   4.686   1.839   6.231 -2.2219 -0.3490  0.4575
  155DOPC  C31818687   4.749   1.855   6.034 -0.5264  0.5612  0.0449
  155DOPC  H18X18688   4.753   1.919   5.943  0.5073  0.4088 -0.0271
  155DOPC  H18Y18689   4.856   1.842   6.060  0.1086  0.9128 -2.1802
  155DOPC  H18Z18690   4.720   1.752   6.001  0.1652 -0.4304  2.3754
  156DOPC     N18691   0.335   5.895   7.111 -0.2848 -0.1089  0.2336
  156DOPC   C1218692   0.351   5.944   6.972  0.5416 -0.5482 -0.3160
  156DOPC  H12A18693   0.294   5.884   6.902  2.7713 -0.7757 -2.0336
  156DOPC  H12B18694   0.452   5.929   6.936 -0.4222  0.2445 -3.6840
  156DOPC   C1318695   0.355   5.746   7.107 -0.1359  0.1222  0.2722
  156DOPC  H13A18696   0.345   5.694   7.201  0.8717 -3.3923 -1.4304
  156DOPC  H13B18697   0.278   5.697   7.050  1.5133 -3.3369  0.7751
  156DOPC  H13C18698   0.455   5.718   7.077 -0.4051 -0.4990 -0.0448
  156DOPC   C1418699   0.191   5.910   7.155 -0.2516 -0.1102  0.0139
  156DOPC  H14A18700   0.133   5.843   7.092  3.9724 -3.8337 -0.3700
  156DOPC  H14B18701   0.179   5.882   7.258  3.6490 -0.8363  0.4085
  156DOPC  H14C18702   0.162   6.014   7.146 -0.3941 -0.2491 -1.5548
  156DOPC   C1518703   0.426   5.958   7.206 -0.5384 -0.2786  0.1310
  156DOPC  H15A18704   0.405   5.931   7.309  1.6794 -1.1682  0.4180
  156DOPC  H15B18705   0.417   6.065   7.204  0.3099 -0.1641 -3.0955
  156DOPC  H15C18706   0.528   5.925   7.192 -0.5714  0.1854 -1.3217
  156DOPC   C1118707   0.326   6.097   6.943 -0.2814  0.2535 -0.6207
  156DOPC  H11A18708   0.390   6.154   7.013 -1.3126  0.6991 -0.0156
  156DOPC  H11B18709   0.366   6.116   6.841  2.0099  1.2924  0.4039
  156DOPC     P18710   0.080   6.107   6.858 -0.4105 -0.1274 -0.0605
  156DOPC   O1318711  -0.036   6.202   6.867  0.5755  0.5511  0.2204
  156DOPC   O1418712   0.050   5.966   6.870 -0.5438  0.6280  0.1939
  156DOPC   O1218713   0.189   6.151   6.970  0.3658  0.1849 -0.6747
  156DOPC   O1118714   0.152   6.130   6.722  0.3610 -0.4656  0.3773
  156DOPC    C118715   0.143   6.248   6.648  0.7262 -0.8181  0.4661
  156DOPC    HA18716   0.244   6.285   6.622  1.1379  0.3035  3.3697
  156DOPC    HB18717   0.092   6.330   6.704 -1.1882 -3.1968  2.4136
  156DOPC    C218718   0.063   6.221   6.520  0.2144 -0.0705  0.3259
  156DOPC    HS18719  -0.046   6.214   6.540 -0.1599  2.0085 -0.7408
  156DOPC   O2118720   0.122   6.106   6.465  0.0291  0.4027  1.1652
  156DOPC   C2118721   0.040   6.006   6.428 -0.3940 -0.6546  0.2302
  156DOPC   O2218722  -0.082   6.006   6.434 -0.1125  0.1455 -0.0121
  156DOPC   C2218723   0.129   5.891   6.384  0.7648 -0.3345 -0.5793
  156DOPC   H2R18724   0.098   5.798   6.435 -3.5396 -0.1761 -2.4430
  156DOPC   H2S18725   0.234   5.921   6.403  0.0681  0.9107  1.6362
  156DOPC    C318726   0.070   6.337   6.415  0.3056 -0.0638 -0.5326
  156DOPC    HX18727   0.177   6.364   6.403  0.2571  0.8040  0.7639
  156DOPC    HY18728   0.019   6.426   6.460  0.6678  0.0841 -0.4073
  156DOPC   O3118729   0.007   6.299   6.289  0.6164 -0.9021  0.4061
  156DOPC   C3118730  -0.126   6.303   6.291  0.0294  0.6603 -0.4300
  156DOPC   O3218731  -0.192   6.348   6.385  0.4577  0.1942 -0.5240
  156DOPC   C3218732  -0.176   6.262   6.154  0.3880 -0.0949  0.0096
  156DOPC   H2X18733  -0.169   6.353   6.090 -3.9408  0.7776  0.4478
  156DOPC   H2Y18734  -0.110   6.183   6.114  0.6541 -0.0448  0.3473
  156DOPC   C2318735   0.120   5.855   6.237  0.1426  0.4088 -0.1961
  156DOPC   H3R18736   0.206   5.791   6.208  0.5694  0.2008  1.4351
  156DOPC   H3S18737   0.131   5.947   6.174 -2.0315  1.9060  1.4445
  156DOPC   C2418738   0.006   5.767   6.197 -0.5110 -0.4722  0.3358
  156DOPC   H4R18739  -0.084   5.796   6.256 -2.2057  0.5902 -2.5658
  156DOPC   H4S18740   0.026   5.659   6.215  0.3277 -0.4727 -0.5583
  156DOPC   C2518741  -0.028   5.783   6.037  0.5135  0.2309 -0.8606
  156DOPC   H5R18742  -0.027   5.892   6.020  0.3809  0.4711  0.5387
  156DOPC   H5S18743  -0.133   5.752   6.018  0.4504  0.5109 -0.9644
  156DOPC   C2618744   0.073   5.708   5.953  0.5306  0.2452 -0.4743
  156DOPC   H6R18745   0.072   5.600   5.979 -0.3545  0.1600 -0.8075
  156DOPC   H6S18746   0.173   5.750   5.976  1.7363 -3.1348  1.2316
  156DOPC   C2718747   0.040   5.713   5.806 -0.1239 -0.1257  0.0450
  156DOPC   H7R18748   0.027   5.822   5.792 -0.3433 -0.3658 -1.8024
  156DOPC   H7S18749  -0.053   5.656   5.786 -0.8394  1.7452 -2.3621
  156DOPC   C2818750   0.150   5.655   5.714  0.0536 -0.0635 -0.2941
  156DOPC   H8R18751   0.108   5.638   5.612  0.3745  0.8376 -0.5920
  156DOPC   H8S18752   0.181   5.556   5.753 -3.1170 -1.8358 -1.8680
  156DOPC   C2918753   0.254   5.763   5.708  0.2619  0.0868  0.0033
  156DOPC   H9R18754   0.208   5.862   5.711  0.1190  0.0106  2.8150
  156DOPC  C21018755   0.388   5.744   5.717 -0.6780 -0.2323 -0.5026
  156DOPC  H10R18756   0.460   5.826   5.703 -1.1294  0.3085  0.2300
  156DOPC  C21118757   0.456   5.609   5.735 -0.3901  0.1952 -0.9187
  156DOPC  H11R18758   0.394   5.520   5.761 -2.1614  1.8277  0.7764
  156DOPC  H11S18759   0.523   5.622   5.822  0.5542 -1.4239 -1.3734
  156DOPC  C21218760   0.532   5.564   5.615  0.2516 -0.0262  0.3503
  156DOPC  H12R18761   0.587   5.468   5.627  0.5731 -0.2870 -2.3860
  156DOPC  H12S18762   0.605   5.641   5.582  0.6320  0.0607  1.3698
  156DOPC  C21318763   0.437   5.528   5.503  0.2788  0.0026  0.1177
  156DOPC  H13R18764   0.376   5.618   5.477 -1.9097 -1.5468 -0.4009
  156DOPC  H13S18765   0.371   5.451   5.548 -0.3196  0.6508  0.3850
  156DOPC  C21418766   0.504   5.487   5.365 -0.1925 -0.0095 -0.2096
  156DOPC  H14R18767   0.556   5.391   5.385  0.9144  0.7635  0.7586
  156DOPC  H14S18768   0.578   5.568   5.345  0.9939 -1.3927 -1.7416
  156DOPC  C21518769   0.409   5.475   5.250 -0.7218 -0.2512 -0.5139
  156DOPC  H15R18770   0.392   5.576   5.207 -0.0576  0.5914  1.1542
  156DOPC  H15S18771   0.314   5.425   5.281  0.2376 -1.7629  0.1065
  156DOPC  C21618772   0.460   5.370   5.145 -0.8618 -0.1040 -1.2400
  156DOPC  H16R18773   0.490   5.280   5.203  0.9477  0.8762 -0.5972
  156DOPC  H16S18774   0.552   5.412   5.100 -0.0134 -0.9896 -0.3668
  156DOPC  C21718775   0.370   5.340   5.028  0.0202 -0.2551  0.3261
  156DOPC  H17R18776   0.381   5.420   4.952 -0.8599 -1.1297 -0.7548
  156DOPC  H17S18777   0.264   5.331   5.061  0.2145  0.4526  1.1994
  156DOPC  C21818778   0.418   5.204   4.963 -0.6776  0.2588  0.3256
  156DOPC  H18R18779   0.418   5.133   5.049  0.8681  1.0830  1.0473
  156DOPC  H18S18780   0.523   5.213   4.927 -0.9739  0.5235 -0.4849
  156DOPC  H18T18781   0.352   5.167   4.882 -1.7761 -0.1780  1.3836
  156DOPC   C3318782  -0.322   6.206   6.145  0.5326  0.3095 -0.0129
  156DOPC   H3X18783  -0.383   6.268   6.215  1.9796  0.7317  0.9151
  156DOPC   H3Y18784  -0.329   6.104   6.190  1.2719  1.2912  2.5055
  156DOPC   C3418785  -0.364   6.216   6.001 -0.1304 -0.8613 -0.0005
  156DOPC   H4X18786  -0.281   6.176   5.939 -0.8851  0.6385 -2.1181
  156DOPC   H4Y18787  -0.371   6.316   5.953  1.8548 -1.2671 -1.2431
  156DOPC   C3518788  -0.484   6.137   5.966 -0.4162  0.9388 -0.5798
  156DOPC   H5X18789  -0.568   6.167   6.033 -0.4098  0.8874 -0.5482
  156DOPC   H5Y18790  -0.473   6.029   5.987 -0.8912  0.7753 -1.1423
  156DOPC   C3618791  -0.533   6.150   5.822  0.2123  0.0896 -0.1403
  156DOPC   H6X18792  -0.629   6.094   5.813 -0.2210  0.7858  0.0361
  156DOPC   H6Y18793  -0.558   6.257   5.806 -2.6353 -0.4248  0.2150
  156DOPC   C3718794  -0.424   6.101   5.725  0.0265 -0.4193  0.4518
  156DOPC   H7X18795  -0.339   6.173   5.722  0.8339 -1.3755 -0.0628
  156DOPC   H7Y18796  -0.388   6.004   5.764 -0.8071 -1.5288 -1.3771
  156DOPC   C3818797  -0.471   6.069   5.580 -0.5554 -0.2856 -0.1976
  156DOPC   H8X18798  -0.392   6.018   5.521  0.1200 -1.2523  1.4708
  156DOPC   H8Y18799  -0.487   6.166   5.529 -2.6918 -0.1370  0.6581
  156DOPC   C3918800  -0.594   5.982   5.563 -0.4363  0.4457 -0.2365
  156DOPC   H9X18801  -0.611   5.910   5.645  1.0636  0.7943  0.4145
  156DOPC  C31018802  -0.697   6.003   5.481  0.1906 -0.7265 -0.0207
  156DOPC  H10X18803  -0.785   5.938   5.486 -1.4226  1.3712  0.0588
  156DOPC  C31118804  -0.719   6.120   5.387  0.2440 -0.4824  0.1652
  156DOPC  H11X18805  -0.764   6.083   5.293 -0.4232 -0.8507  0.6208
  156DOPC  H11Y18806  -0.620   6.169   5.376  0.3263 -0.6620  0.0977
  156DOPC  C31218807  -0.815   6.222   5.442 -0.0973  0.0010 -0.4251
  156DOPC  H12X18808  -0.772   6.261   5.538  0.6126 -0.9627 -0.3336
  156DOPC  H12Y18809  -0.913   6.172   5.453  0.3063 -1.0815 -1.5820
  156DOPC  C31318810  -0.830   6.344   5.352  0.4595 -0.0414 -0.3044
  156DOPC  H13X18811  -0.730   6.388   5.335  0.6952 -0.3936  0.1597
  156DOPC  H13Y18812  -0.879   6.323   5.255  0.3170 -0.3571 -0.1674
  156DOPC  C31418813  -0.915   6.457   5.422 -0.4112 -0.6194  0.6396
  156DOPC  H14X18814  -1.024   6.437   5.421 -0.0741 -2.7239 -0.7015
  156DOPC  H14Y18815  -0.880   6.483   5.524 -1.9606  0.9000  0.8234
  156DOPC  C31518816  -0.901   6.596   5.344  1.1161  0.9965 -0.4746
  156DOPC  H15X18817  -0.795   6.627   5.337  1.6355 -0.5547  0.1952
  156DOPC  H15Y18818  -0.965   6.667   5.401 -0.4947  1.0768 -2.2534
  156DOPC  C31618819  -0.948   6.589   5.199 -0.0534 -0.4869 -0.2628
  156DOPC  H16X18820  -0.904   6.509   5.136  1.2794 -0.0648  0.0844
  156DOPC  H16Y18821  -1.059   6.593   5.200 -0.0565  0.7343 -1.7527
  156DOPC  C31718822  -0.897   6.716   5.125  0.4445 -0.0843  0.4496
  156DOPC  H17X18823  -0.902   6.799   5.198  0.4190 -1.0276  1.5408
  156DOPC  H17Y18824  -0.789   6.708   5.100  0.5157 -0.6319  0.9218
  156DOPC  C31818825  -0.976   6.744   5.003  1.1611  0.3204 -0.5394
  156DOPC  H18X18826  -0.943   6.839   4.956 -1.4231  0.2809 -2.6589
  156DOPC  H18Y18827  -0.970   6.659   4.932  1.0092 -0.2550  0.1229
  156DOPC  H18Z18828  -1.082   6.766   5.025  1.3634  1.7587 -0.8790
  157DOPC     N18829   7.262   1.239   7.515 -0.4418 -0.0849  0.7343
  157DOPC   C1218830   7.257   1.338   7.397 -0.1178 -0.2514  0.4195
  157DOPC  H12A18831   7.357   1.340   7.358 -0.2274  1.8830  0.1661
  157DOPC  H12B18832   7.236   1.432   7.446 -0.5786  0.1247 -0.4910
  157DOPC   C1318833   7.345   1.282   7.623  0.3090 -0.2740  0.2002
  157DOPC  H13A18834   7.440   1.300   7.575 -1.5680 -0.1686 -3.8733
  157DOPC  H13B18835   7.319   1.364   7.689  1.3896 -1.4733  2.2515
  157DOPC  H13C18836   7.339   1.201   7.695 -3.3152  1.5333  2.2465
  157DOPC   C1418837   7.308   1.105   7.468  0.2954 -0.2386 -0.5369
  157DOPC  H14A18838   7.243   1.085   7.384 -2.4080  2.1647  0.8094
  157DOPC  H14B18839   7.414   1.099   7.449 -0.0044 -2.8536 -1.8477
  157DOPC  H14C18840   7.271   1.038   7.544  0.7384 -0.1864 -0.2721
  157DOPC   C1518841   7.127   1.225   7.569 -0.0364  0.1316 -0.7318
  157DOPC  H15A18842   7.065   1.170   7.500  0.6324 -0.1207 -1.1511
  157DOPC  H15B18843   7.069   1.316   7.575  0.7752  0.5502  1.4355
  157DOPC  H15C18844   7.126   1.179   7.666 -0.1974  0.3243 -0.6419
  157DOPC   C1118845   7.155   1.302   7.283 -0.4824 -0.0289 -0.6555
  157DOPC  H11A18846   7.054   1.310   7.327 -0.5123  1.1932 -0.9386
  157DOPC  H11B18847   7.159   1.388   7.214 -2.2085 -1.1144 -2.1798
  157DOPC     P18848   7.321   1.167   7.120  0.1777 -0.2609 -0.1622
  157DOPC   O1318849   7.347   1.022   7.106  0.1591  0.0420  0.2597
  157DOPC   O1418850   7.429   1.262   7.160 -0.2534  0.1723 -0.6842
  157DOPC   O1218851   7.187   1.185   7.208 -0.1899 -0.0698  0.2470
  157DOPC   O1118852   7.271   1.218   6.975  0.0941 -0.0305  0.0622
  157DOPC    C118853   7.148   1.152   6.937 -0.0537  0.6022 -0.2580
  157DOPC    HA18854   7.066   1.151   7.013 -0.2422 -0.2726 -0.4583
  157DOPC    HB18855   7.167   1.044   6.919  1.4317  0.6178  0.9860
  157DOPC    C218856   7.078   1.228   6.820  0.2978  0.0572  0.2459
  157DOPC    HS18857   6.970   1.203   6.811 -0.0038  1.5216 -0.5950
  157DOPC   O2118858   7.148   1.207   6.693  0.3768  0.1297 -0.3829
  157DOPC   C2118859   7.151   1.081   6.662 -0.1578 -0.3958  0.0902
  157DOPC   O2218860   7.070   0.994   6.702 -0.0344  0.1530 -0.0345
  157DOPC   C2218861   7.245   1.060   6.541  0.3827 -0.1660  0.0491
  157DOPC   H2R18862   7.305   0.969   6.561  1.2681  0.7736  1.8877
  157DOPC   H2S18863   7.310   1.150   6.543  1.3851 -0.8756  1.5433
  157DOPC    C318864   7.074   1.378   6.842  0.9005 -0.1497 -0.3195
  157DOPC    HX18865   7.011   1.418   6.759 -0.4335  2.3791  1.7922
  157DOPC    HY18866   7.183   1.402   6.849  1.0941 -0.4524 -1.8241
  157DOPC   O3118867   7.008   1.400   6.967 -0.2628  0.3827  0.5640
  157DOPC   C3118868   6.987   1.521   6.995  0.9811  0.1191  0.3917
  157DOPC   O3218869   7.015   1.613   6.927 -0.3859  0.0351 -0.4224
  157DOPC   C3218870   6.889   1.537   7.114  0.4157 -0.2010 -0.0318
  157DOPC   H2X18871   6.897   1.449   7.182 -2.3864 -0.8118 -0.3623
  157DOPC   H2Y18872   6.926   1.629   7.165  0.4834  0.2781 -0.9201
  157DOPC   C2318873   7.161   1.048   6.412  0.1418 -0.7132  0.3891
  157DOPC   H3R18874   7.100   1.137   6.390 -0.3376 -1.2274 -0.4122
  157DOPC   H3S18875   7.084   0.969   6.428  1.0298 -1.5652  0.5595
  157DOPC   C2418876   7.236   1.021   6.281 -0.3310 -0.2376 -1.0242
  157DOPC   H4R18877   7.259   0.915   6.259  0.0360 -0.0646 -1.5294
  157DOPC   H4S18878   7.335   1.065   6.305 -1.5119  1.1145  1.8026
  157DOPC   C2518879   7.187   1.096   6.155  0.6189 -0.1459  0.0025
  157DOPC   H5R18880   7.155   1.196   6.192  1.8450  0.7136 -1.1686
  157DOPC   H5S18881   7.102   1.043   6.107  0.9812  0.2895 -1.1485
  157DOPC   C2618882   7.298   1.115   6.048  0.1836 -0.1137  0.7363
  157DOPC   H6R18883   7.338   1.013   6.027  0.7515  0.9300 -4.3233
  157DOPC   H6S18884   7.369   1.183   6.100 -0.1008 -0.2663  1.3366
  157DOPC   C2718885   7.256   1.182   5.920 -0.8789 -0.0952  0.2213
  157DOPC   H7R18886   7.208   1.105   5.855  0.2135  1.6126 -2.7752
  157DOPC   H7S18887   7.349   1.218   5.872 -0.0659  1.6783  2.9001
  157DOPC   C2818888   7.166   1.304   5.943 -0.6291 -0.3537  0.0198
  157DOPC   H8R18889   7.227   1.371   6.007 -1.8880  1.2626 -0.3856
  157DOPC   H8S18890   7.085   1.281   6.016 -0.2817 -0.5349  0.3514
  157DOPC   C2918891   7.133   1.372   5.813  0.9757 -0.3836 -0.4479
  157DOPC   H9R18892   7.046   1.331   5.759  0.6521  0.8883 -0.9259
  157DOPC  C21018893   7.200   1.470   5.756  0.3293  0.1982  0.3224
  157DOPC  H10R18894   7.166   1.497   5.655  0.1240 -0.0010  0.3365
  157DOPC  C21118895   7.324   1.536   5.797  0.8770 -0.2781 -0.1601
  157DOPC  H11R18896   7.398   1.544   5.715 -0.1153  0.6878 -0.9941
  157DOPC  H11S18897   7.369   1.480   5.881 -0.4014 -1.8221 -0.4723
  157DOPC  C21218898   7.288   1.679   5.848 -0.4481 -0.8050  0.1423
  157DOPC  H12R18899   7.221   1.740   5.784 -2.2359  0.3990  2.9532
  157DOPC  H12S18900   7.386   1.731   5.850 -1.1779  0.7298 -1.6816
  157DOPC  C21318901   7.219   1.683   5.987 -0.0253  0.1596  0.4288
  157DOPC  H13R18902   7.257   1.596   6.045  0.3596 -0.5114 -0.8120
  157DOPC  H13S18903   7.109   1.669   5.982  0.0022 -0.4355  1.3148
  157DOPC  C21418904   7.255   1.806   6.074  0.3437  0.8734 -0.6268
  157DOPC  H14R18905   7.193   1.813   6.167 -0.9072  3.4473 -1.5326
  157DOPC  H14S18906   7.213   1.891   6.016 -2.9664 -1.7074 -2.3883
  157DOPC  C21518907   7.404   1.809   6.120 -0.0205 -0.0604  0.1473
  157DOPC  H15R18908   7.477   1.821   6.037  1.3727 -0.7607  1.2287
  157DOPC  H15S18909   7.437   1.709   6.156  2.1234 -0.1520 -1.8896
  157DOPC  C21618910   7.423   1.922   6.220 -0.3906  0.0295 -0.3374
  157DOPC  H16R18911   7.369   1.887   6.310 -1.2148  2.2498  0.0918
  157DOPC  H16S18912   7.386   2.023   6.190  2.3941  0.8304 -1.4083
  157DOPC  C21718913   7.569   1.941   6.270 -0.1407  0.7541  0.2430
  157DOPC  H17R18914   7.640   1.985   6.196  1.0672  0.0752  0.9691
  157DOPC  H17S18915   7.607   1.840   6.293 -1.5606 -0.8644 -3.7095
  157DOPC  C21818916   7.588   2.016   6.396  0.0469 -0.6088 -0.3472
  157DOPC  H18R18917   7.513   1.976   6.468 -0.0313 -0.9273 -0.5994
  157DOPC  H18S18918   7.544   2.117   6.381 -0.6390 -0.9767 -0.8675
  157DOPC  H18T18919   7.691   2.019   6.437  0.6308 -0.1918 -1.7705
  157DOPC   C3318920   6.735   1.545   7.064 -0.0897 -0.1791 -0.3325
  157DOPC   H3X18921   6.653   1.538   7.138 -2.6793  0.9324 -2.9254
  157DOPC   H3Y18922   6.720   1.462   6.992  1.3415  0.1847 -1.0945
  157DOPC   C3418923   6.704   1.673   6.998  0.0744  0.4509  0.6897
  157DOPC   H4X18924   6.766   1.685   6.907 -0.2839 -0.1323  0.3661
  157DOPC   H4Y18925   6.728   1.755   7.070 -1.4221  0.1570  1.5591
  157DOPC   C3518926   6.557   1.683   6.955 -0.4412  0.3108  0.0857
  157DOPC   H5X18927   6.499   1.698   7.048 -2.2934 -0.2447 -0.9371
  157DOPC   H5Y18928   6.526   1.588   6.908 -0.0730  0.8387 -1.2976
  157DOPC   C3618929   6.518   1.787   6.850 -0.0585  0.5780  0.1575
  157DOPC   H6X18930   6.409   1.802   6.839 -0.0636 -0.7851 -2.1538
  157DOPC   H6Y18931   6.539   1.888   6.891  0.4190 -0.3244  2.2388
  157DOPC   C3718932   6.580   1.757   6.711 -0.5854  0.3185 -0.6424
  157DOPC   H7X18933   6.690   1.765   6.716 -0.0969 -4.2350  1.4761
  157DOPC   H7Y18934   6.566   1.655   6.669  2.3680 -1.1067  1.4442
  157DOPC   C3818935   6.527   1.865   6.616  0.1331 -0.6224 -0.1936
  157DOPC   H8X18936   6.570   1.961   6.651  2.0450 -1.5194  0.0797
  157DOPC   H8Y18937   6.419   1.884   6.633  0.7228  1.9641  1.2125
  157DOPC   C3918938   6.559   1.840   6.472  0.0976 -0.0915  0.2355
  157DOPC   H9X18939   6.661   1.865   6.439  0.1593  0.4690  0.8369
  157DOPC  C31018940   6.476   1.801   6.370  0.6598  0.5285  0.2139
  157DOPC  H10X18941   6.516   1.802   6.268  0.0916  1.5461 -0.0057
  157DOPC  C31118942   6.328   1.772   6.381  0.2621  0.3629 -0.4953
  157DOPC  H11X18943   6.297   1.804   6.483  2.0363 -0.5737  0.3893
  157DOPC  H11Y18944   6.318   1.662   6.365 -0.4276  0.4611 -0.7795
  157DOPC  C31218945   6.246   1.856   6.286 -0.0763 -1.2499 -0.3309
  157DOPC  H12X18946   6.152   1.804   6.257 -0.6063  0.6014 -2.1595
  157DOPC  H12Y18947   6.304   1.874   6.193  1.3467 -1.3933  0.5005
  157DOPC  C31318948   6.210   1.998   6.343  0.1318  0.2762 -0.4382
  157DOPC  H13X18949   6.141   1.985   6.428  0.5084  3.8708  0.5849
  157DOPC  H13Y18950   6.300   2.057   6.372  0.5887 -1.3050  1.5385
  157DOPC  C31418951   6.136   2.079   6.243 -0.1214 -0.1153  0.1700
  157DOPC  H14X18952   6.200   2.085   6.152  1.3544  1.3026  1.2401
  157DOPC  H14Y18953   6.049   2.012   6.227  0.8995 -1.2904 -0.6973
  157DOPC  C31518954   6.106   2.223   6.285 -0.4564 -0.4229  0.5546
  157DOPC  H15X18955   6.205   2.271   6.302 -0.7176  1.1470 -1.8685
  157DOPC  H15Y18956   6.048   2.220   6.380  1.0303 -1.5057  1.4648
  157DOPC  C31618957   6.017   2.298   6.185  0.7692  0.2595 -0.2321
  157DOPC  H16X18958   6.007   2.404   6.215 -2.2985 -0.1217  0.4516
  157DOPC  H16Y18959   6.073   2.300   6.089 -0.5460 -0.7562 -1.0628
  157DOPC  C31718960   5.880   2.238   6.163  0.9138 -0.5265  0.3170
  157DOPC  H17X18961   5.881   2.138   6.114 -2.0848  0.5390 -2.2098
  157DOPC  H17Y18962   5.828   2.229   6.261 -1.2408 -1.0252 -0.8350
  157DOPC  C31818963   5.790   2.326   6.071 -0.3912 -0.0490 -0.7410
  157DOPC  H18X18964   5.689   2.278   6.067 -1.6357  2.3246  0.0070
  157DOPC  H18Y18965   5.783   2.428   6.114  0.8319 -0.1897 -0.1779
  157DOPC  H18Z18966   5.831   2.326   5.968 -0.5025  0.4267 -0.7868
  158DOPC     N18967   5.592   0.026   7.627  0.0496  0.1316 -0.1453
  158DOPC   C1218968   5.607   0.074   7.483  0.0291  0.0238  0.7051
  158DOPC  H12A18969   5.685   0.026   7.426  0.4163  2.2709 -0.7558
  158DOPC  H12B18970   5.660   0.168   7.491 -1.3011  0.7811  0.8133
  158DOPC   C1318971   5.598  -0.128   7.635  0.1381  0.2516  0.1326
  158DOPC  H13A18972   5.692  -0.170   7.604 -0.0201 -1.3326  1.6739
  158DOPC  H13B18973   5.575  -0.168   7.733 -0.9867 -2.2797 -1.0824
  158DOPC  H13C18974   5.522  -0.167   7.570 -1.3508  1.3033  1.1791
  158DOPC   C1418975   5.460   0.072   7.680 -0.0431  0.0641 -0.5521
  158DOPC  H14A18976   5.447   0.030   7.779  1.3469 -1.8921 -1.1472
  158DOPC  H14B18977   5.454   0.179   7.691 -0.4416 -0.1089  1.1873
  158DOPC  H14C18978   5.368   0.045   7.629 -0.9150  1.2283  0.3358
  158DOPC   C1518979   5.698   0.088   7.709 -0.0229  0.2330 -0.3373
  158DOPC  H15A18980   5.691   0.057   7.812 -0.8069  0.8024 -0.2072
  158DOPC  H15B18981   5.704   0.195   7.709  0.4218  0.2137 -0.8036
  158DOPC  H15C18982   5.798   0.057   7.682 -0.4342 -2.1565  0.5774
  158DOPC   C1118983   5.485   0.070   7.384 -0.0272 -1.0010 -0.5058
  158DOPC  H11A18984   5.399   0.129   7.423  0.8844  0.3390 -0.4551
  158DOPC  H11B18985   5.512   0.123   7.291 -0.4195 -0.5310 -0.3577
  158DOPC     P18986   5.521  -0.168   7.280  0.2274  0.0975 -0.2201
  158DOPC   O1318987   5.478  -0.304   7.330 -0.6739  0.1080 -0.0294
  158DOPC   O1418988   5.662  -0.127   7.285  0.4723 -0.1044  0.4606
  158DOPC   O1218989   5.435  -0.058   7.361  0.1036 -0.0744 -0.2706
  158DOPC   O1118990   5.476  -0.172   7.132 -0.1034  0.3139 -0.2563
  158DOPC    C118991   5.365  -0.097   7.081  0.1683  0.3080 -0.3070
  158DOPC    HA18992   5.365   0.005   7.124  1.1087 -0.1073  0.7395
  158DOPC    HB18993   5.265  -0.142   7.099  0.2649  0.7574  1.6337
  158DOPC    C218994   5.369  -0.083   6.928  0.4841 -0.4520 -0.0154
  158DOPC    HS18995   5.272  -0.038   6.897 -0.5161 -1.3908  1.6071
  158DOPC   O2118996   5.385  -0.209   6.867 -0.4380 -0.5333 -0.2118
  158DOPC   C2118997   5.297  -0.296   6.867  0.5754  0.1752 -0.1872
  158DOPC   O2218998   5.196  -0.299   6.936  0.5730  0.6100  0.1125
  158DOPC   C2218999   5.336  -0.413   6.770 -0.1925 -0.7007  0.7524
  158DOPC   H2R19000   5.358  -0.503   6.832 -0.6553 -1.5824 -0.3423
  158DOPC   H2S19001   5.429  -0.383   6.716 -0.6499  2.5001  1.5092
  158DOPC    C319002   5.488   0.003   6.887 -0.7889  0.5098 -0.4416
  158DOPC    HX19003   5.587  -0.040   6.914 -0.3919 -0.1446 -2.6963
  158DOPC    HY19004   5.463   0.091   6.949  1.7827  0.3084  1.0053
  158DOPC   O3119005   5.477   0.030   6.746 -0.4227  0.2072 -0.6008
  158DOPC   C3119006   5.557  -0.033   6.664  0.6182  0.4919  0.6408
  158DOPC   O3219007   5.638  -0.124   6.687 -0.0829 -0.0151  0.4893
  158DOPC   C3219008   5.520   0.028   6.529  0.0546  0.2300 -0.2748
  158DOPC   H2X19009   5.410   0.015   6.520 -0.5621  0.9957  3.9681
  158DOPC   H2Y19010   5.533   0.138   6.544  1.8709 -0.1453  1.3151
  158DOPC   C2319011   5.228  -0.461   6.671  0.1756  0.1853 -0.0456
  158DOPC   H3R19012   5.156  -0.380   6.645 -0.0051 -0.3099 -1.1612
  158DOPC   H3S19013   5.160  -0.534   6.721  0.1974  0.4154  0.3213
  158DOPC   C2419014   5.286  -0.521   6.544 -0.2891  0.0565  0.2213
  158DOPC   H4R19015   5.337  -0.611   6.584  0.1914  0.4839  0.5791
  158DOPC   H4S19016   5.362  -0.452   6.502 -0.3282 -0.3566 -0.5491
  158DOPC   C2519017   5.187  -0.559   6.436  0.5361 -0.5152  0.1586
  158DOPC   H5R19018   5.142  -0.464   6.399 -0.8402 -1.4867 -0.7406
  158DOPC   H5S19019   5.108  -0.621   6.484  0.5018 -0.1206  0.6158
  158DOPC   C2619020   5.240  -0.651   6.325  0.0256  0.4740 -0.5962
  158DOPC   H6R19021   5.142  -0.684   6.285 -0.7793 -1.5785  2.6916
  158DOPC   H6S19022   5.290  -0.736   6.375  2.5408  1.4828 -1.2370
  158DOPC   C2719023   5.325  -0.585   6.217 -0.1958  0.0499 -0.2770
  158DOPC   H7R19024   5.337  -0.661   6.137  1.5766  0.2952 -0.2704
  158DOPC   H7S19025   5.423  -0.579   6.268 -0.2410 -0.1740 -0.1590
  158DOPC   C2819026   5.272  -0.456   6.156  0.1496  0.7561 -0.2876
  158DOPC   H8R19027   5.274  -0.377   6.234  0.8782 -1.0301  1.5898
  158DOPC   H8S19028   5.168  -0.468   6.119 -0.1276  3.6418 -0.7109
  158DOPC   C2919029   5.350  -0.423   6.033 -0.2842  0.2588  0.5244
  158DOPC   H9R19030   5.447  -0.474   6.021 -0.0241  0.3053  2.1523
  158DOPC  C21019031   5.307  -0.340   5.933  0.1454 -0.4482 -0.2444
  158DOPC  H10R19032   5.375  -0.317   5.849  0.3100 -2.4158 -0.6967
  158DOPC  C21119033   5.179  -0.255   5.924 -0.8362  0.1162 -0.7197
  158DOPC  H11R19034   5.208  -0.149   5.905  0.1519 -0.1327 -0.6755
  158DOPC  H11S19035   5.116  -0.256   6.016 -1.6881 -0.3456 -1.3004
  158DOPC  C21219036   5.087  -0.304   5.810 -0.0587 -0.2042 -0.2266
  158DOPC  H12R19037   5.049  -0.405   5.835  0.0199 -0.5490 -1.4722
  158DOPC  H12S19038   5.155  -0.308   5.722 -1.2396  0.4644 -1.1920
  158DOPC  C21319039   4.972  -0.202   5.775 -0.0088  0.2908 -0.2842
  158DOPC  H13R19040   5.024  -0.110   5.739 -2.1579  1.9176  0.5271
  158DOPC  H13S19041   4.906  -0.181   5.862 -1.0425 -0.9241 -0.7484
  158DOPC  C21419042   4.878  -0.249   5.665  0.3877 -0.0056 -0.5621
  158DOPC  H14R19043   4.821  -0.161   5.628  0.3008  0.5866  0.8905
  158DOPC  H14S19044   4.797  -0.312   5.707  0.5381 -1.1701 -1.9603
  158DOPC  C21519045   4.953  -0.327   5.548  0.0962 -0.2698  0.0086
  158DOPC  H15R19046   4.987  -0.427   5.581 -2.7816 -2.3575 -2.7667
  158DOPC  H15S19047   5.042  -0.275   5.507  0.3535 -0.4468  0.3403
  158DOPC  C21619048   4.851  -0.350   5.434 -0.3599 -0.3994 -0.0126
  158DOPC  H16R19049   4.761  -0.406   5.468 -0.0449 -2.5126 -2.3729
  158DOPC  H16S19050   4.912  -0.407   5.361  2.4271  0.0006  1.8382
  158DOPC  C21719051   4.795  -0.228   5.370  0.1527 -0.5997  0.3613
  158DOPC  H17R19052   4.878  -0.165   5.332 -1.9837  2.3249  0.2204
  158DOPC  H17S19053   4.737  -0.171   5.446  0.2903 -0.4540  0.3554
  158DOPC  C21819054   4.699  -0.264   5.262 -0.0441  0.5220  0.3145
  158DOPC  H18R19055   4.747  -0.324   5.182  1.0592  0.5196  0.9540
  158DOPC  H18S19056   4.640  -0.176   5.230  1.3031  1.6743  0.9174
  158DOPC  H18T19057   4.611  -0.326   5.289 -0.5067  0.1285 -1.8992
  158DOPC   C3319058   5.586  -0.014   6.400 -0.5372  0.2791 -0.2198
  158DOPC   H3X19059   5.575  -0.122   6.377  0.8111  0.1780 -0.4805
  158DOPC   H3Y19060   5.695  -0.007   6.421 -0.3632 -1.9852 -0.1365
  158DOPC   C3419061   5.547   0.081   6.289 -0.6199 -0.0741  0.3215
  158DOPC   H4X19062   5.584   0.179   6.326  1.4743 -1.4279  2.0643
  158DOPC   H4Y19063   5.440   0.089   6.260 -0.5682 -0.5260 -0.0167
  158DOPC   C3519064   5.623   0.055   6.156 -0.1725 -0.0357  0.6086
  158DOPC   H5X19065   5.731   0.078   6.164  0.7011 -2.4672 -2.3345
  158DOPC   H5Y19066   5.595   0.123   6.073  1.2554 -0.4298 -0.2182
  158DOPC   C3619067   5.623  -0.095   6.122  0.1243 -0.5999  0.5081
  158DOPC   H6X19068   5.697  -0.154   6.179  1.8859  1.8064  0.8522
  158DOPC   H6Y19069   5.520  -0.128   6.148  0.3114  0.4036  2.7300
  158DOPC   C3719070   5.647  -0.122   5.979 -0.1425 -0.4254  0.7766
  158DOPC   H7X19071   5.744  -0.077   5.949 -0.7378 -0.9532 -2.2663
  158DOPC   H7Y19072   5.654  -0.233   5.974 -0.1168 -0.3903 -0.1174
  158DOPC   C3819073   5.549  -0.060   5.875  0.2925 -0.4359  0.5835
  158DOPC   H8X19074   5.527   0.047   5.896 -0.0438 -0.3850  0.0036
  158DOPC   H8Y19075   5.457  -0.113   5.908 -0.0467 -1.2491 -1.5553
  158DOPC   C3919076   5.595  -0.085   5.729  0.4563  0.1647 -0.1626
  158DOPC   H9X19077   5.695  -0.048   5.704  0.8603 -0.3290  0.6669
  158DOPC  C31019078   5.512  -0.116   5.628  0.1667 -0.1004  0.2088
  158DOPC  H10X19079   5.558  -0.158   5.538 -1.4331 -0.0711 -0.6619
  158DOPC  C31119080   5.366  -0.140   5.638 -0.0058  0.7516 -0.3466
  158DOPC  H11X19081   5.319  -0.128   5.738  0.0240  0.6723 -0.3234
  158DOPC  H11Y19082   5.341  -0.245   5.611  0.3558  0.7393 -0.6259
  158DOPC  C31219083   5.273  -0.066   5.540 -0.4761 -0.1758  0.2399
  158DOPC  H12X19084   5.315   0.035   5.559  1.3368 -0.8363 -0.0426
  158DOPC  H12Y19085   5.167  -0.065   5.575 -0.5878  0.1813 -0.0985
  158DOPC  C31319086   5.283  -0.108   5.396  0.2186 -0.4397 -0.5021
  158DOPC  H13X19087   5.383  -0.082   5.356 -1.0557  3.6749 -1.5303
  158DOPC  H13Y19088   5.246  -0.213   5.389 -1.8100  0.2633 -1.1548
  158DOPC  C31419089   5.182  -0.026   5.307 -0.7255  0.4129 -0.4372
  158DOPC  H14X19090   5.083  -0.044   5.354  0.3404 -0.7022  1.5205
  158DOPC  H14Y19091   5.211   0.079   5.327 -1.1897  0.8601 -1.9842
  158DOPC  C31519092   5.184  -0.058   5.159  0.4263 -0.3146  0.5186
  158DOPC  H15X19093   5.186  -0.169   5.161  1.2713 -0.3104  2.6320
  158DOPC  H15Y19094   5.280  -0.019   5.117 -0.3609  0.9795 -0.1628
  158DOPC  C31619095   5.071  -0.001   5.077 -0.3794 -0.1582  0.2733
  158DOPC  H16X19096   4.978  -0.062   5.089 -0.1651 -0.4245  0.6242
  158DOPC  H16Y19097   5.049   0.101   5.114 -0.1639 -0.5170  1.4570
  158DOPC  C31719098   5.110   0.003   4.928 -0.0897 -0.0327  0.1541
  158DOPC  H17X19099   5.193   0.073   4.907  1.4721 -1.8138  0.1758
  158DOPC  H17Y19100   5.143  -0.093   4.882  4.6689  1.8904 -0.9456
  158DOPC  C31819101   4.996   0.067   4.850 -0.4121  0.0223 -0.4990
  158DOPC  H18X19102   5.035   0.094   4.750  0.6045  0.5567  0.0312
  158DOPC  H18Y19103   4.914  -0.004   4.826  0.1928 -0.8926  0.0746
  158DOPC  H18Z19104   4.966   0.160   4.903  1.1449  0.3866 -0.2224
  159DOPC     N19105   0.490   2.725   7.279  0.4317 -0.0256  0.1573
  159DOPC   C1219106   0.528   2.709   7.139 -0.6829  0.8187  0.5964
  159DOPC  H12A19107   0.461   2.756   7.068  0.3468  2.8477  0.9155
  159DOPC  H12B19108   0.506   2.605   7.120 -0.0798  0.7574  0.2256
  159DOPC   C1319109   0.467   2.866   7.313  0.2119 -0.1870  0.2242
  159DOPC  H13A19110   0.398   2.913   7.244 -0.7754 -0.2071  1.1734
  159DOPC  H13B19111   0.437   2.863   7.417  0.2129 -1.0494  0.2054
  159DOPC  H13C19112   0.561   2.918   7.310 -0.5208  1.2956  1.1803
  159DOPC   C1419113   0.595   2.664   7.370  0.4510 -0.4647  1.0688
  159DOPC  H14A19114   0.691   2.701   7.338 -0.2835  0.0969 -0.6227
  159DOPC  H14B19115   0.596   2.704   7.471  0.2907 -2.6139  1.9791
  159DOPC  H14C19116   0.596   2.556   7.372  2.0200 -0.4618  2.0212
  159DOPC   C1519117   0.359   2.656   7.317 -0.3158 -0.5380 -0.2557
  159DOPC  H15A19118   0.336   2.681   7.419  1.9959  1.4889 -0.1409
  159DOPC  H15B19119   0.368   2.549   7.307  0.7801 -0.4444 -0.4159
  159DOPC  H15C19120   0.277   2.689   7.255 -0.2480 -1.0615 -0.6290
  159DOPC   C1119121   0.672   2.729   7.098 -0.0542  0.3162  0.0526
  159DOPC  H11A19122   0.736   2.645   7.133 -1.6692 -0.2532  1.7787
  159DOPC  H11B19123   0.671   2.713   6.988  1.0504 -3.0862  0.4134
  159DOPC     P19124   0.872   2.880   7.150 -0.9010 -0.1788 -0.1449
  159DOPC   O1319125   0.909   2.788   7.261 -0.2804  0.3671 -0.4121
  159DOPC   O1419126   0.898   3.025   7.169  0.4269 -0.0079  0.1963
  159DOPC   O1219127   0.716   2.860   7.126  0.0092  0.1605 -0.6156
  159DOPC   O1119128   0.939   2.833   7.013  0.1167 -0.0532 -0.5641
  159DOPC    C119129   0.986   2.929   6.919 -0.2141 -0.4302 -0.0413
  159DOPC    HA19130   1.089   2.897   6.889 -1.0707 -3.9426  0.3020
  159DOPC    HB19131   0.996   3.033   6.957 -2.0250  0.2374 -1.2563
  159DOPC    C219132   0.880   2.930   6.801 -0.3249 -0.3322 -0.4503
  159DOPC    HS19133   0.783   2.971   6.837 -0.4395 -1.0475  0.0837
  159DOPC   O2119134   0.873   2.786   6.758  0.4670  0.6533  0.0433
  159DOPC   C2119135   0.753   2.749   6.714  0.5307  0.4893 -0.0703
  159DOPC   O2219136   0.651   2.817   6.708  0.2010  0.0775  0.0836
  159DOPC   C2219137   0.766   2.608   6.655 -0.4824  0.0700 -0.2314
  159DOPC   H2R19138   0.664   2.566   6.661 -0.4153 -0.2982 -1.4799
  159DOPC   H2S19139   0.827   2.555   6.732 -1.1834  0.3151  0.5117
  159DOPC    C319140   0.922   3.021   6.684 -0.3520  0.0090 -0.0594
  159DOPC    HX19141   1.028   2.993   6.667 -0.7974 -1.0545 -1.1788
  159DOPC    HY19142   0.926   3.125   6.722  2.5001 -0.6577  1.7832
  159DOPC   O3119143   0.833   2.991   6.565  0.4468 -0.3672 -0.8969
  159DOPC   C3119144   0.730   3.076   6.558 -1.2389 -0.6075 -0.3387
  159DOPC   O3219145   0.713   3.171   6.631  0.5386  0.2246  0.1959
  159DOPC   C3219146   0.620   3.027   6.464 -0.4505 -0.3935  0.4531
  159DOPC   H2X19147   0.583   2.927   6.495  1.1039 -0.3255  2.7430
  159DOPC   H2Y19148   0.528   3.089   6.472 -0.3193  0.0586 -1.1359
  159DOPC   C2319149   0.830   2.620   6.516 -0.2634 -0.2117  0.2565
  159DOPC   H3R19150   0.893   2.528   6.515  0.7987  0.4472  2.1203
  159DOPC   H3S19151   0.900   2.705   6.506 -0.6582 -0.0443 -1.3603
  159DOPC   C2419152   0.731   2.616   6.400 -0.1959 -0.5582  1.1146
  159DOPC   H4R19153   0.654   2.695   6.411  0.0071  0.0082 -1.1738
  159DOPC   H4S19154   0.682   2.517   6.404 -0.5180 -0.4048  0.9694
  159DOPC   C2519155   0.801   2.629   6.269 -0.7803 -0.5096  0.6962
  159DOPC   H5R19156   0.878   2.548   6.264 -1.3875 -1.0795  0.4411
  159DOPC   H5S19157   0.852   2.727   6.260 -1.2978 -0.4191 -1.7697
  159DOPC   C2619158   0.716   2.603   6.138 -0.7986  0.2575  0.0620
  159DOPC   H6R19159   0.657   2.695   6.118 -0.3586  0.6498  0.5089
  159DOPC   H6S19160   0.660   2.509   6.158  1.9810 -1.7305 -0.8834
  159DOPC   C2719161   0.800   2.587   6.008  0.3343  0.3371 -0.6411
  159DOPC   H7R19162   0.861   2.495   6.017 -1.0485 -0.4451  1.6271
  159DOPC   H7S19163   0.870   2.670   5.984  1.6740 -1.1431 -2.0257
  159DOPC   C2819164   0.704   2.562   5.889  0.5421 -0.0428  0.2519
  159DOPC   H8R19165   0.615   2.629   5.890  0.8008  0.3383 -1.0287
  159DOPC   H8S19166   0.657   2.463   5.910  1.4610 -1.4393 -3.4480
  159DOPC   C2919167   0.770   2.563   5.755 -0.8868 -0.6001  0.9155
  159DOPC   H9R19168   0.834   2.474   5.741  1.3577  1.0900 -0.4281
  159DOPC  C21019169   0.764   2.652   5.655  0.7083 -0.3112  0.5004
  159DOPC  H10R19170   0.836   2.633   5.574 -0.1344  1.3387 -0.6987
  159DOPC  C21119171   0.685   2.784   5.642  0.4196 -0.4817  0.6742
  159DOPC  H11R19172   0.746   2.874   5.666 -1.8977  1.8399 -1.4090
  159DOPC  H11S19173   0.600   2.779   5.714 -0.8886  0.9402 -0.6924
  159DOPC  C21219174   0.626   2.809   5.497  0.1850 -0.1909 -0.4156
  159DOPC  H12R19175   0.549   2.890   5.494  0.3153 -0.0355  0.3166
  159DOPC  H12S19176   0.558   2.723   5.481 -0.2264  0.4303 -2.3216
  159DOPC  C21319177   0.728   2.838   5.382 -0.4491  0.3995  0.0347
  159DOPC  H13R19178   0.802   2.755   5.385 -1.2125 -0.4340 -2.3757
  159DOPC  H13S19179   0.797   2.921   5.408 -0.8600  1.1416 -1.1633
  159DOPC  C21419180   0.669   2.864   5.246 -0.4043  0.1019  0.0423
  159DOPC  H14R19181   0.752   2.897   5.180 -1.7988 -0.6625 -2.1989
  159DOPC  H14S19182   0.594   2.946   5.234  0.5846  0.9644 -0.3776
  159DOPC  C21519183   0.613   2.733   5.191  0.1222 -0.4518 -0.0619
  159DOPC  H15R19184   0.602   2.748   5.082 -0.1472 -0.7361 -0.0759
  159DOPC  H15S19185   0.510   2.728   5.232  0.5792  3.2555  1.9866
  159DOPC  C21619186   0.693   2.608   5.191 -1.0645 -0.3528  0.3203
  159DOPC  H16R19187   0.687   2.553   5.288  1.0806 -0.6825  0.3039
  159DOPC  H16S19188   0.798   2.635   5.168 -0.9907  0.1581  1.1908
  159DOPC  C21719189   0.647   2.518   5.073  0.3463  1.2118  0.0081
  159DOPC  H17R19190   0.648   2.578   4.979 -1.7879 -1.8928 -2.2017
  159DOPC  H17S19191   0.548   2.474   5.100  0.5004 -1.1014 -2.7271
  159DOPC  C21819192   0.737   2.394   5.063 -0.0003 -0.1765  0.0381
  159DOPC  H18R19193   0.842   2.417   5.092  0.1893 -0.1740 -0.6371
  159DOPC  H18S19194   0.745   2.356   4.960  1.2390  1.7692 -0.6404
  159DOPC  H18T19195   0.692   2.314   5.125 -3.1133  0.4177 -1.2915
  159DOPC   C3319196   0.679   3.019   6.327  0.1441  0.0416  0.6547
  159DOPC   H3X19197   0.780   2.974   6.316  0.2013  0.5097 -0.9435
  159DOPC   H3Y19198   0.688   3.115   6.272 -0.6571 -0.8212 -1.0721
  159DOPC   C3419199   0.583   2.941   6.239  0.1871  0.5848  0.4052
  159DOPC   H4X19200   0.488   2.989   6.273  1.5014  1.6867  2.8144
  159DOPC   H4Y19201   0.581   2.837   6.276 -1.1564  1.5542  3.3651
  159DOPC   C3519202   0.611   2.944   6.095  0.2186  0.4120 -0.0462
  159DOPC   H5X19203   0.539   2.870   6.052 -0.1699  0.5078  0.4356
  159DOPC   H5Y19204   0.704   2.890   6.066 -0.8703 -2.0308  0.7406
  159DOPC   C3619205   0.610   3.076   6.017  0.5195  0.2628 -0.2419
  159DOPC   H6X19206   0.522   3.135   6.049  1.9802  1.2169  2.3185
  159DOPC   H6Y19207   0.697   3.139   6.045 -1.0648  2.4700 -0.0008
  159DOPC   C3719208   0.595   3.064   5.865  0.8301 -0.4113  0.1768
  159DOPC   H7X19209   0.668   2.991   5.822 -0.4102 -2.7156  1.8081
  159DOPC   H7Y19210   0.497   3.017   5.845  0.5482  0.2554 -0.0716
  159DOPC   C3819211   0.582   3.200   5.794  0.8827 -0.0264  0.1891
  159DOPC   H8X19212   0.663   3.269   5.824 -0.7354  1.2928  1.7769
  159DOPC   H8Y19213   0.483   3.244   5.821  0.3231 -0.7249 -0.6528
  159DOPC   C3919214   0.583   3.180   5.648  0.2425 -0.1962  0.2255
  159DOPC   H9X19215   0.656   3.103   5.617  2.7612  1.0017  2.7292
  159DOPC  C31019216   0.510   3.244   5.553  0.4249 -0.6799 -0.1722
  159DOPC  H10X19217   0.527   3.218   5.448  1.9291  2.9086 -0.9374
  159DOPC  C31119218   0.406   3.351   5.567  0.6829 -0.6113  0.0831
  159DOPC  H11X19219   0.460   3.446   5.590  1.1195 -1.2579  1.9299
  159DOPC  H11Y19220   0.356   3.321   5.662  1.9038 -1.9569  0.3503
  159DOPC  C31219221   0.302   3.366   5.451  0.2448  0.0050 -0.1737
  159DOPC  H12X19222   0.269   3.265   5.417 -1.5100  0.3566  0.4080
  159DOPC  H12Y19223   0.350   3.422   5.367 -0.5398  0.7110 -0.1676
  159DOPC  C31319224   0.180   3.453   5.495 -0.1377  0.4317 -0.4339
  159DOPC  H13X19225   0.084   3.402   5.471  0.9469 -1.0119 -1.9138
  159DOPC  H13Y19226   0.186   3.460   5.606  0.2545  3.2504 -0.5552
  159DOPC  C31419227   0.185   3.599   5.452  0.0486 -0.0982  0.3113
  159DOPC  H14X19228   0.279   3.644   5.491  0.6135 -1.4764  0.6019
  159DOPC  H14Y19229   0.193   3.601   5.341 -0.3631  0.3786  0.2874
  159DOPC  C31519230   0.059   3.678   5.494  0.1027  0.1560 -0.6935
  159DOPC  H15X19231   0.027   3.657   5.598 -0.2970 -1.5474 -1.1184
  159DOPC  H15Y19232  -0.013   3.633   5.422 -0.9932  0.9782 -0.1415
  159DOPC  C31619233   0.067   3.827   5.466  0.0301 -0.1868  0.3387
  159DOPC  H16X19234   0.136   3.879   5.536  0.7434 -0.0704 -0.4444
  159DOPC  H16Y19235   0.102   3.855   5.364  0.9646  1.6523  1.1071
  159DOPC  C31719236  -0.072   3.889   5.498 -1.0214  0.7155 -0.3030
  159DOPC  H17X19237  -0.142   3.856   5.419 -1.0990 -0.1158  0.0962
  159DOPC  H17Y19238  -0.106   3.858   5.599 -1.5577  0.4780 -0.5516
  159DOPC  C31819239  -0.084   4.043   5.485  0.4155  0.6866  0.2745
  159DOPC  H18X19240  -0.108   4.104   5.574 -1.3213 -0.6638  0.7873
  159DOPC  H18Y19241   0.003   4.085   5.429  1.5853  0.4878  1.8795
  159DOPC  H18Z19242  -0.179   4.068   5.433  0.6022 -0.0474 -0.4429
  160DOPC     N19243   2.888   7.078   7.435  0.2133 -0.0034  0.2745
  160DOPC   C1219244   2.919   7.227   7.430 -0.2671 -0.3954 -0.5858
  160DOPC  H12A19245   3.019   7.235   7.470 -0.1949 -1.7036 -0.4581
  160DOPC  H12B19246   2.862   7.271   7.510  0.4385 -0.4857 -0.0197
  160DOPC   C1319247   2.951   6.995   7.325 -0.3637  0.1868  0.1545
  160DOPC  H13A19248   2.919   7.018   7.225 -3.0140 -1.6515  0.4674
  160DOPC  H13B19249   3.059   6.997   7.328  0.0433 -3.2597 -3.5510
  160DOPC  H13C19250   2.919   6.892   7.333  1.1556 -0.3687 -0.5460
  160DOPC   C1419251   2.737   7.071   7.409 -0.3953  0.3920 -0.2142
  160DOPC  H14A19252   2.685   7.125   7.487 -1.3146 -0.8796  0.0764
  160DOPC  H14B19253   2.724   7.124   7.316  1.5515 -1.3164 -1.5411
  160DOPC  H14C19254   2.705   6.969   7.398 -1.6121  0.7615 -0.2639
  160DOPC   C1519255   2.907   7.023   7.572 -0.3936  0.8914  0.6371
  160DOPC  H15A19256   2.852   6.931   7.586  2.8404 -1.2131  0.5209
  160DOPC  H15B19257   2.871   7.089   7.650 -2.5241  1.1039 -0.4393
  160DOPC  H15C19258   3.010   7.003   7.599  0.2614 -0.1990 -2.3029
  160DOPC   C1119259   2.891   7.309   7.300  0.7290  0.0608 -0.3072
  160DOPC  H11A19260   2.940   7.409   7.295 -0.8878  0.9729  1.2094
  160DOPC  H11B19261   2.935   7.252   7.215 -0.4263  0.7884 -1.4323
  160DOPC     P19262   2.670   7.423   7.356 -0.0550  0.1418 -0.2444
  160DOPC   O1319263   2.699   7.429   7.499 -0.2158  0.3241 -0.0488
  160DOPC   O1419264   2.528   7.399   7.320  0.4220 -0.2723 -0.2851
  160DOPC   O1219265   2.749   7.314   7.282  0.3972  0.2348 -0.3639
  160DOPC   O1119266   2.710   7.554   7.278 -0.2424  0.0227 -0.1016
  160DOPC    C119267   2.638   7.617   7.174  0.2403  0.4329  0.1322
  160DOPC    HA19268   2.670   7.723   7.169  0.3302  0.4243  0.4964
  160DOPC    HB19269   2.530   7.616   7.200 -0.3041 -1.8846 -1.7697
  160DOPC    C219270   2.671   7.552   7.033 -0.0781  0.1705 -0.4077
  160DOPC    HS19271   2.624   7.451   7.026 -0.3143  0.2930 -0.5809
  160DOPC   O2119272   2.814   7.542   7.034  0.4319  0.4923  0.2189
  160DOPC   C2119273   2.864   7.436   6.957 -0.0320 -0.4453  0.1605
  160DOPC   O2219274   2.804   7.367   6.876  0.1131  0.1057 -0.4752
  160DOPC   C2219275   3.020   7.442   6.980 -0.1342  0.2174 -0.4862
  160DOPC   H2R19276   3.068   7.360   6.922  0.9490  0.8603 -0.5207
  160DOPC   H2S19277   3.041   7.420   7.087 -2.2383 -0.2503 -0.1248
  160DOPC    C319278   2.617   7.644   6.918  0.9323 -0.3920 -0.1483
  160DOPC    HX19279   2.640   7.751   6.938  0.0406 -0.3487  0.7514
  160DOPC    HY19280   2.507   7.637   6.929  0.6289  2.0194 -1.0465
  160DOPC   O3119281   2.666   7.603   6.784 -0.1382  0.7216 -0.2425
  160DOPC   C3119282   2.576   7.532   6.698 -0.4592 -0.3159 -0.0900
  160DOPC   O3219283   2.458   7.527   6.720 -0.4402 -0.4207  0.0132
  160DOPC   C3219284   2.650   7.475   6.578 -0.0190 -0.2100  0.0007
  160DOPC   H2X19285   2.757   7.505   6.572 -0.4964  2.0643  1.4907
  160DOPC   H2Y19286   2.651   7.364   6.580  1.1952 -0.3248 -2.5358
  160DOPC   C2319287   3.077   7.575   6.926 -0.8972  0.3667 -0.0790
  160DOPC   H3R19288   3.178   7.589   6.972 -0.8006 -1.6744  0.4527
  160DOPC   H3S19289   3.013   7.658   6.962  0.9087  1.0422  1.8278
  160DOPC   C2419290   3.077   7.572   6.769 -0.0298  0.1057 -0.2067
  160DOPC   H4R19291   3.069   7.673   6.723  2.8306  0.5278  0.0531
  160DOPC   H4S19292   2.983   7.527   6.731 -0.5763  1.1613 -0.1448
  160DOPC   C2519293   3.206   7.515   6.707 -0.2082 -0.1045 -0.3227
  160DOPC   H5R19294   3.255   7.443   6.776  0.5612 -0.5319 -1.2946
  160DOPC   H5S19295   3.281   7.596   6.694  0.7479 -0.7355  1.0918
  160DOPC   C2619296   3.211   7.444   6.570  0.0176  0.0943  0.4475
  160DOPC   H6R19297   3.158   7.518   6.507  0.8383  0.4384  0.1423
  160DOPC   H6S19298   3.155   7.349   6.577  0.7729 -0.3482  0.6669
  160DOPC   C2719299   3.352   7.422   6.513 -0.2503 -0.1480  0.0165
  160DOPC   H7R19300   3.426   7.467   6.582  1.6607 -1.1951 -1.2590
  160DOPC   H7S19301   3.359   7.480   6.418 -1.4074 -0.3116 -0.1810
  160DOPC   C2819302   3.401   7.274   6.494  0.6981 -0.4392 -0.4863
  160DOPC   H8R19303   3.331   7.236   6.416 -0.3395 -1.7303  1.0190
  160DOPC   H8S19304   3.391   7.215   6.587 -0.4642  1.6796  0.8344
  160DOPC   C2919305   3.547   7.291   6.452  0.4581  0.0147  0.2156
  160DOPC   H9R19306   3.620   7.293   6.535 -0.6012 -1.2753  1.2333
  160DOPC  C21019307   3.588   7.293   6.324 -0.5033  0.2606 -0.1306
  160DOPC  H10R19308   3.693   7.322   6.311 -0.0801  0.8340  3.5455
  160DOPC  C21119309   3.506   7.277   6.198 -0.1714  0.2086  0.4860
  160DOPC  H11R19310   3.399   7.291   6.225 -0.5360 -0.5493 -0.5078
  160DOPC  H11S19311   3.516   7.174   6.158  0.3590  0.6439 -0.5455
  160DOPC  C21219312   3.546   7.382   6.092  0.2066 -0.0371  0.1946
  160DOPC  H12R19313   3.656   7.384   6.076  0.2359  2.8840  0.2058
  160DOPC  H12S19314   3.524   7.479   6.142  3.3578  0.5398  0.6317
  160DOPC  C21319315   3.461   7.365   5.963  0.1358 -0.1807  0.6191
  160DOPC  H13R19316   3.363   7.416   5.976  0.0774  0.5065 -2.0259
  160DOPC  H13S19317   3.449   7.255   5.952  1.6128 -0.2584 -0.5175
  160DOPC  C21419318   3.528   7.420   5.840  0.3470  1.3148 -0.5198
  160DOPC  H14R19319   3.618   7.360   5.815 -1.3066 -2.6735  2.0024
  160DOPC  H14S19320   3.551   7.523   5.874 -0.7119  1.2005  0.6254
  160DOPC  C21519321   3.437   7.410   5.724  0.1697  0.1533 -0.6362
  160DOPC  H15R19322   3.348   7.472   5.749 -0.4139 -1.0075  0.2653
  160DOPC  H15S19323   3.396   7.307   5.712  0.7858 -0.1209 -0.3921
  160DOPC  C21619324   3.500   7.460   5.595 -1.0055 -0.4755 -0.7852
  160DOPC  H16R19325   3.555   7.371   5.559 -0.5410 -0.4974 -0.0504
  160DOPC  H16S19326   3.568   7.546   5.612 -0.7025 -0.7712 -0.4821
  160DOPC  C21719327   3.402   7.494   5.481 -0.1024  0.4297  0.2854
  160DOPC  H17R19328   3.469   7.508   5.393 -1.5078 -0.2910 -0.9405
  160DOPC  H17S19329   3.361   7.594   5.505  0.0719  0.8932 -1.2150
  160DOPC  C21819330   3.296   7.391   5.447  0.1881 -0.0007  0.1683
  160DOPC  H18R19331   3.262   7.392   5.341 -0.4401 -0.9122  0.3511
  160DOPC  H18S19332   3.207   7.402   5.513  0.1667 -5.0447  1.3554
  160DOPC  H18T19333   3.331   7.288   5.469 -0.7065 -0.0776  1.3669
  160DOPC   C3319334   2.579   7.516   6.448 -0.2268 -0.9442  0.0130
  160DOPC   H3X19335   2.661   7.531   6.375  0.7868  3.1893  1.7239
  160DOPC   H3Y19336   2.530   7.616   6.457 -2.6703 -1.6901 -3.1689
  160DOPC   C3419337   2.474   7.423   6.386  0.0386  0.1017  0.0240
  160DOPC   H4X19338   2.388   7.406   6.453 -0.2940  0.1334 -0.3916
  160DOPC   H4Y19339   2.517   7.323   6.364 -0.1900 -0.8657  3.3615
  160DOPC   C3519340   2.421   7.464   6.244  0.6550 -0.4017  0.4660
  160DOPC   H5X19341   2.384   7.365   6.210  1.5577 -0.9357  1.0115
  160DOPC   H5Y19342   2.504   7.489   6.175  0.5326 -0.8262  0.1658
  160DOPC   C3619343   2.300   7.560   6.228 -0.6263 -0.0775  0.1965
  160DOPC   H6X19344   2.229   7.524   6.305 -0.4913 -0.6870  0.0394
  160DOPC   H6Y19345   2.323   7.667   6.249 -0.2510 -0.0710 -0.2081
  160DOPC   C3719346   2.237   7.553   6.088 -0.0276  0.0149 -0.1809
  160DOPC   H7X19347   2.173   7.642   6.066  0.1159 -0.1496 -1.3254
  160DOPC   H7Y19348   2.323   7.547   6.018 -0.0190 -0.8512 -0.0984
  160DOPC   C3819349   2.165   7.419   6.069 -0.0108  0.4186  0.5047
  160DOPC   H8X19350   2.228   7.328   6.076 -0.2773  0.0841 -0.9276
  160DOPC   H8Y19351   2.137   7.412   5.961  0.1662 -1.8696  0.5580
  160DOPC   C3919352   2.046   7.403   6.161 -0.9551  0.3537  0.5152
  160DOPC   H9X19353   2.062   7.331   6.243 -1.7473  0.4499  0.7583
  160DOPC  C31019354   1.919   7.442   6.137 -0.1702 -0.1438 -0.6182
  160DOPC  H10X19355   1.854   7.423   6.224  0.6805 -0.2111  0.0171
  160DOPC  C31119356   1.863   7.514   6.017 -0.1653 -0.2041 -0.4066
  160DOPC  H11X19357   1.949   7.547   5.954  0.7948 -1.8099  0.0042
  160DOPC  H11Y19358   1.810   7.607   6.046  0.9892  0.4912 -0.4518
  160DOPC  C31219359   1.780   7.423   5.930  0.1938 -0.0460  0.1985
  160DOPC  H12X19360   1.745   7.499   5.857  2.2875 -0.2798 -1.1413
  160DOPC  H12Y19361   1.687   7.385   5.976  1.0567 -1.0854  1.1442
  160DOPC  C31319362   1.852   7.303   5.865  0.4651  0.8176 -0.0985
  160DOPC  H13X19363   1.947   7.331   5.814  1.4603  0.7479  1.6531
  160DOPC  H13Y19364   1.888   7.241   5.950 -0.7138  0.3209  0.0604
  160DOPC  C31419365   1.756   7.227   5.779 -0.2144  0.9098  0.1404
  160DOPC  H14X19366   1.652   7.242   5.816 -0.3920 -0.0133  0.0462
  160DOPC  H14Y19367   1.764   7.258   5.673 -1.0309 -0.1349 -0.2471
  160DOPC  C31519368   1.778   7.068   5.788 -0.0513 -0.1650  0.2882
  160DOPC  H15X19369   1.781   7.039   5.895  0.9517 -0.6318  0.1430
  160DOPC  H15Y19370   1.875   7.042   5.741 -0.5227 -0.8979 -0.3074
  160DOPC  C31619371   1.676   6.994   5.708 -0.0125 -0.1479 -0.4776
  160DOPC  H16X19372   1.689   6.884   5.718 -0.2467  0.0257  2.8862
  160DOPC  H16Y19373   1.580   7.020   5.757 -0.1858 -2.3072  0.4702
  160DOPC  C31719374   1.682   7.032   5.558  0.2253 -0.3425 -0.2508
  160DOPC  H17X19375   1.675   7.142   5.539  0.7925 -0.3431 -0.4794
  160DOPC  H17Y19376   1.775   7.000   5.506  0.5544  2.4357 -1.5665
  160DOPC  C31819377   1.569   6.973   5.476  0.6180 -0.3654  0.5999
  160DOPC  H18X19378   1.592   7.000   5.371 -2.4527  2.1049  0.4157
  160DOPC  H18Y19379   1.577   6.864   5.496  0.3802 -0.4701  0.1341
  160DOPC  H18Z19380   1.465   7.011   5.487 -0.0709 -1.1611 -2.3163
  161DOPC     N19381   5.139   1.202   7.264  0.0518 -0.3129 -0.2779
  161DOPC   C1219382   5.060   1.220   7.136  0.2901  0.6366 -0.2622
  161DOPC  H12A19383   5.097   1.310   7.089  0.9046  1.7790  2.2562
  161DOPC  H12B19384   4.956   1.239   7.161  0.3512 -0.6355  1.1029
  161DOPC   C1319385   5.112   1.306   7.370  0.4018  0.5350 -0.3072
  161DOPC  H13A19386   5.152   1.275   7.465 -0.1823  0.2004 -0.1688
  161DOPC  H13B19387   5.174   1.391   7.347  2.2825 -0.8805 -0.7503
  161DOPC  H13C19388   5.006   1.327   7.377  0.6825  1.5674  1.2899
  161DOPC   C1419389   5.286   1.189   7.236  0.2976 -0.1408 -0.1592
  161DOPC  H14A19390   5.305   1.098   7.182 -0.7261 -1.3304  1.3666
  161DOPC  H14B19391   5.327   1.272   7.182 -1.0847 -0.1937 -1.3513
  161DOPC  H14C19392   5.337   1.177   7.331  0.6728 -0.9088 -0.4549
  161DOPC   C1519393   5.105   1.074   7.330 -0.3940 -0.5577 -0.2165
  161DOPC  H15A19394   5.149   0.997   7.268  1.2750 -0.0518  0.2742
  161DOPC  H15B19395   5.000   1.060   7.346  0.0650 -2.5801  1.4058
  161DOPC  H15C19396   5.145   1.061   7.429  1.2090  0.3724 -0.6937
  161DOPC   C1119397   5.056   1.100   7.035 -0.3533  0.6849 -0.0690
  161DOPC  H11A19398   5.031   1.143   6.936  0.8528 -0.7845 -1.0665
  161DOPC  H11B19399   5.161   1.063   7.027  0.0127  1.4825  0.8128
  161DOPC     P19400   4.811   1.008   7.085  0.4377 -0.1231 -0.1072
  161DOPC   O1319401   4.799   1.094   7.208 -0.0123  0.0215 -0.4295
  161DOPC   O1419402   4.737   0.881   7.089 -0.7174  0.2505 -0.1457
  161DOPC   O1219403   4.963   0.988   7.067 -0.4460 -0.0883  0.1371
  161DOPC   O1119404   4.760   1.090   6.957  0.1963 -0.2430 -0.7049
  161DOPC    C119405   4.657   1.180   6.959  0.2914  0.1978 -0.7907
  161DOPC    HA19406   4.680   1.254   7.039  1.1893  1.7076 -2.3628
  161DOPC    HB19407   4.556   1.135   6.967  0.0076  0.6353 -1.7159
  161DOPC    C219408   4.666   1.269   6.842 -0.0614  0.1649 -0.0444
  161DOPC    HS19409   4.584   1.343   6.840  0.8803  1.2297 -1.2342
  161DOPC   O2119410   4.680   1.186   6.717  0.3026  0.1184 -0.2436
  161DOPC   C2119411   4.559   1.121   6.681  0.0986  0.6731 -0.0217
  161DOPC   O2219412   4.453   1.126   6.742 -0.5660  0.4457 -0.2242
  161DOPC   C2219413   4.571   1.043   6.548  0.5956  0.5050 -0.3351
  161DOPC   H2R19414   4.599   0.939   6.576  0.6536 -0.0190 -2.2043
  161DOPC   H2S19415   4.667   1.077   6.504  1.1186 -1.3283 -0.6778
  161DOPC    C319416   4.798   1.349   6.849  0.3427 -1.0994  0.1396
  161DOPC    HX19417   4.887   1.297   6.808  1.7800 -0.1940  1.9806
  161DOPC    HY19418   4.812   1.373   6.956 -0.8341  0.4127 -0.0082
  161DOPC   O3119419   4.781   1.473   6.776  0.3027 -0.1488 -0.4435
  161DOPC   C3119420   4.891   1.526   6.730 -0.4835 -0.0274 -1.0970
  161DOPC   O3219421   5.005   1.480   6.751 -0.0002 -0.4949 -0.0472
  161DOPC   C3219422   4.861   1.656   6.653  0.1419  0.3315  0.1794
  161DOPC   H2X19423   4.831   1.729   6.732  1.6081 -0.1064  1.1818
  161DOPC   H2Y19424   4.958   1.680   6.606  1.6019  0.4334  3.0239
  161DOPC   C2319425   4.448   1.051   6.452  0.1616 -0.0322 -0.4062
  161DOPC   H3R19426   4.433   1.157   6.425 -1.0281 -0.4634 -1.5679
  161DOPC   H3S19427   4.350   1.037   6.501  0.6950  1.3469  1.1527
  161DOPC   C2419428   4.469   0.966   6.329 -0.5249  0.6895  0.2788
  161DOPC   H4R19429   4.463   0.857   6.353 -0.6515  1.2213  3.0037
  161DOPC   H4S19430   4.574   0.976   6.294 -0.5770  0.9089  0.1856
  161DOPC   C2519431   4.373   1.007   6.217  0.8554  0.2844 -0.1358
  161DOPC   H5R19432   4.406   1.102   6.168  2.6006 -0.4566 -0.4934
  161DOPC   H5S19433   4.271   1.011   6.260 -0.5722  0.0522 -3.2469
  161DOPC   C2619434   4.372   0.907   6.103  0.1920 -0.5801  0.1070
  161DOPC   H6R19435   4.362   0.799   6.122  0.8087 -0.7328 -0.3981
  161DOPC   H6S19436   4.474   0.923   6.062  0.0590  0.7113  0.2080
  161DOPC   C2719437   4.261   0.943   5.999 -0.0337 -0.4216  0.4750
  161DOPC   H7R19438   4.169   0.976   6.051  0.0167  1.9558 -0.7992
  161DOPC   H7S19439   4.229   0.848   5.950  1.1162 -0.8354  0.4897
  161DOPC   C2819440   4.316   1.045   5.893 -0.1957 -0.6399 -0.2361
  161DOPC   H8R19441   4.414   0.996   5.872  0.6572 -0.1418  2.2136
  161DOPC   H8S19442   4.337   1.147   5.933 -0.7032 -0.9202  0.7747
  161DOPC   C2919443   4.229   1.046   5.770 -0.3596  0.9328  0.7926
  161DOPC   H9R19444   4.195   0.946   5.737  0.9658  0.5282  0.6160
  161DOPC  C21019445   4.173   1.148   5.716 -0.4214  0.0196 -0.2981
  161DOPC  H10R19446   4.122   1.125   5.622  1.6871 -1.4265 -1.1595
  161DOPC  C21119447   4.184   1.293   5.762 -0.2788 -0.7228 -0.2708
  161DOPC  H11R19448   4.284   1.336   5.740 -0.3730  0.9627  2.1577
  161DOPC  H11S19449   4.166   1.296   5.872  1.0266 -0.8267 -0.0296
  161DOPC  C21219450   4.087   1.409   5.709  1.0624 -0.5825 -0.4167
  161DOPC  H12R19451   4.116   1.505   5.758  0.2450 -0.6659  0.2412
  161DOPC  H12S19452   3.981   1.382   5.727  0.8852  1.1201  1.4784
  161DOPC  C21319453   4.094   1.438   5.558 -0.3424  0.5803 -0.0113
  161DOPC  H13R19454   4.086   1.344   5.500  0.4289  1.0233 -0.8556
  161DOPC  H13S19455   4.197   1.479   5.548  0.2958 -0.4130  1.8507
  161DOPC  C21419456   3.989   1.549   5.519  0.1456  0.3015 -0.1474
  161DOPC  H14R19457   4.000   1.629   5.595 -2.3888 -1.0523  1.8009
  161DOPC  H14S19458   3.889   1.502   5.528  0.8704 -1.2801 -0.0541
  161DOPC  C21519459   3.995   1.607   5.381  0.3287 -0.1673  0.3332
  161DOPC  H15R19460   4.084   1.671   5.363  1.1336 -1.6162 -1.0372
  161DOPC  H15S19461   3.901   1.665   5.367  0.2561 -0.4483 -0.3819
  161DOPC  C21619462   3.993   1.510   5.257 -0.2765  0.4612  0.0014
  161DOPC  H16R19463   3.904   1.443   5.256 -0.4209  0.4795  2.7090
  161DOPC  H16S19464   4.077   1.441   5.280 -1.2686  0.1387  3.2917
  161DOPC  C21719465   4.015   1.579   5.129  0.3909 -0.2535  0.4668
  161DOPC  H17R19466   4.008   1.509   5.043  1.6525  0.1215  0.0342
  161DOPC  H17S19467   4.110   1.637   5.125  0.0321  0.2905 -1.1764
  161DOPC  C21819468   3.906   1.685   5.092  0.1752 -0.1736 -0.4873
  161DOPC  H18R19469   3.804   1.644   5.104  0.0758 -1.2356 -3.9577
  161DOPC  H18S19470   3.914   1.711   4.984 -0.2998  0.1932 -0.4381
  161DOPC  H18T19471   3.909   1.781   5.148  0.9492  0.3604 -1.4060
  161DOPC   C3319472   4.744   1.648   6.549 -1.1538 -0.0439 -0.1241
  161DOPC   H3X19473   4.734   1.742   6.491 -2.1762  1.1166  1.8406
  161DOPC   H3Y19474   4.645   1.638   6.597 -1.1096 -0.9747 -0.1927
  161DOPC   C3419475   4.770   1.527   6.449 -0.1622 -0.2353 -0.8772
  161DOPC   H4X19476   4.799   1.431   6.497 -1.0105  0.8066  1.9401
  161DOPC   H4Y19477   4.856   1.559   6.387 -0.7331 -0.6862 -1.9126
  161DOPC   C3519478   4.658   1.521   6.341  0.3479  0.3711 -0.0100
  161DOPC   H5X19479   4.667   1.594   6.258 -2.5056  2.6113  1.4398
  161DOPC   H5Y19480   4.554   1.542   6.377  0.9767  2.1248  0.9082
  161DOPC   C3619481   4.654   1.376   6.287  0.0603  0.2373 -0.0058
  161DOPC   H6X19482   4.625   1.326   6.381  0.6410  1.0254  0.6109
  161DOPC   H6Y19483   4.567   1.350   6.224  0.2532 -1.3525  0.3413
  161DOPC   C3719484   4.789   1.333   6.223  0.3848  0.1093 -0.0892
  161DOPC   H7X19485   4.867   1.343   6.301  0.7558  0.8426 -0.5370
  161DOPC   H7Y19486   4.779   1.227   6.192 -0.8532  0.4656 -1.0272
  161DOPC   C3819487   4.822   1.410   6.102  0.4762 -0.0026  0.3434
  161DOPC   H8X19488   4.874   1.503   6.135  1.1088 -0.2050 -0.0516
  161DOPC   H8Y19489   4.734   1.441   6.042  2.0428  0.7391 -1.7046
  161DOPC   C3919490   4.917   1.331   6.010  0.3630 -0.4833  0.3671
  161DOPC   H9X19491   5.017   1.310   6.051  0.7224 -0.1739 -0.3244
  161DOPC  C31019492   4.877   1.276   5.894  0.0185 -0.3154  0.3771
  161DOPC  H10X19493   4.959   1.223   5.843  0.2282  1.7415 -1.5572
  161DOPC  C31119494   4.741   1.273   5.828 -0.0222  0.1217  0.0390
  161DOPC  H11X19495   4.680   1.203   5.889  0.8163  0.6138  1.5054
  161DOPC  H11Y19496   4.755   1.223   5.730 -1.3531 -1.4790  0.6267
  161DOPC  C31219497   4.665   1.406   5.799 -0.4815  0.6011  0.7017
  161DOPC  H12X19498   4.729   1.484   5.846 -1.7735  2.0396  0.1584
  161DOPC  H12Y19499   4.576   1.405   5.864 -1.6000 -0.5546 -0.7909
  161DOPC  C31319500   4.624   1.424   5.654  0.4698  0.1397  0.0406
  161DOPC  H13X19501   4.722   1.423   5.602  2.5491  2.8422  3.4169
  161DOPC  H13Y19502   4.563   1.334   5.633  2.0737 -1.4402  1.7289
  161DOPC  C31419503   4.555   1.555   5.623  0.2916  0.0326 -0.5373
  161DOPC  H14X19504   4.464   1.552   5.687  0.1168 -1.8736 -0.8211
  161DOPC  H14Y19505   4.619   1.642   5.648 -0.9466  0.4779  1.3452
  161DOPC  C31519506   4.524   1.541   5.476 -0.2839  0.2016  0.6361
  161DOPC  H15X19507   4.444   1.466   5.458  0.5019 -0.5227  0.1012
  161DOPC  H15Y19508   4.617   1.516   5.420 -0.7790 -1.3687  0.4763
  161DOPC  C31619509   4.465   1.661   5.410  0.0232  0.0081 -0.1190
  161DOPC  H16X19510   4.370   1.674   5.467  0.7408  1.2913  0.8574
  161DOPC  H16Y19511   4.535   1.746   5.430 -0.7184  0.6314 -0.1370
  161DOPC  C31719512   4.438   1.665   5.255 -0.2207  0.3059 -0.2482
  161DOPC  H17X19513   4.376   1.753   5.227  0.6911  1.9696  2.5804
  161DOPC  H17Y19514   4.538   1.669   5.207  0.0117 -1.2494  0.0632
  161DOPC  C31819515   4.365   1.534   5.202 -0.5957  0.2721  0.4261
  161DOPC  H18X19516   4.427   1.446   5.228  0.9671  1.9085  2.5902
  161DOPC  H18Y19517   4.260   1.524   5.239 -0.1700 -1.5363  1.2644
  161DOPC  H18Z19518   4.361   1.526   5.092  0.1469  0.6248  0.3688
  162DOPC     N19519   2.059   6.323   7.089 -0.2697  0.1323 -0.5479
  162DOPC   C1219520   2.070   6.252   6.951  0.1699  0.2387 -0.0859
  162DOPC  H12A19521   1.973   6.228   6.911  0.5985 -3.0544  0.6023
  162DOPC  H12B19522   2.131   6.164   6.962  0.8267  0.6366 -0.4521
  162DOPC   C1319523   2.004   6.460   7.077 -0.5131  0.6761 -0.4993
  162DOPC  H13A19524   1.967   6.504   7.168  1.3446  1.6738 -0.1801
  162DOPC  H13B19525   2.067   6.534   7.029  0.0821 -0.0816 -0.9090
  162DOPC  H13C19526   1.926   6.461   7.003 -0.7679  0.5525 -0.2325
  162DOPC   C1419527   2.195   6.337   7.150  0.1922  0.8074 -0.0633
  162DOPC  H14A19528   2.259   6.400   7.091  2.7159 -2.1470 -0.7691
  162DOPC  H14B19529   2.202   6.368   7.253  0.4796  0.4281  0.0346
  162DOPC  H14C19530   2.238   6.238   7.152  0.6830  1.0242  0.0840
  162DOPC   C1519531   1.978   6.227   7.180  0.1960 -0.2850 -0.0396
  162DOPC  H15A19532   1.880   6.208   7.137 -0.3944  3.3809 -0.6543
  162DOPC  H15B19533   1.959   6.278   7.273 -1.8914  1.4523 -1.3159
  162DOPC  H15C19534   2.028   6.135   7.208  2.9041  1.3398  0.8942
  162DOPC   C1119535   2.148   6.330   6.833  0.4186  0.7883  0.0357
  162DOPC  H11A19536   2.135   6.272   6.739  0.8048  1.4171 -0.4097
  162DOPC  H11B19537   2.088   6.422   6.822 -0.7645  0.4929  2.9884
  162DOPC     P19538   2.348   6.471   6.769 -0.1337 -0.1184 -0.6656
  162DOPC   O1319539   2.493   6.432   6.760  0.4065 -0.6633 -0.0322
  162DOPC   O1419540   2.323   6.610   6.823  0.3924  0.8632  0.7352
  162DOPC   O1219541   2.282   6.364   6.865 -0.0934 -0.5343  0.3410
  162DOPC   O1119542   2.277   6.455   6.622 -0.2860  0.1045 -0.1344
  162DOPC    C119543   2.232   6.565   6.549 -0.7596 -0.2407  0.0756
  162DOPC    HA19544   2.289   6.658   6.573  3.8357 -3.3453  2.8684
  162DOPC    HB19545   2.124   6.583   6.565 -0.8116  1.4337 -1.7984
  162DOPC    C219546   2.238   6.539   6.401 -0.3777 -0.1366  0.4454
  162DOPC    HS19547   2.186   6.440   6.401  0.3830 -0.5724  2.1980
  162DOPC   O2119548   2.379   6.538   6.363  0.1405 -0.1627 -0.0899
  162DOPC   C2119549   2.403   6.448   6.264 -0.0744  0.3381 -0.0048
  162DOPC   O2219550   2.328   6.356   6.243  0.0145  0.3989  0.0831
  162DOPC   C2219551   2.540   6.470   6.204 -0.4157 -0.0993  0.0242
  162DOPC   H2R19552   2.607   6.388   6.237 -1.4511 -0.8043  0.4338
  162DOPC   H2S19553   2.585   6.565   6.240 -0.4917  0.6277 -1.6960
  162DOPC    C319554   2.160   6.654   6.327 -0.3568 -0.5638  0.3151
  162DOPC    HX19555   2.236   6.733   6.306 -0.4764 -0.3753  0.5911
  162DOPC    HY19556   2.085   6.701   6.393  0.5180  1.9103 -0.3148
  162DOPC   O3119557   2.095   6.604   6.206 -0.0456  0.4239  0.1160
  162DOPC   C3119558   1.961   6.581   6.220 -0.1403 -0.5374 -0.3037
  162DOPC   O3219559   1.897   6.609   6.317  0.1180 -0.1277 -0.1655
  162DOPC   C3219560   1.909   6.522   6.087 -0.5160  0.2972 -0.6581
  162DOPC   H2X19561   1.976   6.572   6.014 -0.8960 -0.0548 -1.2508
  162DOPC   H2Y19562   1.923   6.413   6.101 -1.1992  0.2063 -0.6482
  162DOPC   C2319563   2.550   6.488   6.047  0.1923  0.0979  0.1024
  162DOPC   H3R19564   2.514   6.393   6.001 -0.0027 -0.0371  0.5279
  162DOPC   H3S19565   2.659   6.503   6.028  0.5202  1.6189  2.7364
  162DOPC   C2419566   2.481   6.622   5.989  0.6820 -0.2863 -0.3216
  162DOPC   H4R19567   2.528   6.701   6.052  0.8504  0.1589 -1.0015
  162DOPC   H4S19568   2.373   6.631   6.014  0.9514 -1.0436  1.2315
  162DOPC   C2519569   2.507   6.656   5.846 -0.3268 -0.4981  0.4650
  162DOPC   H5R19570   2.615   6.639   5.826 -0.9621 -3.7019 -0.7815
  162DOPC   H5S19571   2.488   6.766   5.843  0.1729 -0.3138  2.4685
  162DOPC   C2619572   2.424   6.581   5.751  0.6683  0.0769  1.0632
  162DOPC   H6R19573   2.314   6.585   5.767  0.6417  0.3181  0.8371
  162DOPC   H6S19574   2.459   6.477   5.765 -0.6089 -0.3531  1.2028
  162DOPC   C2719575   2.444   6.633   5.612 -0.1697 -0.1829 -0.2915
  162DOPC   H7R19576   2.548   6.671   5.598 -1.3620  3.5105 -0.3447
  162DOPC   H7S19577   2.383   6.724   5.593 -2.2419 -1.5328 -0.4165
  162DOPC   C2819578   2.400   6.523   5.509  0.0420 -0.3167  0.6047
  162DOPC   H8R19579   2.291   6.510   5.524 -0.4627  0.7471 -1.7235
  162DOPC   H8S19580   2.452   6.426   5.528  1.3140  0.5041  1.4801
  162DOPC   C2919581   2.431   6.572   5.365  0.7670  1.0423  0.7340
  162DOPC   H9R19582   2.385   6.669   5.338 -0.3245  1.0204  2.3882
  162DOPC  C21019583   2.491   6.508   5.270  0.4134  0.0736 -0.2401
  162DOPC  H10R19584   2.511   6.556   5.174  0.5531  1.1310  0.3017
  162DOPC  C21119585   2.546   6.366   5.277  0.1226 -0.5335 -0.2230
  162DOPC  H11R19586   2.482   6.317   5.354  0.2917  0.0279  0.2783
  162DOPC  H11S19587   2.652   6.365   5.308 -0.5459  1.7073  2.5222
  162DOPC  C21219588   2.540   6.274   5.153 -0.0640  0.4244 -0.4486
  162DOPC  H12R19589   2.443   6.280   5.099 -0.0820  0.7863 -0.3774
  162DOPC  H12S19590   2.557   6.170   5.188 -3.1580 -0.5753 -1.5759
  162DOPC  C21319591   2.652   6.312   5.057  0.0646 -0.3945  0.3450
  162DOPC  H13R19592   2.747   6.318   5.114 -0.5321 -1.2598  1.4674
  162DOPC  H13S19593   2.625   6.412   5.018  1.3184  0.8732  2.5289
  162DOPC  C21419594   2.682   6.220   4.929 -0.4242  0.9517 -0.2404
  162DOPC  H14R19595   2.591   6.215   4.867  0.5311 -0.7645 -1.5995
  162DOPC  H14S19596   2.716   6.120   4.966  1.7386  1.1398 -1.5601
  162DOPC  C21519597   2.795   6.276   4.838  0.1063  0.3393  0.0210
  162DOPC  H15R19598   2.890   6.288   4.894 -1.2210  0.3000  2.4006
  162DOPC  H15S19599   2.755   6.371   4.796  0.1970 -0.1128 -1.1413
  162DOPC  C21619600   2.824   6.177   4.727  0.0791  0.1723  0.4978
  162DOPC  H16R19601   2.727   6.162   4.674 -0.5635  0.7628  1.4847
  162DOPC  H16S19602   2.869   6.080   4.759 -0.2689 -0.0784  0.2507
  162DOPC  C21719603   2.933   6.232   4.634  0.3728  0.4419  0.3232
  162DOPC  H17R19604   3.024   6.250   4.696  0.4092  2.2190 -0.1951
  162DOPC  H17S19605   2.900   6.332   4.600 -2.7044 -0.5125  0.2532
  162DOPC  C21819606   2.959   6.147   4.516  0.1868  0.2546 -0.0999
  162DOPC  H18R19607   2.874   6.146   4.445 -0.7424  0.2409  0.9829
  162DOPC  H18S19608   2.994   6.048   4.550  0.2707  0.4982  0.5327
  162DOPC  H18T19609   3.049   6.190   4.467 -0.7465  0.7004 -1.5099
  162DOPC   C3319610   1.762   6.570   6.065  0.2604 -0.3000  0.5486
  162DOPC   H3X19611   1.754   6.679   6.044 -1.2078 -0.4820 -0.0197
  162DOPC   H3Y19612   1.707   6.542   6.157  0.6720 -1.7071  0.3785
  162DOPC   C3419613   1.702   6.506   5.941 -0.2740  0.4507 -0.8881
  162DOPC   H4X19614   1.592   6.518   5.943 -0.4934 -1.3169 -1.0866
  162DOPC   H4Y19615   1.719   6.397   5.956 -1.3168  0.4376  0.4269
  162DOPC   C3519616   1.755   6.564   5.812 -0.1477  0.4654  0.0890
  162DOPC   H5X19617   1.861   6.532   5.801 -0.3601 -0.2302 -0.0116
  162DOPC   H5Y19618   1.762   6.675   5.811  1.0334  0.4275  1.1337
  162DOPC   C3619619   1.685   6.522   5.687 -0.2684  0.2719 -0.6160
  162DOPC   H6X19620   1.684   6.411   5.680 -0.3121  0.0863  1.5195
  162DOPC   H6Y19621   1.580   6.555   5.702  0.4076  1.1929  2.9950
  162DOPC   C3719622   1.746   6.591   5.567 -0.9567  0.2657  0.0669
  162DOPC   H7X19623   1.759   6.700   5.585  0.0131  0.4622 -1.5559
  162DOPC   H7Y19624   1.843   6.545   5.535 -0.1760  1.0554  1.2227
  162DOPC   C3819625   1.651   6.596   5.446  0.3581  0.2508  0.0563
  162DOPC   H8X19626   1.559   6.647   5.481  1.1914  1.5211  0.4779
  162DOPC   H8Y19627   1.618   6.493   5.420  0.2251  0.2651  0.1696
  162DOPC   C3919628   1.695   6.674   5.325 -0.1167 -0.4478 -0.2165
  162DOPC   H9X19629   1.759   6.759   5.353 -1.9573  0.8523  0.2507
  162DOPC  C31019630   1.669   6.650   5.195 -0.4557  0.4242 -0.1694
  162DOPC  H10X19631   1.742   6.701   5.130 -1.6540  0.1424 -1.7831
  162DOPC  C31119632   1.593   6.543   5.129 -0.5491  1.1152 -0.4416
  162DOPC  H11X19633   1.534   6.488   5.205 -1.3381 -0.8717 -2.3674
  162DOPC  H11Y19634   1.655   6.474   5.069 -0.6526  1.7744 -1.3355
  162DOPC  C31219635   1.497   6.604   5.024  0.0617  0.0212 -1.0964
  162DOPC  H12X19636   1.545   6.655   4.938 -0.0600 -0.0478 -1.2066
  162DOPC  H12Y19637   1.432   6.682   5.070  0.0301  0.6579 -2.1887
  162DOPC  C31319638   1.404   6.497   4.965 -0.1040  0.4516 -0.0194
  162DOPC  H13X19639   1.350   6.435   5.041 -0.3033 -0.2924 -0.7510
  162DOPC  H13Y19640   1.320   6.543   4.909 -0.7064 -1.0255 -0.3903
  162DOPC  C31419641   1.469   6.403   4.861 -0.4018 -0.1740  0.1722
  162DOPC  H14X19642   1.522   6.476   4.797 -1.4950  0.4911  0.0087
  162DOPC  H14Y19643   1.547   6.343   4.913  0.4090  1.5835  1.0892
  162DOPC  C31519644   1.371   6.322   4.781  0.4185 -0.1121  0.5298
  162DOPC  H15X19645   1.307   6.256   4.843  1.2511 -2.0358 -0.5487
  162DOPC  H15Y19646   1.424   6.257   4.708 -0.9959 -2.6729  1.6446
  162DOPC  C31619647   1.283   6.397   4.678  0.9568  0.1475 -0.4369
  162DOPC  H16X19648   1.217   6.465   4.735  0.2487  0.4299 -1.5493
  162DOPC  H16Y19649   1.336   6.464   4.606 -1.6269  1.7081 -1.0097
  162DOPC  C31719650   1.191   6.297   4.606  0.1188  0.1340  0.2367
  162DOPC  H17X19651   1.248   6.210   4.568 -0.5212 -1.2753  2.3639
  162DOPC  H17Y19652   1.122   6.258   4.683 -0.8907  1.4067  0.0322
  162DOPC  C31819653   1.089   6.372   4.516 -1.1942 -0.3273  0.9932
  162DOPC  H18X19654   1.150   6.396   4.426  0.2041 -1.8623  1.4979
  162DOPC  H18Y19655   1.004   6.305   4.494 -2.3276  1.0667  0.9761
  162DOPC  H18Z19656   1.050   6.463   4.566 -1.8309  0.8353 -1.4294
  163DOPC     N19657   2.833   5.083   7.216 -0.5488  0.2515  0.4601
  163DOPC   C1219658   2.832   4.939   7.182 -0.0291  0.0716 -0.1422
  163DOPC  H12A19659   2.728   4.911   7.169 -0.1886  0.7255 -0.3274
  163DOPC  H12B19660   2.866   4.880   7.266 -0.6031 -0.2903 -0.1535
  163DOPC   C1319661   2.754   5.125   7.335  0.3799  0.1774  0.1015
  163DOPC  H13A19662   2.664   5.065   7.332  0.7615 -0.3856 -0.0034
  163DOPC  H13B19663   2.809   5.101   7.425  0.7778 -2.5727 -0.8011
  163DOPC  H13C19664   2.722   5.229   7.335  0.2961  0.1962  2.1470
  163DOPC   C1419665   2.782   5.149   7.087 -0.0174 -0.4806  0.4073
  163DOPC  H14A19666   2.805   5.254   7.075  0.3945 -0.4821  1.1523
  163DOPC  H14B19667   2.831   5.093   7.009  0.0053  1.6475 -1.1961
  163DOPC  H14C19668   2.675   5.138   7.072 -0.1660  0.2054  0.9113
  163DOPC   C1519669   2.973   5.132   7.228 -0.3427  0.0096  0.2249
  163DOPC  H15A19670   3.017   5.078   7.311 -0.9550 -0.1699  0.4358
  163DOPC  H15B19671   2.977   5.237   7.253  0.4321  0.6023 -2.0814
  163DOPC  H15C19672   3.034   5.125   7.139 -0.8144  0.2390 -0.1202
  163DOPC   C1119673   2.914   4.881   7.064  0.0580  0.3686  0.2727
  163DOPC  H11A19674   3.014   4.929   7.061  0.3672 -0.2711  0.3233
  163DOPC  H11B19675   2.926   4.772   7.080 -0.3621  0.6533  3.0059
  163DOPC     P19676   2.730   4.818   6.892  0.1627 -0.3466 -0.0078
  163DOPC   O1319677   2.688   4.879   6.765 -0.2949 -0.9139  0.2233
  163DOPC   O1419678   2.630   4.810   7.000 -0.1173  0.0699  0.1632
  163DOPC   O1219679   2.852   4.909   6.945 -0.9570 -0.6236 -0.1199
  163DOPC   O1119680   2.800   4.682   6.872 -0.0679 -0.2245  0.1996
  163DOPC    C119681   2.753   4.610   6.760  0.1624  0.5740 -0.3555
  163DOPC    HA19682   2.771   4.653   6.659  0.2650  0.8965 -0.1996
  163DOPC    HB19683   2.643   4.595   6.767  0.3362 -0.2029  1.0355
  163DOPC    C219684   2.820   4.469   6.755  0.7865  0.0236 -0.5746
  163DOPC    HS19685   2.796   4.419   6.659 -1.2844  1.2104 -0.7335
  163DOPC   O2119686   2.780   4.387   6.863 -0.3982  0.5560 -0.1382
  163DOPC   C2119687   2.659   4.340   6.860 -0.4588 -0.1892 -0.1758
  163DOPC   O2219688   2.578   4.357   6.772  0.2760  0.5931 -0.2348
  163DOPC   C2219689   2.638   4.246   6.985 -0.5467 -0.2647 -0.6572
  163DOPC   H2R19690   2.544   4.278   7.035  0.5978  0.5226  1.1032
  163DOPC   H2S19691   2.722   4.267   7.055  1.0596 -0.9105 -2.2939
  163DOPC    C319692   2.973   4.487   6.754  0.3552  0.0586  0.0666
  163DOPC    HX19693   2.985   4.545   6.848 -0.1213  1.2657 -0.5917
  163DOPC    HY19694   2.997   4.559   6.673  0.9149 -0.7474 -0.5096
  163DOPC   O3119695   3.050   4.362   6.742 -0.2118 -0.2491 -0.4411
  163DOPC   C3119696   3.118   4.315   6.844  0.1716  0.2366  0.0048
  163DOPC   O3219697   3.123   4.367   6.950 -0.2024  0.0955  0.3132
  163DOPC   C3219698   3.198   4.186   6.804 -0.2790 -0.0917  0.1132
  163DOPC   H2X19699   3.252   4.200   6.708 -1.6769 -1.7457 -0.9870
  163DOPC   H2Y19700   3.276   4.179   6.883 -0.9158 -0.1491  0.7472
  163DOPC   C2319701   2.630   4.093   6.954 -0.3786 -0.0523  0.6750
  163DOPC   H3R19702   2.717   4.056   6.895  0.1110  0.3610  1.1235
  163DOPC   H3S19703   2.546   4.074   6.885 -0.6698 -2.2327  1.5407
  163DOPC   C2419704   2.599   4.006   7.083  0.0293  0.0602 -0.3969
  163DOPC   H4R19705   2.488   4.005   7.090  0.0961 -0.9570  0.9686
  163DOPC   H4S19706   2.643   4.053   7.173  0.0187  0.0478 -0.3851
  163DOPC   C2519707   2.663   3.859   7.064  0.1845  0.1939 -0.7807
  163DOPC   H5R19708   2.688   3.815   7.163 -0.6731 -1.7228 -1.3821
  163DOPC   H5S19709   2.765   3.867   7.019  1.0720 -0.8047  0.9494
  163DOPC   C2619710   2.575   3.772   6.972  0.0849 -0.2705 -0.9193
  163DOPC   H6R19711   2.555   3.808   6.869 -1.3709  0.6561 -0.3545
  163DOPC   H6S19712   2.477   3.750   7.019  1.1526 -1.1472  1.0093
  163DOPC   C2719713   2.645   3.637   6.954 -0.1099  0.1860  0.1490
  163DOPC   H7R19714   2.637   3.583   7.051  0.6735  1.1002  0.7388
  163DOPC   H7S19715   2.750   3.671   6.942 -0.7081  1.3708 -2.1644
  163DOPC   C2819716   2.586   3.573   6.832  0.5380 -0.1982  0.0014
  163DOPC   H8R19717   2.626   3.618   6.739 -0.7048  0.4685 -0.2229
  163DOPC   H8S19718   2.476   3.585   6.840  0.3718 -2.0171  1.1150
  163DOPC   C2919719   2.604   3.426   6.846  0.3373 -0.2720 -0.4669
  163DOPC   H9R19720   2.646   3.399   6.944 -1.5994  2.4296  1.2528
  163DOPC  C21019721   2.598   3.339   6.745  0.4462  0.1958  0.5001
  163DOPC  H10R19722   2.617   3.233   6.766 -1.7844 -0.5029 -0.7295
  163DOPC  C21119723   2.569   3.375   6.602 -0.0699  0.0322  0.4426
  163DOPC  H11R19724   2.579   3.283   6.539 -1.3887  1.4218 -1.9375
  163DOPC  H11S19725   2.647   3.442   6.562 -1.0031  0.6139 -0.4593
  163DOPC  C21219726   2.434   3.420   6.549 -0.4735  0.3190 -0.7878
  163DOPC  H12R19727   2.405   3.513   6.603  1.2943  0.9949 -0.9458
  163DOPC  H12S19728   2.355   3.344   6.568 -0.8420  1.2457  1.7380
  163DOPC  C21319729   2.442   3.448   6.400  0.1397 -0.0547  0.2072
  163DOPC  H13R19730   2.472   3.351   6.355 -2.7043 -1.9042  2.0131
  163DOPC  H13S19731   2.522   3.520   6.373 -1.1092  1.2112 -0.2658
  163DOPC  C21419732   2.304   3.493   6.350  0.5000  0.3567  0.2222
  163DOPC  H14R19733   2.270   3.585   6.402  1.9119  1.1411 -0.1820
  163DOPC  H14S19734   2.225   3.415   6.351 -0.4109  1.1499 -2.3800
  163DOPC  C21519735   2.312   3.526   6.199 -0.5308 -0.1426 -0.0546
  163DOPC  H15R19736   2.210   3.510   6.158 -0.4101 -0.6075 -0.1797
  163DOPC  H15S19737   2.388   3.454   6.160 -2.8360 -1.4580 -2.4658
  163DOPC  C21619738   2.368   3.669   6.172 -0.1204 -0.2305 -0.3063
  163DOPC  H16R19739   2.461   3.698   6.223  0.2590 -0.4322 -0.8738
  163DOPC  H16S19740   2.294   3.739   6.217 -2.0497 -0.1141 -3.3698
  163DOPC  C21719741   2.382   3.708   6.025  0.1496  0.6819 -0.4011
  163DOPC  H17R19742   2.468   3.649   5.990  0.9083 -0.5001  3.0871
  163DOPC  H17S19743   2.410   3.816   6.019 -0.1099  0.7569 -0.3122
  163DOPC  C21819744   2.268   3.677   5.922  0.0584 -0.1123  0.7134
  163DOPC  H18R19745   2.299   3.689   5.816  0.4301 -2.5635  0.4918
  163DOPC  H18S19746   2.184   3.744   5.951  0.7634  0.5953  1.1778
  163DOPC  H18T19747   2.238   3.573   5.945  0.0850 -1.0536 -2.8947
  163DOPC   C3319748   3.118   4.054   6.816 -0.5348 -0.4136  0.0712
  163DOPC   H3X19749   3.080   4.035   6.918 -2.2077 -0.3274 -0.5018
  163DOPC   H3Y19750   3.188   3.973   6.783  0.6311  0.6058 -0.0587
  163DOPC   C3419751   3.001   4.065   6.723  0.7336  0.2042  0.6893
  163DOPC   H4X19752   3.043   4.086   6.622  2.4420 -0.2757  1.2535
  163DOPC   H4Y19753   2.936   4.153   6.742 -0.6112 -0.3388 -1.1017
  163DOPC   C3519754   2.919   3.935   6.719  0.2323  0.2213 -0.3754
  163DOPC   H5X19755   2.826   3.946   6.660  0.1262 -0.0789 -0.2634
  163DOPC   H5Y19756   2.892   3.903   6.822  3.4792 -0.5753  0.3746
  163DOPC   C3619757   3.009   3.827   6.663 -0.0091 -0.2487 -0.6597
  163DOPC   H6X19758   3.030   3.859   6.558 -0.3762  0.5646 -0.4955
  163DOPC   H6Y19759   3.101   3.815   6.724 -1.2003  0.7656  1.4517
  163DOPC   C3719760   2.936   3.693   6.653  0.2540 -0.1425  0.2226
  163DOPC   H7X19761   2.917   3.645   6.752 -1.1271  0.3907  0.2338
  163DOPC   H7Y19762   2.835   3.708   6.609 -0.3620 -2.4780  0.6983
  163DOPC   C3819763   3.010   3.599   6.557 -0.0573  0.1585 -0.2861
  163DOPC   H8X19764   3.117   3.593   6.588  0.0488  2.0528 -0.1835
  163DOPC   H8Y19765   3.000   3.633   6.451 -0.2300  1.2742  0.0746
  163DOPC   C3919766   2.943   3.465   6.564  0.1691  0.8223 -0.5710
  163DOPC   H9X19767   2.938   3.440   6.670  1.6988  3.1658  0.1276
  163DOPC  C31019768   2.909   3.368   6.477  0.0653  0.7604 -0.0850
  163DOPC  H10X19769   2.845   3.281   6.500  1.6042 -0.3436  0.1926
  163DOPC  C31119770   2.938   3.391   6.337 -0.1865  0.1568  0.0083
  163DOPC  H11X19771   3.048   3.381   6.325  0.2306  2.1717  1.5073
  163DOPC  H11Y19772   2.920   3.495   6.302  0.3755  0.2101 -0.1416
  163DOPC  C31219773   2.852   3.313   6.242  1.0310  0.0049  0.0774
  163DOPC  H12X19774   2.746   3.343   6.260  0.7636  0.8201 -2.5268
  163DOPC  H12Y19775   2.854   3.208   6.279  2.8575  0.9155  2.8888
  163DOPC  C31319776   2.885   3.308   6.090 -0.7450  0.3727  0.4040
  163DOPC  H13X19777   2.827   3.391   6.044 -3.1478 -0.7386  1.2234
  163DOPC  H13Y19778   2.993   3.331   6.093 -0.0453 -2.6124  1.4547
  163DOPC  C31419779   2.864   3.171   6.024 -0.2114  0.1965 -0.0269
  163DOPC  H14X19780   2.912   3.099   6.094  0.8812  1.0759  0.1693
  163DOPC  H14Y19781   2.755   3.152   6.029 -0.7146  2.8850  1.4540
  163DOPC  C31519782   2.938   3.161   5.892 -0.0420 -0.2989 -0.0804
  163DOPC  H15X19783   3.048   3.161   5.903 -0.0181  1.6475  0.0622
  163DOPC  H15Y19784   2.909   3.253   5.837 -2.4623 -0.4882  0.7718
  163DOPC  C31619785   2.892   3.039   5.812  0.3210  0.3347 -0.7023
  163DOPC  H16X19786   2.906   2.950   5.876  1.9808 -0.4666 -2.0679
  163DOPC  H16Y19787   2.782   3.045   5.810  0.3457  0.8894 -0.5932
  163DOPC  C31719788   2.948   3.007   5.671  0.8212  0.0618 -0.5642
  163DOPC  H17X19789   2.883   2.928   5.628 -1.5438  1.3480  0.4336
  163DOPC  H17Y19790   2.934   3.099   5.611 -0.0214 -1.1063 -2.2508
  163DOPC  C31819791   3.095   2.959   5.674  0.2495  0.3608 -0.4584
  163DOPC  H18X19792   3.094   2.866   5.736  0.3906  0.5575 -0.1616
  163DOPC  H18Y19793   3.125   2.923   5.573  0.2185 -0.4675 -0.1808
  163DOPC  H18Z19794   3.169   3.025   5.722 -0.2463 -1.1286  2.5834
  164DOPC     N19795   2.729   1.493   7.626 -0.2904 -0.2844 -0.2687
  164DOPC   C1219796   2.691   1.497   7.477 -0.4673  0.1682  0.3425
  164DOPC  H12A19797   2.643   1.403   7.452  2.0454 -1.5353  1.4123
  164DOPC  H12B19798   2.776   1.494   7.409 -1.6719  2.9249 -1.4382
  164DOPC   C1319799   2.816   1.377   7.651 -0.3343  0.0039 -0.1781
  164DOPC  H13A19800   2.903   1.381   7.587 -1.7649  0.4794 -2.2143
  164DOPC  H13B19801   2.847   1.363   7.753  0.3315 -1.9731 -0.5915
  164DOPC  H13C19802   2.779   1.278   7.626 -0.0270 -0.3392  0.7091
  164DOPC   C1419803   2.611   1.478   7.712  0.8422 -0.0155  0.3799
  164DOPC  H14A19804   2.578   1.375   7.711  4.1302 -1.1751 -0.4471
  164DOPC  H14B19805   2.619   1.516   7.812 -0.7789  0.3848  0.4018
  164DOPC  H14C19806   2.530   1.535   7.668 -0.8783 -3.3719 -1.2305
  164DOPC   C1519807   2.793   1.621   7.668 -0.4099 -0.2274  0.3340
  164DOPC  H15A19808   2.887   1.628   7.614 -0.4972 -0.0283  0.2077
  164DOPC  H15B19809   2.813   1.620   7.774 -0.5913 -1.2108  0.3707
  164DOPC  H15C19810   2.734   1.707   7.642 -0.0048  0.3094  1.1677
  164DOPC   C1119811   2.599   1.607   7.433  0.0602 -0.6588 -0.6299
  164DOPC  H11A19812   2.598   1.697   7.499  0.2881 -0.3678 -1.0210
  164DOPC  H11B19813   2.633   1.644   7.334 -0.3121 -1.3150 -1.0105
  164DOPC     P19814   2.410   1.491   7.298  0.3450  0.5294 -0.4008
  164DOPC   O1319815   2.279   1.429   7.329 -0.6262  0.5069  0.5095
  164DOPC   O1419816   2.516   1.398   7.251  0.4586 -0.2043 -0.1879
  164DOPC   O1219817   2.466   1.563   7.429  0.1711  0.2538  0.1101
  164DOPC   O1119818   2.388   1.614   7.194  0.1968 -0.4510  0.4905
  164DOPC    C119819   2.264   1.677   7.184  0.4674  0.4004  0.2271
  164DOPC    HA19820   2.262   1.765   7.251  1.2038  0.8276 -0.2914
  164DOPC    HB19821   2.179   1.609   7.204 -0.9437  1.8535 -0.6118
  164DOPC    C219822   2.242   1.725   7.035 -0.7889 -0.1591  0.2894
  164DOPC    HS19823   2.270   1.639   6.971  0.1636  1.4774 -1.5806
  164DOPC   O2119824   2.316   1.845   7.014  0.2003  0.3343  0.0827
  164DOPC   C2119825   2.363   1.856   6.886 -0.2966 -0.2494  0.3432
  164DOPC   O2219826   2.360   1.766   6.803  0.1837  0.0743  0.1819
  164DOPC   C2219827   2.436   1.991   6.877  0.2094 -0.4304 -0.0185
  164DOPC   H2R19828   2.533   1.990   6.930 -0.3487 -0.1076  1.0321
  164DOPC   H2S19829   2.368   2.064   6.926 -1.4972 -0.3545 -2.2844
  164DOPC    C319830   2.082   1.744   7.002 -0.0060  0.0311 -0.8414
  164DOPC    HX19831   2.048   1.822   7.073  0.8922  0.0012 -0.3555
  164DOPC    HY19832   2.031   1.649   7.027  1.5502 -1.7936 -4.0065
  164DOPC   O3119833   2.050   1.804   6.874 -0.2145 -0.2640 -0.0396
  164DOPC   C3119834   2.026   1.709   6.780  0.3054  0.2556 -0.3879
  164DOPC   O3219835   2.030   1.587   6.795 -0.3671 -0.3813  0.6160
  164DOPC   C3219836   2.001   1.778   6.640  0.1747  0.2859  0.1623
  164DOPC   H2X19837   1.956   1.877   6.663  0.3743  0.2993  0.4923
  164DOPC   H2Y19838   2.099   1.796   6.591  0.3297  1.2902  0.8220
  164DOPC   C2319839   2.462   2.056   6.736 -0.0062 -0.6840 -0.3876
  164DOPC   H3R19840   2.526   1.998   6.666  2.3841  0.1684  0.9913
  164DOPC   H3S19841   2.506   2.156   6.755 -1.3035 -0.4247  1.5065
  164DOPC   C2419842   2.323   2.083   6.668 -0.0702 -0.0061  0.0409
  164DOPC   H4R19843   2.255   2.119   6.748  0.1263  0.0470  0.1853
  164DOPC   H4S19844   2.281   1.985   6.636  0.8375  0.0210 -1.2884
  164DOPC   C2519845   2.339   2.174   6.546  0.1174  0.3317 -0.2316
  164DOPC   H5R19846   2.403   2.261   6.577  2.6385 -1.3302 -0.4431
  164DOPC   H5S19847   2.237   2.203   6.512 -0.9412 -1.4524  1.2818
  164DOPC   C2619848   2.408   2.110   6.421 -0.3217  0.1069  0.1104
  164DOPC   H6R19849   2.334   2.038   6.379  0.3294  0.0102 -0.9163
  164DOPC   H6S19850   2.500   2.057   6.454 -0.4896 -0.6810 -0.6389
  164DOPC   C2719851   2.438   2.209   6.300 -0.5319 -0.1314 -0.0318
  164DOPC   H7R19852   2.341   2.239   6.253 -1.1526 -0.0846  1.2200
  164DOPC   H7S19853   2.501   2.155   6.227  0.4141  0.9653 -0.0601
  164DOPC   C2819854   2.525   2.327   6.343 -0.3670 -0.2433 -0.1997
  164DOPC   H8R19855   2.584   2.298   6.432 -0.7994 -0.7834 -0.0833
  164DOPC   H8S19856   2.452   2.405   6.375  1.1413  1.4267 -0.6540
  164DOPC   C2919857   2.628   2.376   6.238 -0.9927  0.0041 -0.2951
  164DOPC   H9R19858   2.612   2.349   6.132 -1.5968  1.0579 -0.4886
  164DOPC  C21019859   2.735   2.445   6.273 -0.1533  0.2834 -0.2955
  164DOPC  H10R19860   2.811   2.469   6.197 -2.3246 -0.2077 -2.7550
  164DOPC  C21119861   2.778   2.489   6.410 -0.0657  0.2106 -1.1336
  164DOPC  H11R19862   2.729   2.447   6.501  0.7460  0.5451 -0.5208
  164DOPC  H11S19863   2.758   2.598   6.413 -2.4300 -0.1907 -0.0386
  164DOPC  C21219864   2.926   2.464   6.427 -0.2332  1.0656 -0.5936
  164DOPC  H12R19865   2.989   2.488   6.339 -0.1523 -0.7192 -1.0721
  164DOPC  H12S19866   2.945   2.355   6.439  0.4130  1.1888 -0.4762
  164DOPC  C21319867   3.001   2.524   6.545 -0.3280 -0.1695 -0.4250
  164DOPC  H13R19868   2.967   2.487   6.644 -0.5820  1.3612  0.0890
  164DOPC  H13S19869   2.986   2.634   6.547  3.0806  0.5364 -3.4203
  164DOPC  C21419870   3.151   2.488   6.542  0.3770  0.3338 -0.2038
  164DOPC  H14R19871   3.211   2.534   6.460 -0.6273 -1.3822 -1.9724
  164DOPC  H14S19872   3.159   2.379   6.522 -2.3575 -0.0197  0.2942
  164DOPC  C21519873   3.211   2.511   6.685  0.2096  0.6747 -0.3681
  164DOPC  H15R19874   3.144   2.486   6.770  1.1298  2.3462  0.9297
  164DOPC  H15S19875   3.238   2.618   6.698  1.7041  0.1277  1.3753
  164DOPC  C21619876   3.355   2.451   6.708  0.0028 -0.7947 -0.0838
  164DOPC  H16R19877   3.345   2.340   6.709  0.3169 -0.8258 -0.2542
  164DOPC  H16S19878   3.390   2.488   6.807 -3.2811  0.4081  0.7457
  164DOPC  C21719879   3.458   2.481   6.601  0.3884 -0.6787  0.1609
  164DOPC  H17R19880   3.472   2.591   6.604  0.0348 -0.6384  2.3784
  164DOPC  H17S19881   3.407   2.445   6.509  0.1511 -0.5810  0.2529
  164DOPC  C21819882   3.592   2.403   6.617  0.3982 -0.3044 -0.1768
  164DOPC  H18R19883   3.643   2.402   6.518 -2.1265  0.9790 -1.6007
  164DOPC  H18S19884   3.566   2.303   6.659 -1.9863  0.8390  1.3315
  164DOPC  H18T19885   3.660   2.458   6.686 -0.6828  0.2713  0.4564
  164DOPC   C3319886   1.921   1.694   6.535  0.1194  0.2861 -0.3100
  164DOPC   H3X19887   1.830   1.645   6.575  0.3921 -0.7384 -0.8938
  164DOPC   H3Y19888   1.986   1.610   6.502  0.4856  1.1946 -2.0437
  164DOPC   C3419889   1.886   1.774   6.409  0.6123 -0.0519 -0.8090
  164DOPC   H4X19890   1.829   1.865   6.438  0.0016 -0.5362 -0.4816
  164DOPC   H4Y19891   1.837   1.706   6.336 -0.7578 -2.1629  1.9031
  164DOPC   C3519892   2.001   1.845   6.331 -0.2992  0.4893  0.0923
  164DOPC   H5X19893   2.074   1.765   6.304 -1.2278 -0.0243 -0.9305
  164DOPC   H5Y19894   2.060   1.916   6.393  1.7667 -0.5462 -0.6031
  164DOPC   C3619895   1.955   1.923   6.206 -0.2565  0.4370  0.4658
  164DOPC   H6X19896   1.897   2.014   6.233 -1.1844  0.9690 -2.9128
  164DOPC   H6Y19897   2.050   1.971   6.172 -1.2706  0.8943 -1.8861
  164DOPC   C3719898   1.889   1.843   6.097  0.1363 -0.0236  0.9281
  164DOPC   H7X19899   1.957   1.757   6.077  1.2318  1.2359 -1.2038
  164DOPC   H7Y19900   1.786   1.814   6.126  0.2328  0.6116  1.9442
  164DOPC   C3819901   1.875   1.923   5.964 -0.1381 -0.2853  0.4963
  164DOPC   H8X19902   1.802   2.007   5.973  1.7468  1.5145 -0.1202
  164DOPC   H8Y19903   1.820   1.856   5.895 -0.1882  1.4494 -1.2480
  164DOPC   C3919904   2.001   1.974   5.894  0.4064  0.3953  0.2143
  164DOPC   H9X19905   2.080   2.001   5.966  0.0608 -2.2221  1.6974
  164DOPC  C31019906   2.016   1.996   5.764 -0.1163 -0.1330  0.2726
  164DOPC  H10X19907   2.116   2.020   5.726 -0.3054 -0.4176 -0.4129
  164DOPC  C31119908   1.915   1.973   5.652  0.2242  0.6247 -0.2469
  164DOPC  H11X19909   1.902   2.063   5.589 -3.7879  1.8845  1.9621
  164DOPC  H11Y19910   1.815   1.945   5.693 -0.4900  1.0575 -1.6342
  164DOPC  C31219911   1.971   1.860   5.562  0.4670 -0.0414 -0.7768
  164DOPC  H12X19912   2.068   1.898   5.524 -0.6114  1.9019 -1.7371
  164DOPC  H12Y19913   1.899   1.853   5.478  0.6397  3.4369 -1.3992
  164DOPC  C31319914   1.976   1.721   5.624 -0.1060  0.1855 -0.0708
  164DOPC  H13X19915   1.983   1.723   5.735  0.3669  0.5235 -0.1038
  164DOPC  H13Y19916   1.877   1.672   5.607 -0.3598  0.5173  0.4177
  164DOPC  C31419917   2.096   1.641   5.569 -0.2692 -0.1437  0.0483
  164DOPC  H14X19918   2.116   1.552   5.631 -0.1280  0.3652  0.7421
  164DOPC  H14Y19919   2.181   1.712   5.570 -2.0556  2.1985 -1.6370
  164DOPC  C31519920   2.078   1.599   5.427  0.1932 -0.8289  0.1890
  164DOPC  H15X19921   2.083   1.693   5.368 -3.2274 -0.1470  0.7516
  164DOPC  H15Y19922   1.978   1.558   5.402 -1.1798  2.0573  0.5506
  164DOPC  C31619923   2.179   1.494   5.379 -0.3302 -1.0266 -0.3921
  164DOPC  H16X19924   2.283   1.534   5.378 -0.4418 -0.6631  0.6176
  164DOPC  H16Y19925   2.189   1.407   5.448  1.7582 -0.0082  0.6991
  164DOPC  C31719926   2.147   1.439   5.239 -0.2117 -0.4143 -0.5820
  164DOPC  H17X19927   2.050   1.387   5.254 -0.2784 -0.5733 -1.5389
  164DOPC  H17Y19928   2.143   1.535   5.183  5.0290  0.6090  0.2663
  164DOPC  C31819929   2.268   1.352   5.191  0.1565 -0.0119  0.2818
  164DOPC  H18X19930   2.285   1.279   5.273 -2.4680 -0.6504  0.3586
  164DOPC  H18Y19931   2.230   1.296   5.103 -0.1170 -1.0442  1.0391
  164DOPC  H18Z19932   2.355   1.406   5.149  0.2236  0.3850  0.9242
  165DOPC     N19933   6.913   0.715   7.024  0.3244  0.5896  0.1083
  165DOPC   C1219934   6.837   0.697   6.885  1.4974 -0.3842 -0.0021
  165DOPC  H12A19935   6.752   0.632   6.898  0.4156  0.7066 -1.1844
  165DOPC  H12B19936   6.899   0.644   6.814  2.3728  0.1096  0.3853
  165DOPC   C1319937   6.961   0.582   7.070  0.1197 -0.2310 -0.3434
  165DOPC  H13A19938   6.871   0.532   7.103 -1.2223  2.6386  0.5993
  165DOPC  H13B19939   7.013   0.529   6.991  1.0377 -0.6616  0.5311
  165DOPC  H13C19940   7.028   0.581   7.155 -1.2147  1.0599  0.7616
  165DOPC   C1419941   6.819   0.760   7.124  0.6936 -0.3423  0.0539
  165DOPC  H14A19942   6.742   0.686   7.143 -1.9145  2.1424 -0.1682
  165DOPC  H14B19943   6.870   0.783   7.216 -1.8994  3.7720  0.7696
  165DOPC  H14C19944   6.765   0.851   7.101 -1.8630 -1.5804  0.6716
  165DOPC   C1519945   7.024   0.811   7.009 -0.1667  0.3191 -0.0936
  165DOPC  H15A19946   7.080   0.779   6.923 -2.6514  1.9798 -2.4837
  165DOPC  H15B19947   7.089   0.819   7.096 -1.6934 -0.1783  1.1407
  165DOPC  H15C19948   6.984   0.911   6.996 -1.9542 -0.1075  1.6244
  165DOPC   C1119949   6.782   0.819   6.802  0.6599  0.2422 -0.2280
  165DOPC  H11A19950   6.866   0.884   6.768 -0.4694  1.4085 -0.8561
  165DOPC  H11B19951   6.738   0.769   6.713 -0.3425 -2.8305  1.7970
  165DOPC     P19952   6.703   1.046   6.910  0.2681 -0.0206  0.0317
  165DOPC   O1319953   6.831   1.051   6.994 -0.0133  0.1656  0.1843
  165DOPC   O1419954   6.576   1.104   6.963 -0.0306 -0.8947  0.6187
  165DOPC   O1219955   6.682   0.893   6.874  0.5563 -0.4452  0.3033
  165DOPC   O1119956   6.739   1.091   6.766  0.1235 -0.4838  0.4389
  165DOPC    C119957   6.710   1.222   6.718 -0.6074 -0.1883  0.4804
  165DOPC    HA19958   6.795   1.256   6.655 -0.5539 -1.6750 -0.3031
  165DOPC    HB19959   6.697   1.297   6.799 -2.1243  0.4386 -0.2980
  165DOPC    C219960   6.580   1.222   6.640 -0.1848  0.1438 -0.3275
  165DOPC    HS19961   6.525   1.128   6.664  0.5388 -0.0068  0.8459
  165DOPC   O2119962   6.606   1.239   6.501 -0.1093  0.1434 -0.1430
  165DOPC   C2119963   6.541   1.166   6.415  0.1435  0.3082  0.2541
  165DOPC   O2219964   6.449   1.085   6.441 -0.5651 -0.5012 -0.0450
  165DOPC   C2219965   6.585   1.191   6.279  0.7032 -0.8583 -0.4190
  165DOPC   H2R19966   6.684   1.143   6.273  0.9832 -0.2518 -0.7238
  165DOPC   H2S19967   6.586   1.300   6.261 -1.5108 -0.9388 -1.4736
  165DOPC    C319968   6.498   1.346   6.688 -0.2294  0.2910 -1.0039
  165DOPC    HX19969   6.563   1.432   6.663  0.8421  0.0434  0.7280
  165DOPC    HY19970   6.489   1.340   6.799 -1.1194  1.9935 -0.9462
  165DOPC   O3119971   6.371   1.357   6.618  0.0298 -0.8463  0.3586
  165DOPC   C3119972   6.278   1.431   6.691  0.2624  0.3453  0.2266
  165DOPC   O3219973   6.275   1.429   6.810 -0.5290 -0.5213  0.0952
  165DOPC   C3219974   6.180   1.505   6.601  0.2503 -0.2559  0.4563
  165DOPC   H2X19975   6.087   1.511   6.661 -0.5669  0.0170 -0.7951
  165DOPC   H2Y19976   6.224   1.605   6.580  1.8024 -0.6147  1.7841
  165DOPC   C2319977   6.489   1.118   6.182 -0.1300 -0.1501 -0.2230
  165DOPC   H3R19978   6.386   1.153   6.202  0.1163  0.4364  0.0602
  165DOPC   H3S19979   6.485   1.008   6.195  0.8564 -0.4954 -2.3817
  165DOPC   C2419980   6.521   1.150   6.032 -0.2472  0.1737  0.3542
  165DOPC   H4R19981   6.600   1.083   5.993 -1.8619 -0.6577 -1.6595
  165DOPC   H4S19982   6.560   1.254   6.029  1.5167 -0.4905 -2.1896
  165DOPC   C2519983   6.397   1.154   5.943 -0.4529 -0.3530 -0.3420
  165DOPC   H5R19984   6.337   1.242   5.975 -0.1056 -0.7121  1.3641
  165DOPC   H5S19985   6.348   1.055   5.955  2.8085 -2.4312 -2.5234
  165DOPC   C2619986   6.433   1.187   5.796 -0.3296 -0.7706  0.2899
  165DOPC   H6R19987   6.516   1.124   5.757  0.1711 -0.9866  1.6680
  165DOPC   H6S19988   6.455   1.295   5.787 -1.0469 -0.7186 -1.1854
  165DOPC   C2719989   6.311   1.163   5.702  0.3451 -0.3310  0.2940
  165DOPC   H7R19990   6.226   1.210   5.756  0.4356  0.4369 -0.2144
  165DOPC   H7S19991   6.301   1.053   5.710  3.0721 -0.5720  1.9053
  165DOPC   C2819992   6.313   1.205   5.548 -0.5686  0.0360 -0.7049
  165DOPC   H8R19993   6.397   1.152   5.498 -0.6073  0.7624 -1.5605
  165DOPC   H8S19994   6.320   1.315   5.538 -4.3213  0.2754 -2.1621
  165DOPC   C2919995   6.190   1.165   5.477 -0.3400 -0.6049  0.0884
  165DOPC   H9R19996   6.154   1.064   5.502 -1.9094  0.4231  2.3259
  165DOPC  C21019997   6.122   1.241   5.392  0.2448 -0.3990  0.3063
  165DOPC  H10R19998   6.046   1.199   5.324 -1.2337  0.3574  1.4179
  165DOPC  C21119999   6.149   1.383   5.344 -0.6516 -0.1248  0.0125
  165DOPC  H11R20000   6.250   1.414   5.380 -0.3692 -1.9434  0.9352
  165DOPC  H11S20001   6.078   1.463   5.373  0.0989  0.4059  0.4281
  165DOPC  C21220002   6.160   1.372   5.190 -0.7714 -0.4241 -0.3924
  165DOPC  H12R20003   6.058   1.346   5.155 -1.5200  0.6710  0.8673
  165DOPC  H12S20004   6.230   1.293   5.154 -1.9413 -1.8095  0.3253
  165DOPC  C21320005   6.216   1.507   5.132  0.1626 -0.0653  0.2649
  165DOPC  H13R20006   6.309   1.535   5.186  1.0402 -0.0354 -1.1896
  165DOPC  H13S20007   6.146   1.588   5.161 -0.4884 -0.5971  0.1981
  165DOPC  C21420008   6.248   1.495   4.983  0.2464 -0.1112 -0.9841
  165DOPC  H14R20009   6.309   1.402   4.982 -0.7274 -0.7597 -1.4396
  165DOPC  H14S20010   6.296   1.592   4.958 -0.4296 -0.0840 -2.2855
  165DOPC  C21520011   6.118   1.479   4.904  0.1996 -0.8352  0.3952
  165DOPC  H15R20012   6.057   1.570   4.923 -1.2381 -1.1947 -2.0347
  165DOPC  H15S20013   6.059   1.388   4.926 -1.0636 -0.3596 -0.8766
  165DOPC  C21620014   6.151   1.485   4.756  0.1620 -0.0175  0.1596
  165DOPC  H16R20015   6.208   1.393   4.730  1.8945  0.9089  0.4760
  165DOPC  H16S20016   6.224   1.568   4.744  0.2751 -0.2567 -0.8968
  165DOPC  C21720017   6.030   1.500   4.665  0.6421  1.1885 -0.4506
  165DOPC  H17R20018   5.979   1.598   4.682 -1.1529  0.4038 -1.0887
  165DOPC  H17S20019   5.961   1.424   4.706 -0.9490  2.5375 -0.5158
  165DOPC  C21820020   6.040   1.488   4.510  0.4176  0.3119  0.3334
  165DOPC  H18R20021   6.059   1.381   4.486 -1.5351 -0.6189  2.5653
  165DOPC  H18S20022   6.119   1.558   4.478 -0.6438  2.4613  2.1233
  165DOPC  H18T20023   5.945   1.506   4.454  0.1833  0.7683  0.8756
  165DOPC   C3320024   6.176   1.432   6.463  0.3859  0.5020 -1.3503
  165DOPC   H3X20025   6.154   1.325   6.484  2.5676  0.5612  2.2494
  165DOPC   H3Y20026   6.271   1.448   6.409 -1.2563  1.8216 -4.0672
  165DOPC   C3420027   6.072   1.491   6.368  0.3216  0.0642 -0.3805
  165DOPC   H4X20028   6.092   1.597   6.345 -0.3692  0.7146  1.7439
  165DOPC   H4Y20029   5.978   1.481   6.426  0.6396 -1.2377 -0.0559
  165DOPC   C3520030   6.049   1.415   6.233  0.5448  0.9438 -0.2128
  165DOPC   H5X20031   5.956   1.459   6.191  0.8848  0.5981 -1.3616
  165DOPC   H5Y20032   6.035   1.307   6.254  0.5389  0.4457 -2.4876
  165DOPC   C3620033   6.162   1.418   6.128 -0.4422  0.3916 -0.1011
  165DOPC   H6X20034   6.247   1.353   6.156 -1.8004 -1.7216 -0.6295
  165DOPC   H6Y20035   6.119   1.372   6.036 -0.8262  1.0742 -0.2725
  165DOPC   C3720036   6.210   1.556   6.092  0.8635 -0.4184 -0.9609
  165DOPC   H7X20037   6.265   1.606   6.175  0.9157 -0.5454 -0.9203
  165DOPC   H7Y20038   6.119   1.618   6.078 -0.4795 -1.5302  2.0711
  165DOPC   C3820039   6.314   1.557   5.983 -0.0207  0.1966  0.7240
  165DOPC   H8X20040   6.379   1.472   6.012 -0.2645 -1.1623 -2.3588
  165DOPC   H8Y20041   6.380   1.645   5.994 -1.2864  1.3030 -0.1665
  165DOPC   C3920042   6.267   1.527   5.842  0.7186  0.0611 -0.0413
  165DOPC   H9X20043   6.202   1.440   5.824 -1.7389  1.9325 -0.8345
  165DOPC  C31020044   6.307   1.600   5.727  0.3514  0.4305 -0.4016
  165DOPC  H10X20045   6.258   1.570   5.633  2.0594  0.8510 -1.4577
  165DOPC  C31120046   6.398   1.718   5.721  0.5932  0.4120 -0.8848
  165DOPC  H11X20047   6.446   1.725   5.621 -1.7259 -2.6383 -2.3811
  165DOPC  H11Y20048   6.476   1.715   5.800 -2.0116 -2.1067  1.8574
  165DOPC  C31220049   6.310   1.846   5.753  0.1075  0.2437  0.0340
  165DOPC  H12X20050   6.369   1.936   5.724 -0.2083  0.9986  1.6265
  165DOPC  H12Y20051   6.284   1.853   5.861 -0.8832 -0.1879 -0.1680
  165DOPC  C31320052   6.177   1.860   5.666 -0.2777 -0.1729  0.0940
  165DOPC  H13X20053   6.119   1.769   5.691 -3.8090  2.0352  0.7363
  165DOPC  H13Y20054   6.123   1.951   5.700  1.4991  0.5120  1.2796
  165DOPC  C31420055   6.206   1.867   5.509  0.0941  0.2046  0.1201
  165DOPC  H14X20056   6.263   1.957   5.479  1.7308 -1.3022 -1.5150
  165DOPC  H14Y20057   6.267   1.775   5.498 -3.0605 -2.5418  3.0640
  165DOPC  C31520058   6.081   1.851   5.415  0.8423  0.6725  0.0510
  165DOPC  H15X20059   5.997   1.899   5.469  1.0370  1.3249 -0.2108
  165DOPC  H15Y20060   6.057   1.743   5.424 -2.0711  1.3731  2.1822
  165DOPC  C31620061   6.115   1.892   5.272 -0.0525  0.1512  0.4863
  165DOPC  H16X20062   6.140   2.000   5.279 -2.5674  0.7168  2.3806
  165DOPC  H16Y20063   6.204   1.832   5.246 -2.0864 -3.4769  1.1747
  165DOPC  C31720064   6.005   1.880   5.168 -1.0385  0.8955  1.4517
  165DOPC  H17X20065   5.970   1.776   5.179 -1.0338  0.2844 -2.6180
  165DOPC  H17Y20066   5.913   1.934   5.198 -1.3295  0.6753  0.9711
  165DOPC  C31820067   6.050   1.893   5.015  0.3460 -0.0739  0.1007
  165DOPC  H18X20068   6.094   1.994   4.996  0.3595 -0.4006 -1.7320
  165DOPC  H18Y20069   6.133   1.825   4.989 -1.3330 -1.6008 -1.5343
  165DOPC  H18Z20070   5.960   1.868   4.954  2.1578  0.6404 -3.0415
  166DOPC     N20071   1.083   4.166   7.180  0.0839 -0.5085 -0.0236
  166DOPC   C1220072   1.169   4.040   7.147 -0.3076  0.0407 -0.4113
  166DOPC  H12A20073   1.228   4.068   7.061 -0.7179 -1.3453 -1.1698
  166DOPC  H12B20074   1.111   3.952   7.124  0.7351 -0.7791 -0.0004
  166DOPC   C1320075   1.168   4.280   7.221 -0.3168 -0.2924  0.1749
  166DOPC  H13A20076   1.117   4.362   7.270  0.8570  0.7013 -0.2127
  166DOPC  H13B20077   1.250   4.245   7.281 -1.4223  1.2085  2.7294
  166DOPC  H13C20078   1.218   4.324   7.136  2.2653 -1.6051  0.9270
  166DOPC   C1420079   0.992   4.137   7.294 -0.2514  0.6647 -0.4015
  166DOPC  H14A20080   1.057   4.125   7.379 -1.4682  1.1905  0.6193
  166DOPC  H14B20081   0.928   4.221   7.315  1.4887  1.8031  0.5563
  166DOPC  H14C20082   0.937   4.045   7.277 -0.7639  0.3297  2.5590
  166DOPC   C1520083   0.992   4.203   7.064  0.0442 -0.1143  0.8931
  166DOPC  H15A20084   0.935   4.292   7.085 -1.4101 -0.1315 -2.4768
  166DOPC  H15B20085   0.924   4.121   7.045 -0.9484  0.6780  0.9782
  166DOPC  H15C20086   1.049   4.214   6.974 -0.4807 -1.4328  0.3695
  166DOPC   C1120087   1.272   4.000   7.264 -0.2232  0.8713  0.0926
  166DOPC  H11A20088   1.218   4.004   7.360 -0.9946  0.1524 -0.3021
  166DOPC  H11B20089   1.300   3.896   7.238 -2.6577 -0.3130  1.8874
  166DOPC     P20090   1.487   4.108   7.174  0.3820  0.0324  0.3296
  166DOPC   O1320091   1.609   4.157   7.239  0.3969 -0.1657  0.0363
  166DOPC   O1420092   1.421   4.190   7.069 -0.0904 -0.0362 -0.1530
  166DOPC   O1220093   1.377   4.094   7.278  0.2932  0.2943  0.5400
  166DOPC   O1120094   1.503   3.952   7.116 -0.0290 -0.8051 -0.0431
  166DOPC    C120095   1.635   3.909   7.083 -0.0810 -0.4753  0.0346
  166DOPC    HA20096   1.638   3.798   7.086  2.3825 -0.4509  0.5299
  166DOPC    HB20097   1.712   3.935   7.158  0.3828  0.9065 -0.8900
  166DOPC    C220098   1.676   3.955   6.948 -0.2355 -0.5507  0.2191
  166DOPC    HS20099   1.679   4.066   6.952 -0.7870 -0.4448 -1.3158
  166DOPC   O2120100   1.588   3.894   6.857  0.3179 -0.4965  0.0274
  166DOPC   C2120101   1.546   3.964   6.751 -0.5009  0.3345 -0.0677
  166DOPC   O2220102   1.571   4.079   6.721 -0.1538 -0.2905  0.3814
  166DOPC   C2220103   1.473   3.866   6.652 -0.4335 -0.4219  0.8264
  166DOPC   H2R20104   1.367   3.891   6.670  0.4011  2.9762  1.8209
  166DOPC   H2S20105   1.486   3.762   6.687  1.3846  0.2113  2.2399
  166DOPC    C320106   1.813   3.904   6.904 -0.2269 -0.5540  0.6198
  166DOPC    HX20107   1.822   3.794   6.904 -2.2965 -0.8567  3.6198
  166DOPC    HY20108   1.882   3.955   6.976  1.4185 -1.7468 -0.0455
  166DOPC   O3120109   1.851   3.949   6.765  0.0620 -0.3284 -0.2195
  166DOPC   C3120110   1.875   4.072   6.733  0.0547  0.7990 -0.0909
  166DOPC   O3220111   1.883   4.167   6.807  0.4536  0.2307 -0.3567
  166DOPC   C3220112   1.871   4.091   6.582 -0.2013 -0.1856  0.2560
  166DOPC   H2X20113   1.766   4.122   6.565  0.2683  0.0183 -2.7881
  166DOPC   H2Y20114   1.945   4.173   6.564  0.8002 -0.8566  1.1657
  166DOPC   C2320115   1.515   3.884   6.504  0.3534  1.0642 -0.3702
  166DOPC   H3R20116   1.598   3.958   6.500  0.6964  0.6394 -1.6280
  166DOPC   H3S20117   1.435   3.928   6.441  1.0810  0.5417 -1.6759
  166DOPC   C2420118   1.570   3.757   6.441  0.1600  0.4646  0.0310
  166DOPC   H4R20119   1.502   3.670   6.441 -1.7764  1.8630 -2.3281
  166DOPC   H4S20120   1.657   3.725   6.503  0.3523 -1.3241 -1.1059
  166DOPC   C2520121   1.628   3.789   6.302  0.1157  0.5485 -0.0973
  166DOPC   H5R20122   1.702   3.869   6.320  0.8799 -0.2828  0.5547
  166DOPC   H5S20123   1.540   3.823   6.243 -1.9273  1.0193  2.9905
  166DOPC   C2620124   1.699   3.661   6.242 -0.1465  0.6587 -0.4758
  166DOPC   H6R20125   1.626   3.579   6.223 -1.7449  1.7901  0.5374
  166DOPC   H6S20126   1.777   3.628   6.314  0.3028  0.8790 -0.8568
  166DOPC   C2720127   1.765   3.703   6.113 -0.1400  0.3244  0.1071
  166DOPC   H7R20128   1.824   3.790   6.150 -0.5844 -0.4651  2.8889
  166DOPC   H7S20129   1.694   3.737   6.034 -2.4543 -0.9828  1.5364
  166DOPC   C2820130   1.863   3.605   6.049  0.6351  0.1408 -0.1167
  166DOPC   H8R20131   1.800   3.513   6.042 -0.9435  1.0554  1.2569
  166DOPC   H8S20132   1.939   3.573   6.123 -0.2330 -1.6602  0.0764
  166DOPC   C2920133   1.916   3.655   5.919 -0.2687 -0.4839 -0.7685
  166DOPC   H9R20134   1.927   3.764   5.915 -0.3431 -0.5026 -1.7340
  166DOPC  C21020135   1.942   3.587   5.812 -0.5049  0.5575  0.0516
  166DOPC  H10R20136   1.986   3.636   5.724 -0.3553  1.8557  0.8304
  166DOPC  C21120137   1.927   3.434   5.796 -0.3358 -0.3793  0.5196
  166DOPC  H11R20138   1.820   3.408   5.786 -0.4357 -0.6586  2.0877
  166DOPC  H11S20139   1.973   3.372   5.876  0.7132 -1.5740 -0.9769
  166DOPC  C21220140   1.991   3.381   5.663 -0.1381  0.1717 -0.4886
  166DOPC  H12R20141   1.991   3.270   5.675 -1.6421  0.1415 -0.5380
  166DOPC  H12S20142   2.096   3.417   5.656  0.4389 -1.2257  0.5427
  166DOPC  C21320143   1.903   3.411   5.540  0.2950  0.2131  0.4304
  166DOPC  H13R20144   1.883   3.520   5.528  1.5165  0.5015  0.7831
  166DOPC  H13S20145   1.807   3.362   5.564  1.1814 -2.1007 -0.4431
  166DOPC  C21420146   1.959   3.352   5.409  0.2691  0.5903  0.1052
  166DOPC  H14R20147   1.984   3.244   5.420 -0.9917  0.4403  1.7977
  166DOPC  H14S20148   2.051   3.412   5.391  0.3116  0.7547  0.8505
  166DOPC  C21520149   1.846   3.372   5.305 -0.0794  0.3988  0.1143
  166DOPC  H15R20150   1.836   3.479   5.277  2.2972  1.2547  2.2348
  166DOPC  H15S20151   1.757   3.335   5.360  0.0411 -0.2613 -0.1227
  166DOPC  C21620152   1.861   3.279   5.179 -0.9168 -0.2450  0.0384
  166DOPC  H16R20153   1.862   3.173   5.211 -0.8307 -1.0400 -2.4018
  166DOPC  H16S20154   1.966   3.291   5.143 -1.1164 -0.0842 -0.4930
  166DOPC  C21720155   1.753   3.307   5.073 -0.2304  0.5400  0.3548
  166DOPC  H17R20156   1.783   3.251   4.982 -1.0053 -0.0410  0.4525
  166DOPC  H17S20157   1.753   3.417   5.060 -0.3959  0.4803 -0.1744
  166DOPC  C21820158   1.611   3.257   5.118 -0.6132 -0.2411  0.7504
  166DOPC  H18R20159   1.590   3.321   5.206  2.3674  0.2060  1.2174
  166DOPC  H18S20160   1.613   3.153   5.158  1.6087 -2.1781 -3.7300
  166DOPC  H18T20161   1.536   3.275   5.037 -0.6686  2.4096  1.3068
  166DOPC   C3320162   1.928   3.973   6.499 -1.4190 -0.2053  0.2160
  166DOPC   H3X20163   1.893   3.988   6.395  2.1770  1.0700 -0.9683
  166DOPC   H3Y20164   1.885   3.876   6.531  2.2546 -1.4396  2.0723
  166DOPC   C3420165   2.086   3.959   6.503 -0.2748 -0.1036 -0.6601
  166DOPC   H4X20166   2.117   3.912   6.599 -0.5964 -0.6432 -0.8146
  166DOPC   H4Y20167   2.125   4.063   6.508  2.5699 -1.0347 -1.7685
  166DOPC   C3520168   2.135   3.884   6.370 -0.6579  0.1577 -0.1792
  166DOPC   H5X20169   2.083   3.786   6.376 -0.6966  0.2053  0.3004
  166DOPC   H5Y20170   2.244   3.864   6.363 -0.7753 -0.1051 -1.5468
  166DOPC   C3620171   2.088   3.931   6.230  0.6571  0.5282  0.8518
  166DOPC   H6X20172   2.124   3.865   6.148  0.0675  1.7430 -0.4219
  166DOPC   H6Y20173   1.980   3.955   6.226  0.3830 -0.6476  1.0348
  166DOPC   C3720174   2.167   4.062   6.188  0.2567 -0.2853 -0.0908
  166DOPC   H7X20175   2.186   4.119   6.281 -1.3240 -1.0356  0.7194
  166DOPC   H7Y20176   2.263   4.039   6.138  0.9065  1.0420  0.4888
  166DOPC   C3820177   2.098   4.145   6.081 -0.0395 -0.7074  0.2554
  166DOPC   H8X20178   2.163   4.233   6.060 -2.5854  1.1751 -0.0954
  166DOPC   H8Y20179   2.009   4.191   6.129 -0.1459 -0.2304 -0.3880
  166DOPC   C3920180   2.044   4.076   5.956  0.1326  0.6611 -0.0397
  166DOPC   H9X20181   1.972   3.997   5.982  1.5962 -0.6095  0.2662
  166DOPC  C31020182   2.092   4.085   5.831  0.2374 -0.2088 -0.5913
  166DOPC  H10X20183   2.037   4.035   5.750  2.3168 -3.7516 -0.0120
  166DOPC  C31120184   2.210   4.160   5.775  0.3866  0.3572 -0.0318
  166DOPC  H11X20185   2.239   4.242   5.844  1.1836  0.6159 -0.6635
  166DOPC  H11Y20186   2.171   4.211   5.684 -2.0894 -2.0663 -0.4762
  166DOPC  C31220187   2.339   4.065   5.763  0.7586  0.2636  0.1393
  166DOPC  H12X20188   2.371   4.003   5.850  0.3347 -1.8840 -1.1731
  166DOPC  H12Y20189   2.420   4.138   5.739 -0.3537  0.8546 -2.0063
  166DOPC  C31320190   2.318   3.968   5.645  0.7145 -0.2075 -0.3975
  166DOPC  H13X20191   2.255   3.885   5.684  0.1843 -0.6668 -2.1112
  166DOPC  H13Y20192   2.263   4.025   5.567  0.4754  0.7747  0.4758
  166DOPC  C31420193   2.445   3.909   5.603 -0.9771 -0.5915 -0.2392
  166DOPC  H14X20194   2.508   3.994   5.569  0.5204 -1.2461  0.7818
  166DOPC  H14Y20195   2.490   3.865   5.694 -0.6598 -0.1465 -0.1795
  166DOPC  C31520196   2.435   3.801   5.495 -0.4835 -0.0107  0.3043
  166DOPC  H15X20197   2.415   3.846   5.395  0.8144 -0.2697 -0.0969
  166DOPC  H15Y20198   2.351   3.736   5.526 -1.2934  1.6223  1.7428
  166DOPC  C31620199   2.565   3.717   5.495 -0.0076  0.1649  0.1021
  166DOPC  H16X20200   2.591   3.674   5.593 -0.3587 -1.9913 -0.6949
  166DOPC  H16Y20201   2.549   3.630   5.428 -0.8354  0.2002  0.2444
  166DOPC  C31720202   2.685   3.802   5.436 -0.1732  0.0186 -0.0624
  166DOPC  H17X20203   2.686   3.902   5.484  1.1144  0.6290 -1.2732
  166DOPC  H17Y20204   2.778   3.748   5.466  1.8281  2.1593 -1.9850
  166DOPC  C31820205   2.669   3.818   5.283 -0.3618 -0.2733  0.0499
  166DOPC  H18X20206   2.617   3.913   5.258  0.0049  0.3379  1.5303
  166DOPC  H18Y20207   2.770   3.825   5.238 -0.6988 -0.1150 -0.7002
  166DOPC  H18Z20208   2.621   3.732   5.233 -0.3697 -0.1598 -0.1430
  167DOPC     N20209   1.452   1.074   7.318  0.0707  0.1035 -0.8475
  167DOPC   C1220210   1.398   0.988   7.213  0.0311 -0.0765  0.1251
  167DOPC  H12A20211   1.304   0.946   7.246 -0.8519  0.4871 -1.5465
  167DOPC  H12B20212   1.458   0.898   7.203  0.9471  0.6580 -1.2580
  167DOPC   C1320213   1.355   1.188   7.350  0.5191  0.7329 -0.0274
  167DOPC  H13A20214   1.256   1.150   7.373  0.0846  1.1625 -1.1094
  167DOPC  H13B20215   1.388   1.241   7.438  1.2695 -0.0204  0.1615
  167DOPC  H13C20216   1.331   1.253   7.267 -1.9637 -1.9194 -1.5950
  167DOPC   C1420217   1.586   1.132   7.270  0.0897 -0.4797  0.7690
  167DOPC  H14A20218   1.581   1.187   7.178  0.6603 -2.5630 -0.5870
  167DOPC  H14B20219   1.627   1.202   7.341  1.9747  1.4784 -2.0086
  167DOPC  H14C20220   1.651   1.046   7.256  1.6039  0.6341  0.7270
  167DOPC   C1520221   1.481   1.000   7.442 -0.3472  0.1413  0.1174
  167DOPC  H15A20222   1.394   0.946   7.475 -2.0443  0.2140 -3.7466
  167DOPC  H15B20223   1.514   1.079   7.508 -1.1892  1.3641 -0.8739
  167DOPC  H15C20224   1.564   0.934   7.423 -0.4796 -0.5328  1.6884
  167DOPC   C1120225   1.379   1.044   7.073 -0.1314 -0.7593 -0.5367
  167DOPC  H11A20226   1.482   1.079   7.051  1.0932 -0.3035  4.6281
  167DOPC  H11B20227   1.352   0.953   7.014  1.2689 -0.9169 -0.9724
  167DOPC     P20228   1.130   1.114   7.044  0.2167 -0.3049 -0.2440
  167DOPC   O1320229   1.050   1.237   7.056 -0.3935  0.0824 -0.5260
  167DOPC   O1420230   1.074   0.991   7.110 -0.0878 -0.1308  0.4376
  167DOPC   O1220231   1.279   1.148   7.077  0.3708  0.0041 -0.1411
  167DOPC   O1120232   1.145   1.079   6.888 -0.4329 -0.2184  0.6651
  167DOPC    C120233   1.102   0.951   6.828 -0.6343 -0.8986 -0.0320
  167DOPC    HA20234   1.051   0.889   6.906 -0.8063  1.3236  1.7192
  167DOPC    HB20235   1.197   0.901   6.798  0.6550 -0.0534  2.3433
  167DOPC    C220236   0.998   0.955   6.707 -0.7973  0.4279  0.1931
  167DOPC    HS20237   0.980   0.854   6.663 -1.0367 -0.2887  1.8680
  167DOPC   O2120238   1.052   1.044   6.607  0.1442 -0.4778  0.4187
  167DOPC   C2120239   1.165   1.009   6.553 -0.1914  0.2976 -0.3636
  167DOPC   O2220240   1.226   0.905   6.566  0.0421  0.6025 -0.3077
  167DOPC   C2220241   1.199   1.121   6.451  0.2292 -0.0282 -0.0176
  167DOPC   H2R20242   1.176   1.211   6.512  1.4843 -0.0885  0.5816
  167DOPC   H2S20243   1.125   1.099   6.371 -0.5302 -1.9800  1.1569
  167DOPC    C320244   0.857   0.994   6.750 -0.4545  0.7480  0.3475
  167DOPC    HX20245   0.872   1.104   6.760 -0.8554  0.7043  1.6029
  167DOPC    HY20246   0.816   0.951   6.844 -1.3322  0.8408  0.0158
  167DOPC   O3120247   0.756   0.982   6.644  0.1102  0.0865  0.2458
  167DOPC   C3120248   0.663   0.887   6.652 -0.4784 -0.3765 -0.1899
  167DOPC   O3220249   0.661   0.800   6.737  0.5418 -0.2427 -0.5509
  167DOPC   C3220250   0.567   0.892   6.534 -0.4701  0.8067 -1.0787
  167DOPC   H2X20251   0.475   0.944   6.569  0.0198  0.1923  1.2992
  167DOPC   H2Y20252   0.615   0.964   6.463  2.0058 -0.4190 -0.7348
  167DOPC   C2320253   1.346   1.135   6.396 -0.1405 -0.1257 -0.0479
  167DOPC   H3R20254   1.407   1.042   6.406  0.0396  0.2912  4.2001
  167DOPC   H3S20255   1.394   1.216   6.455  0.1971  0.1643 -0.7030
  167DOPC   C2420256   1.348   1.166   6.252 -0.4365  0.4326 -0.5538
  167DOPC   H4R20257   1.312   1.079   6.193 -2.0250  0.6378  0.0697
  167DOPC   H4S20258   1.452   1.191   6.222 -0.3112 -0.3249 -0.7776
  167DOPC   C2520259   1.260   1.294   6.220 -0.6594  0.2481  0.0711
  167DOPC   H5R20260   1.301   1.389   6.260  2.1772 -0.9480  0.2630
  167DOPC   H5S20261   1.159   1.276   6.263 -0.8888 -2.0213 -1.2431
  167DOPC   C2620262   1.233   1.295   6.071 -0.6460  0.1345 -0.1164
  167DOPC   H6R20263   1.224   1.192   6.031  0.4883  0.3059 -0.8387
  167DOPC   H6S20264   1.332   1.325   6.031  0.1883 -2.8387 -0.5645
  167DOPC   C2720265   1.118   1.386   6.036  0.4009 -0.2736  0.7513
  167DOPC   H7R20266   1.079   1.438   6.126  1.3289  0.7129  0.5957
  167DOPC   H7S20267   1.028   1.336   5.994  0.3917 -0.0248  0.4700
  167DOPC   C2820268   1.159   1.502   5.941 -0.4707 -0.5846  0.5039
  167DOPC   H8R20269   1.242   1.542   6.003  0.0266 -0.7959 -0.0164
  167DOPC   H8S20270   1.079   1.579   5.944 -0.2562 -0.1744 -2.1359
  167DOPC   C2920271   1.213   1.467   5.808  0.2610  0.2126 -0.0341
  167DOPC   H9R20272   1.257   1.367   5.797 -1.9515 -0.7421 -0.8228
  167DOPC  C21020273   1.198   1.547   5.699  0.4518  0.7365 -0.0004
  167DOPC  H10R20274   1.230   1.516   5.598 -2.1427  1.4168 -1.1153
  167DOPC  C21120275   1.129   1.680   5.680  0.0379  1.1693 -0.3787
  167DOPC  H11R20276   1.133   1.740   5.773 -1.4195 -0.2876  0.6677
  167DOPC  H11S20277   1.021   1.667   5.661  0.2124  0.2839 -0.8148
  167DOPC  C21220278   1.211   1.767   5.582 -0.6249 -0.2153  0.3775
  167DOPC  H12R20279   1.313   1.782   5.624  0.4618 -0.9857 -1.8615
  167DOPC  H12S20280   1.219   1.706   5.490  0.7785 -0.1547  0.4399
  167DOPC  C21320281   1.141   1.899   5.562  0.2810 -0.3313  0.3716
  167DOPC  H13R20282   1.204   1.974   5.509 -0.5512  0.0486 -0.1010
  167DOPC  H13S20283   1.123   1.951   5.658 -1.3719  0.7940 -0.4954
  167DOPC  C21420284   1.009   1.902   5.478  0.4634  0.0756  1.2571
  167DOPC  H14R20285   0.995   2.007   5.442  2.4103  0.3286  1.1635
  167DOPC  H14S20286   0.924   1.880   5.547 -0.4369 -0.4705  0.0154
  167DOPC  C21520287   0.998   1.800   5.363 -0.6230  0.1680  0.4032
  167DOPC  H15R20288   0.938   1.715   5.401  1.2537 -0.9550  1.0003
  167DOPC  H15S20289   1.103   1.776   5.336 -1.5516 -0.8729 -2.7717
  167DOPC  C21620290   0.923   1.847   5.234 -0.4644  0.1898 -0.3225
  167DOPC  H16R20291   0.989   1.926   5.192  1.5930 -1.0209  0.4651
  167DOPC  H16S20292   0.820   1.885   5.252 -1.3406 -1.1396 -2.1684
  167DOPC  C21720293   0.921   1.733   5.132 -0.4289 -0.2924 -0.4302
  167DOPC  H17R20294   0.890   1.647   5.195 -1.9141 -0.8984 -1.9214
  167DOPC  H17S20295   1.022   1.716   5.090  0.6156  1.7905  1.0300
  167DOPC  C21820296   0.826   1.768   5.023 -0.0189  0.2598 -0.2616
  167DOPC  H18R20297   0.724   1.784   5.064  0.5946  0.8178  1.1146
  167DOPC  H18S20298   0.817   1.693   4.941 -2.8649 -0.6065  0.7171
  167DOPC  H18T20299   0.853   1.864   4.974  0.3148  0.9479  1.2041
  167DOPC   C3320300   0.545   0.752   6.470  0.6603 -0.0281 -0.1998
  167DOPC   H3X20301   0.475   0.690   6.530 -1.0189 -0.4286 -2.4491
  167DOPC   H3Y20302   0.641   0.698   6.458  0.0471 -1.1273 -0.2001
  167DOPC   C3420303   0.500   0.761   6.318  0.1742 -0.1036  0.0789
  167DOPC   H4X20304   0.554   0.851   6.282  1.5281 -0.0717  1.9700
  167DOPC   H4Y20305   0.390   0.775   6.311  0.3155  0.4274 -1.3696
  167DOPC   C3520306   0.553   0.632   6.245  0.0607  0.1266 -0.3742
  167DOPC   H5X20307   0.475   0.553   6.251  2.1099 -2.1187 -1.4471
  167DOPC   H5Y20308   0.649   0.595   6.289 -0.1865 -0.2210 -0.1202
  167DOPC   C3620309   0.588   0.652   6.092 -0.0289  0.2317  0.4187
  167DOPC   H6X20310   0.499   0.690   6.038  1.7294  2.1665 -1.2787
  167DOPC   H6Y20311   0.666   0.730   6.088  0.3891 -0.2188 -0.6617
  167DOPC   C3720312   0.628   0.521   6.016  0.3902  0.1050  0.6584
  167DOPC   H7X20313   0.713   0.468   6.064  0.1789 -2.0807 -1.1905
  167DOPC   H7Y20314   0.544   0.448   6.015 -2.0189  2.7225  0.3686
  167DOPC   C3820315   0.669   0.554   5.867 -0.3632  0.5426  0.0942
  167DOPC   H8X20316   0.582   0.608   5.824 -0.5149  0.6636  0.5467
  167DOPC   H8Y20317   0.681   0.456   5.815 -0.7138  0.0949  0.8327
  167DOPC   C3920318   0.805   0.613   5.848 -0.4531 -0.5562  0.3354
  167DOPC   H9X20319   0.891   0.556   5.887 -1.0588 -1.2295  0.7193
  167DOPC  C31020320   0.830   0.730   5.782  0.4455  0.5979  0.3338
  167DOPC  H10X20321   0.932   0.767   5.763 -0.0363  0.5108 -3.0375
  167DOPC  C31120322   0.720   0.811   5.716  0.5483 -0.4981  0.3566
  167DOPC  H11X20323   0.695   0.907   5.764  0.2448  0.7452 -2.1086
  167DOPC  H11Y20324   0.622   0.764   5.693  0.0316  0.7438 -0.0497
  167DOPC  C31220325   0.769   0.839   5.571  0.1599  0.1401  0.3065
  167DOPC  H12X20326   0.871   0.883   5.573  0.0998  0.3887 -1.0637
  167DOPC  H12Y20327   0.700   0.915   5.529 -0.3565 -0.5721 -0.1711
  167DOPC  C31320328   0.762   0.721   5.470 -0.1021 -0.0430 -1.0062
  167DOPC  H13X20329   0.838   0.646   5.502 -0.6471 -0.2511 -0.1467
  167DOPC  H13Y20330   0.657   0.684   5.478  0.1314 -0.4041  1.3857
  167DOPC  C31420331   0.789   0.757   5.327  0.6019 -0.0994  0.0971
  167DOPC  H14X20332   0.755   0.677   5.258 -0.5232  0.5086 -0.0898
  167DOPC  H14Y20333   0.720   0.837   5.291 -0.9399 -1.1571  0.5983
  167DOPC  C31520334   0.934   0.791   5.293 -0.1340  0.1709 -0.2246
  167DOPC  H15X20335   1.004   0.705   5.293 -0.5122 -0.1652 -1.6830
  167DOPC  H15Y20336   0.968   0.860   5.373 -1.5253  0.7808 -0.1250
  167DOPC  C31620337   0.948   0.868   5.155 -0.6825  0.0017 -0.1337
  167DOPC  H16X20338   0.860   0.933   5.137 -0.7474  0.2271  0.9382
  167DOPC  H16Y20339   1.035   0.935   5.165 -1.1440  0.3950  1.5010
  167DOPC  C31720340   0.975   0.780   5.030 -0.1106  0.4500 -0.1755
  167DOPC  H17X20341   0.987   0.847   4.942  0.2518 -0.8463 -1.1592
  167DOPC  H17Y20342   1.080   0.748   5.047 -0.5414 -0.4346  0.9375
  167DOPC  C31820343   0.887   0.656   5.013  0.4053 -0.0231 -0.2093
  167DOPC  H18X20344   0.919   0.597   4.925  0.0062 -1.8940  0.8397
  167DOPC  H18Y20345   0.908   0.586   5.097  1.3994  1.6683  0.9862
  167DOPC  H18Z20346   0.777   0.673   5.020  0.0840 -2.1212  0.8165
  168DOPC     N20347   3.656   1.010   6.820  0.2930 -0.0507  0.1610
  168DOPC   C1220348   3.692   0.864   6.803  0.1491  0.1762  0.4543
  168DOPC  H12A20349   3.746   0.837   6.892  1.1324  2.3141  0.5613
  168DOPC  H12B20350   3.763   0.840   6.725  0.3040 -1.9903  1.1902
  168DOPC   C1320351   3.561   1.049   6.723  0.2937 -0.0439 -0.0880
  168DOPC  H13A20352   3.538   1.154   6.729  1.1047  0.2312 -1.4091
  168DOPC  H13B20353   3.605   1.037   6.626  2.7998 -2.6370  1.2100
  168DOPC  H13C20354   3.466   0.998   6.731  0.2856  0.0558  0.5319
  168DOPC   C1420355   3.780   1.098   6.809  0.4307  0.3082 -0.8246
  168DOPC  H14A20356   3.830   1.086   6.714  0.8140  0.3260 -0.6282
  168DOPC  H14B20357   3.757   1.203   6.816 -0.8025  0.0158 -0.2245
  168DOPC  H14C20358   3.850   1.074   6.887  0.0740  0.5487 -0.4238
  168DOPC   C1520359   3.598   1.033   6.961 -0.1160 -0.1003  0.0754
  168DOPC  H15A20360   3.564   1.135   6.969  0.2836  0.2035 -1.7454
  168DOPC  H15B20361   3.671   1.013   7.038  0.6391  0.2197 -0.5396
  168DOPC  H15C20362   3.513   0.967   6.971  1.8433 -2.9802 -1.1701
  168DOPC   C1120363   3.578   0.758   6.783  0.2050  1.5644  0.1477
  168DOPC  H11A20364   3.530   0.766   6.683 -0.9955  1.7880  0.7175
  168DOPC  H11B20365   3.633   0.662   6.776 -0.9404  0.6595  2.5104
  168DOPC     P20366   3.472   0.666   7.007 -0.0472 -0.4503 -0.2691
  168DOPC   O1320367   3.436   0.747   7.130 -0.1687 -0.1162 -0.4212
  168DOPC   O1420368   3.583   0.569   7.013  0.4028 -0.4031  0.2960
  168DOPC   O1220369   3.482   0.763   6.884  0.0931 -0.6260 -0.5840
  168DOPC   O1120370   3.349   0.584   6.970 -0.4467 -0.0313 -0.2485
  168DOPC    C120371   3.334   0.444   6.985 -0.0218  0.1002  0.5736
  168DOPC    HA20372   3.303   0.418   7.088  0.7261 -1.2449  0.4726
  168DOPC    HB20373   3.428   0.389   6.968 -0.1037 -1.0947  3.4531
  168DOPC    C220374   3.225   0.388   6.884  0.5298  0.6956 -0.1764
  168DOPC    HS20375   3.239   0.278   6.887 -0.4399  0.5534 -0.5343
  168DOPC   O2120376   3.235   0.449   6.758 -0.1036  0.0460  1.0588
  168DOPC   C2120377   3.343   0.409   6.684  0.5848 -0.2857  0.5102
  168DOPC   O2220378   3.422   0.322   6.713  0.4798  0.7818  0.5174
  168DOPC   C2220379   3.353   0.496   6.561  0.3386  0.2789  0.2647
  168DOPC   H2R20380   3.395   0.594   6.592  0.6511 -0.3214  1.8375
  168DOPC   H2S20381   3.253   0.510   6.515  0.6544 -0.7209 -0.7782
  168DOPC    C320382   3.080   0.419   6.948 -0.5024  0.9431 -0.2791
  168DOPC    HX20383   3.088   0.524   6.983 -2.0640  0.8932  0.3068
  168DOPC    HY20384   3.059   0.361   7.040 -0.9086  1.6791  0.1069
  168DOPC   O3120385   2.977   0.383   6.851  0.5927 -0.2503  0.0142
  168DOPC   C3120386   2.923   0.486   6.796  0.4226 -0.0590  0.1646
  168DOPC   O3220387   2.954   0.603   6.813  0.5937 -0.2643  0.0912
  168DOPC   C3220388   2.819   0.442   6.691 -0.6924 -0.5112  0.4111
  168DOPC   H2X20389   2.716   0.445   6.733 -0.5687 -0.3541  0.7068
  168DOPC   H2Y20390   2.806   0.525   6.619 -0.4884 -0.8572 -0.0291
  168DOPC   C2320391   3.458   0.441   6.460 -0.0248  0.4519 -0.3196
  168DOPC   H3R20392   3.558   0.421   6.504 -0.6627  1.1504  1.5351
  168DOPC   H3S20393   3.470   0.520   6.383  1.7890  0.7106  0.1747
  168DOPC   C2420394   3.412   0.313   6.385 -0.1036  0.2651 -0.1817
  168DOPC   H4R20395   3.324   0.351   6.329 -0.1088  1.5573  0.6814
  168DOPC   H4S20396   3.388   0.230   6.455  0.1974  0.5211  0.2310
  168DOPC   C2520397   3.515   0.261   6.283 -0.8653 -1.3281  0.4761
  168DOPC   H5R20398   3.539   0.343   6.213 -1.9383 -2.9252 -1.8941
  168DOPC   H5S20399   3.469   0.174   6.231 -2.8689 -0.8774  1.4180
  168DOPC   C2620400   3.641   0.203   6.347 -1.0203  0.9340 -0.4239
  168DOPC   H6R20401   3.615   0.109   6.400  0.0997 -0.1973 -1.7915
  168DOPC   H6S20402   3.677   0.276   6.423  1.7683  2.0210 -2.6148
  168DOPC   C2720403   3.758   0.168   6.253 -0.1137 -0.4972 -0.2371
  168DOPC   H7R20404   3.796   0.265   6.214  0.9055 -0.0107  1.8467
  168DOPC   H7S20405   3.719   0.101   6.172  0.0607 -0.9004  0.0084
  168DOPC   C2820406   3.866   0.079   6.319  0.6887  0.1810  0.2887
  168DOPC   H8R20407   3.935   0.032   6.245  0.3274  0.5203 -0.2708
  168DOPC   H8S20408   3.813  -0.007   6.365 -0.1617  0.8536  0.5852
  168DOPC   C2920409   3.948   0.151   6.421 -0.2760 -0.4232  0.1962
  168DOPC   H9R20410   3.924   0.132   6.526  0.3586  0.1786  0.4557
  168DOPC  C21020411   4.058   0.223   6.399 -0.1098 -0.5883  0.4548
  168DOPC  H10R20412   4.114   0.273   6.479 -0.0473  0.4359 -0.1999
  168DOPC  C21120413   4.121   0.237   6.266 -0.3207  0.3758  0.0602
  168DOPC  H11R20414   4.047   0.227   6.184  1.3583  1.9137 -1.7356
  168DOPC  H11S20415   4.191   0.157   6.233 -1.2180 -0.1695 -0.5673
  168DOPC  C21220416   4.189   0.367   6.239  0.0182 -0.2994  0.1576
  168DOPC  H12R20417   4.265   0.392   6.317  0.2362 -0.4135 -0.0186
  168DOPC  H12S20418   4.119   0.453   6.242 -0.4996 -0.6877 -0.6497
  168DOPC  C21320419   4.261   0.372   6.102  0.9350 -0.8327 -0.1210
  168DOPC  H13R20420   4.191   0.379   6.016 -0.5314 -1.4733  0.9810
  168DOPC  H13S20421   4.332   0.287   6.104  1.8235 -0.1374 -0.8018
  168DOPC  C21420422   4.340   0.500   6.086  0.0135  0.5795  0.6140
  168DOPC  H14R20423   4.399   0.514   6.179  2.2681  0.4145 -0.7228
  168DOPC  H14S20424   4.258   0.575   6.080 -0.8490 -0.2256  1.7982
  168DOPC  C21520425   4.428   0.507   5.954 -0.2085 -0.2003 -0.3746
  168DOPC  H15R20426   4.523   0.449   5.954 -0.3045 -0.3582 -0.4353
  168DOPC  H15S20427   4.463   0.612   5.944  0.2319 -0.1555  1.3564
  168DOPC  C21620428   4.357   0.465   5.819 -0.2101  0.4177 -0.3864
  168DOPC  H16R20429   4.249   0.490   5.823 -0.2406  1.0989 -3.1939
  168DOPC  H16S20430   4.372   0.356   5.805  0.2579  0.6793 -2.2200
  168DOPC  C21720431   4.408   0.528   5.696 -0.3219  0.1748 -0.1430
  168DOPC  H17R20432   4.385   0.479   5.599 -2.5750  0.5455  0.1562
  168DOPC  H17S20433   4.518   0.517   5.700 -0.2038  1.3070  0.0674
  168DOPC  C21820434   4.381   0.678   5.667  0.0624  0.0937 -0.2092
  168DOPC  H18R20435   4.273   0.702   5.670 -0.0613 -0.5558  1.0523
  168DOPC  H18S20436   4.430   0.714   5.573 -2.0418  2.3897 -0.5251
  168DOPC  H18T20437   4.428   0.741   5.745 -2.2664  1.5170  0.1133
  168DOPC   C3320438   2.849   0.313   6.617 -0.3762  0.2408  0.1206
  168DOPC   H3X20439   2.751   0.293   6.568  0.3505 -2.5258 -0.3389
  168DOPC   H3Y20440   2.871   0.228   6.684  0.4300 -0.7733 -1.3780
  168DOPC   C3420441   2.957   0.315   6.507 -0.1862 -0.0099  0.1148
  168DOPC   H4X20442   3.056   0.301   6.555 -0.6674 -1.4328  0.7684
  168DOPC   H4Y20443   2.949   0.410   6.451 -0.2244 -0.0668  0.0227
  168DOPC   C3520444   2.930   0.214   6.390 -0.0263  0.3776 -0.0716
  168DOPC   H5X20445   2.820   0.219   6.374  0.4779  3.3698 -3.8133
  168DOPC   H5Y20446   2.941   0.108   6.422 -2.5891  0.7170  2.3849
  168DOPC   C3620447   3.017   0.229   6.267  0.4791 -0.3415 -0.3770
  168DOPC   H6X20448   3.126   0.243   6.287  0.2491  1.0913 -0.0240
  168DOPC   H6Y20449   3.019   0.128   6.221  0.9779  0.5116 -2.3649
  168DOPC   C3720450   2.970   0.330   6.172  0.6313 -0.0745  0.6081
  168DOPC   H7X20451   2.859   0.333   6.176  0.5654  0.7326 -1.0125
  168DOPC   H7Y20452   3.006   0.431   6.199 -1.5946  0.8022  0.4911
  168DOPC   C3820453   3.013   0.308   6.029  0.3677 -0.1122 -0.1596
  168DOPC   H8X20454   2.975   0.398   5.976 -1.1940 -1.4201 -1.3725
  168DOPC   H8Y20455   2.972   0.214   5.988  0.7567  0.2099 -1.3317
  168DOPC   C3920456   3.172   0.305   6.025 -0.0508  0.3457  0.0128
  168DOPC   H9X20457   3.226   0.324   6.119 -1.3525  2.6456  0.4002
  168DOPC  C31020458   3.231   0.266   5.913 -0.1747  0.4024  0.6440
  168DOPC  H10X20459   3.341   0.265   5.908 -0.1884 -1.6785  0.0945
  168DOPC  C31120460   3.162   0.225   5.787  0.2836 -0.2215 -0.0688
  168DOPC  H11X20461   3.081   0.150   5.802  1.1096 -1.5195 -1.7179
  168DOPC  H11Y20462   3.236   0.167   5.728  2.6527 -0.8280  3.2803
  168DOPC  C31220463   3.091   0.327   5.699  0.2839 -0.2155  0.4157
  168DOPC  H12X20464   3.145   0.423   5.708 -2.1895  1.5233 -1.7284
  168DOPC  H12Y20465   2.994   0.359   5.743 -0.5344 -0.6512 -0.9986
  168DOPC  C31320466   3.077   0.284   5.558 -0.1274 -0.8324  0.9895
  168DOPC  H13X20467   3.169   0.299   5.498 -1.1065 -0.5209 -0.4840
  168DOPC  H13Y20468   3.040   0.180   5.546  1.4616 -1.1199 -2.7005
  168DOPC  C31420469   2.961   0.369   5.501  0.1853  0.2484 -0.7631
  168DOPC  H14X20470   2.869   0.344   5.557  1.0088  0.8771  0.9444
  168DOPC  H14Y20471   2.970   0.476   5.531 -1.7825  0.4441 -0.7698
  168DOPC  C31520472   2.959   0.351   5.353 -0.2340  0.2238 -0.1738
  168DOPC  H15X20473   2.946   0.245   5.324  1.3627 -0.1094  0.2636
  168DOPC  H15Y20474   3.060   0.382   5.318 -0.5391  0.5985 -0.7398
  168DOPC  C31620475   2.863   0.441   5.272 -0.2783 -0.1206  0.2268
  168DOPC  H16X20476   2.892   0.547   5.286 -1.3468  0.4625 -1.6990
  168DOPC  H16Y20477   2.882   0.415   5.166  2.4762  0.0669  0.5871
  168DOPC  C31720478   2.715   0.411   5.303  0.7270 -0.1247  0.0712
  168DOPC  H17X20479   2.705   0.301   5.292 -1.0950  0.2224 -2.6250
  168DOPC  H17Y20480   2.703   0.439   5.410  0.5702  0.1246 -0.0122
  168DOPC  C31820481   2.614   0.465   5.202  0.2092  0.5421 -0.1012
  168DOPC  H18X20482   2.510   0.441   5.231  0.3928  0.0147  0.1472
  168DOPC  H18Y20483   2.628   0.575   5.204 -0.4904  0.6416  1.5646
  168DOPC  H18Z20484   2.624   0.427   5.099  0.6582 -0.7730  0.4016
  169DOPC     N20485   1.158   1.776   7.023 -0.3327 -0.2870  0.2307
  169DOPC   C1220486   1.181   1.803   6.874 -0.2222 -0.5543  0.2117
  169DOPC  H12A20487   1.150   1.905   6.861 -0.8670 -0.8356 -0.5880
  169DOPC  H12B20488   1.107   1.754   6.812  0.1078 -0.4668 -0.2562
  169DOPC   C1320489   1.024   1.802   7.058 -0.2690  0.0460 -0.4406
  169DOPC  H13A20490   0.952   1.756   6.992  1.7309 -0.5888 -2.2910
  169DOPC  H13B20491   1.010   1.769   7.160  2.5151 -0.5382 -0.1659
  169DOPC  H13C20492   0.994   1.906   7.051 -0.6409  0.2191  2.3952
  169DOPC   C1420493   1.257   1.854   7.108  0.3021  0.7201  1.1324
  169DOPC  H14A20494   1.353   1.831   7.066 -0.2032 -3.1635  1.7993
  169DOPC  H14B20495   1.248   1.961   7.096 -1.2092  0.4737 -0.4217
  169DOPC  H14C20496   1.255   1.830   7.213  1.0328  2.1270  1.4929
  169DOPC   C1520497   1.184   1.634   7.040  0.6738  0.9735  0.8233
  169DOPC  H15A20498   1.156   1.591   7.135  0.3042 -0.3160  0.1547
  169DOPC  H15B20499   1.288   1.608   7.028  0.0034 -1.8214  0.4381
  169DOPC  H15C20500   1.132   1.569   6.971  3.7744 -1.2177  0.3335
  169DOPC   C1120501   1.322   1.776   6.816  0.0678 -0.1948 -0.5162
  169DOPC  H11A20502   1.353   1.835   6.728 -0.7757  3.3746  1.3715
  169DOPC  H11B20503   1.390   1.801   6.901 -0.2730 -1.6626  0.2351
  169DOPC     P20504   1.265   1.568   6.678  0.4716  0.0847  0.1319
  169DOPC   O1320505   1.117   1.580   6.691  0.0765  0.2245  0.2834
  169DOPC   O1420506   1.311   1.431   6.669  0.0419 -0.1044 -0.2615
  169DOPC   O1220507   1.332   1.638   6.793 -0.4188 -0.4749 -0.2712
  169DOPC   O1120508   1.303   1.655   6.550 -0.0162  0.6566 -0.6289
  169DOPC    C120509   1.422   1.621   6.478  0.1617  0.7789 -0.6351
  169DOPC    HA20510   1.403   1.522   6.432  0.9981 -0.3651  1.3744
  169DOPC    HB20511   1.518   1.613   6.533 -0.5584 -1.3107  0.4232
  169DOPC    C220512   1.443   1.721   6.358  0.6154  0.6473 -0.4392
  169DOPC    HS20513   1.541   1.714   6.306  1.1806  1.3838  0.4917
  169DOPC   O2120514   1.423   1.855   6.400  0.4838 -0.3499  0.3075
  169DOPC   C2120515   1.515   1.906   6.482  0.3113  0.7569 -0.4575
  169DOPC   O2220516   1.608   1.850   6.530 -0.5395  0.2841 -0.3426
  169DOPC   C2220517   1.470   2.051   6.518  0.3786 -0.3814  0.1587
  169DOPC   H2R20518   1.472   2.058   6.629 -2.1961 -0.1890  0.2349
  169DOPC   H2S20519   1.365   2.069   6.489  0.1625  0.9699  1.6669
  169DOPC    C320520   1.332   1.678   6.256  0.1808 -0.3914 -1.3129
  169DOPC    HX20521   1.235   1.684   6.309  0.8935  1.4739 -0.0673
  169DOPC    HY20522   1.359   1.574   6.230 -0.9640 -1.2036  0.5247
  169DOPC   O3120523   1.331   1.762   6.137  0.6972 -0.1245 -0.2240
  169DOPC   C3120524   1.248   1.865   6.142  0.2125  0.7070 -0.2573
  169DOPC   O3220525   1.167   1.889   6.228 -0.8915 -0.0572  0.0756
  169DOPC   C3220526   1.256   1.962   6.028 -0.0165 -0.1797  0.6621
  169DOPC   H2X20527   1.159   1.955   5.973 -1.0761 -2.7833  2.6493
  169DOPC   H2Y20528   1.257   2.063   6.075 -0.1291  0.6601 -1.0617
  169DOPC   C2320529   1.555   2.161   6.457 -0.2615  0.1787  0.3269
  169DOPC   H3R20530   1.660   2.127   6.465  1.2468  4.4069  0.8792
  169DOPC   H3S20531   1.559   2.258   6.511 -0.7856  1.0855 -1.2305
  169DOPC   C2420532   1.537   2.183   6.307  0.3298  0.1459 -0.0644
  169DOPC   H4R20533   1.447   2.248   6.293 -0.9298 -1.9226 -2.3437
  169DOPC   H4S20534   1.502   2.086   6.267  1.4563 -0.6232  0.7871
  169DOPC   C2520535   1.653   2.244   6.234  0.2094 -0.1153 -0.3164
  169DOPC   H5R20536   1.743   2.187   6.265 -0.3015  0.5971  2.7282
  169DOPC   H5S20537   1.673   2.346   6.272 -0.2237  0.9210 -2.6612
  169DOPC   C2620538   1.633   2.259   6.083  0.1455 -0.2682  0.1919
  169DOPC   H6R20539   1.547   2.324   6.057  1.6180  1.0193 -1.8223
  169DOPC   H6S20540   1.610   2.157   6.046 -1.5461  0.8756 -2.2231
  169DOPC   C2720541   1.763   2.323   6.027 -0.8492  0.1588  0.7231
  169DOPC   H7R20542   1.851   2.274   6.073  1.2592  2.2148 -0.8832
  169DOPC   H7S20543   1.766   2.430   6.055  1.3101  0.5144 -0.6223
  169DOPC   C2820544   1.787   2.307   5.876 -0.1051 -0.0574  0.9893
  169DOPC   H8R20545   1.788   2.203   5.839 -1.4076  0.7077 -1.4575
  169DOPC   H8S20546   1.887   2.346   5.849 -0.6498  0.0199 -1.1428
  169DOPC   C2920547   1.681   2.379   5.800  0.0786 -0.3625 -0.0847
  169DOPC   H9R20548   1.607   2.309   5.759 -1.1124  0.5915  0.3890
  169DOPC  C21020549   1.673   2.508   5.760  0.0107  0.8104  0.2289
  169DOPC  H10R20550   1.574   2.533   5.722 -0.3012 -0.6394  0.0148
  169DOPC  C21120551   1.777   2.612   5.785 -0.0839  0.2389 -0.3580
  169DOPC  H11R20552   1.858   2.588   5.857 -1.3387 -2.0102  0.4081
  169DOPC  H11S20553   1.726   2.706   5.816  2.6212  1.5569  0.4543
  169DOPC  C21220554   1.844   2.655   5.649  0.1764  0.8529 -0.7980
  169DOPC  H12R20555   1.913   2.739   5.671  2.8161 -1.3198 -0.1485
  169DOPC  H12S20556   1.768   2.689   5.577 -0.8937  3.7938  1.5375
  169DOPC  C21320557   1.929   2.550   5.582  0.3681  0.1832 -0.2171
  169DOPC  H13R20558   1.881   2.450   5.573  0.1865  0.2105  0.3995
  169DOPC  H13S20559   2.001   2.512   5.658 -0.2899  2.5660  1.6989
  169DOPC  C21420560   1.985   2.602   5.443 -1.1920 -0.2996  0.2307
  169DOPC  H14R20561   2.062   2.681   5.448  1.3460 -2.6213  0.3446
  169DOPC  H14S20562   1.898   2.637   5.383  0.7084  1.3415 -1.7228
  169DOPC  C21520563   2.037   2.490   5.347 -0.7091 -0.2373 -0.0206
  169DOPC  H15R20564   2.016   2.522   5.243  0.8872  0.2872 -0.2111
  169DOPC  H15S20565   1.987   2.393   5.369  2.8162 -2.2360 -0.1237
  169DOPC  C21620566   2.188   2.466   5.354 -0.3980 -0.3418  0.0929
  169DOPC  H16R20567   2.248   2.560   5.360  0.0596 -0.7254  1.8877
  169DOPC  H16S20568   2.219   2.415   5.261 -0.3938  0.1430 -0.1779
  169DOPC  C21720569   2.228   2.391   5.486  0.2490 -0.1512 -0.5303
  169DOPC  H17R20570   2.203   2.450   5.576 -0.6285 -0.5282 -0.5164
  169DOPC  H17S20571   2.339   2.388   5.483  0.3581  1.3189  0.9919
  169DOPC  C21820572   2.174   2.251   5.504  0.5638 -0.3652 -0.3195
  169DOPC  H18R20573   2.232   2.217   5.593  0.2565  1.6218  0.6906
  169DOPC  H18S20574   2.190   2.192   5.411  1.1181  0.5872 -0.8362
  169DOPC  H18T20575   2.067   2.248   5.534  0.2372 -1.1582 -1.5014
  169DOPC   C3320576   1.380   1.943   5.942 -0.2374 -0.1045  1.1168
  169DOPC   H3X20577   1.405   1.841   5.905  0.0142  0.6792 -1.0195
  169DOPC   H3Y20578   1.471   1.951   6.004  0.8231  0.6710 -0.4798
  169DOPC   C3420579   1.382   2.039   5.816 -0.2469  0.4866 -0.3150
  169DOPC   H4X20580   1.386   2.143   5.855 -1.4709  0.7432 -0.8126
  169DOPC   H4Y20581   1.285   2.028   5.763  0.5564 -0.5649 -1.5978
  169DOPC   C3520582   1.499   2.016   5.709  1.2711 -0.0151  0.3745
  169DOPC   H5X20583   1.497   1.911   5.675 -3.0365 -0.1542  0.4243
  169DOPC   H5Y20584   1.596   2.045   5.755  0.7101  1.2107  0.8448
  169DOPC   C3620585   1.465   2.105   5.587 -0.5128 -0.1639 -0.4280
  169DOPC   H6X20586   1.357   2.093   5.564 -0.4621 -1.1604 -0.1926
  169DOPC   H6Y20587   1.481   2.210   5.621  2.4943 -1.3710  2.3685
  169DOPC   C3720588   1.539   2.062   5.461  0.4760  0.8570 -0.1927
  169DOPC   H7X20589   1.649   2.068   5.471  0.4433 -0.1231  1.0964
  169DOPC   H7Y20590   1.520   1.953   5.449  2.5680  0.5426 -0.9535
  169DOPC   C3820591   1.496   2.132   5.328 -0.4654  0.1315 -0.4460
  169DOPC   H8X20592   1.495   2.243   5.330 -1.2397  0.1466 -1.0862
  169DOPC   H8Y20593   1.388   2.112   5.308 -0.7222 -0.9226  1.7074
  169DOPC   C3920594   1.568   2.079   5.206  0.9833 -0.1319 -0.4022
  169DOPC   H9X20595   1.663   2.127   5.177  0.9523  0.2788  0.1673
  169DOPC  C31020596   1.528   1.969   5.139 -0.7052  0.5782 -0.4876
  169DOPC  H10X20597   1.593   1.949   5.053 -0.3416  3.9543 -1.1480
  169DOPC  C31120598   1.412   1.871   5.166 -0.1871  0.1178  0.7767
  169DOPC  H11X20599   1.410   1.849   5.275 -1.7299 -0.3396  0.6795
  169DOPC  H11Y20600   1.437   1.776   5.115  0.6084  0.8294 -0.1999
  169DOPC  C31220601   1.284   1.931   5.103 -0.7092 -0.5134  0.4660
  169DOPC  H12X20602   1.290   2.042   5.109  0.4602 -0.4039 -1.7575
  169DOPC  H12Y20603   1.196   1.892   5.160 -0.2248  0.5872  2.0214
  169DOPC  C31320604   1.276   1.883   4.959  1.0257  0.1413 -0.3102
  169DOPC  H13X20605   1.374   1.887   4.907  1.0506  3.1655 -0.2296
  169DOPC  H13Y20606   1.248   1.776   4.966 -0.7535  0.6742  3.5617
  169DOPC  C31420607   1.164   1.952   4.875 -0.1674 -0.7189 -0.0310
  169DOPC  H14X20608   1.082   1.967   4.949  2.5011 -1.2396  3.2779
  169DOPC  H14Y20609   1.209   2.049   4.844  2.2485 -1.1841  1.7378
  169DOPC  C31520610   1.104   1.874   4.752 -0.0133 -0.5447  0.1186
  169DOPC  H15X20611   1.027   1.942   4.709 -0.4780 -1.5623 -0.6836
  169DOPC  H15Y20612   1.062   1.779   4.790  0.8640 -1.1746 -0.4721
  169DOPC  C31620613   1.220   1.847   4.659 -0.0434 -0.3049 -0.0489
  169DOPC  H16X20614   1.277   1.942   4.654  1.3391 -0.9724  1.7026
  169DOPC  H16Y20615   1.295   1.785   4.712  0.9824  0.5019 -0.5300
  169DOPC  C31720616   1.176   1.782   4.528 -0.1494 -0.6653 -0.5702
  169DOPC  H17X20617   1.259   1.794   4.455  2.2038  2.4843  2.3084
  169DOPC  H17Y20618   1.166   1.673   4.543  3.0153 -0.7802  1.7993
  169DOPC  C31820619   1.050   1.829   4.451 -0.4247  0.3154 -0.0571
  169DOPC  H18X20620   1.020   1.775   4.358  3.9195  1.5613 -2.4511
  169DOPC  H18Y20621   0.969   1.841   4.525 -0.5980  0.9954 -0.3506
  169DOPC  H18Z20622   1.072   1.929   4.408 -0.9884 -0.0337 -1.2183
  170DOPC     N20623   0.589   1.521   7.361  0.1867 -0.0175 -0.1109
  170DOPC   C1220624   0.561   1.600   7.232  0.0993  0.1326  0.0079
  170DOPC  H12A20625   0.501   1.688   7.248  1.4286  1.3979 -1.5864
  170DOPC  H12B20626   0.499   1.535   7.171  1.1732 -1.8671  0.9232
  170DOPC   C1320627   0.664   1.396   7.318  0.2916  0.8273  0.0615
  170DOPC  H13A20628   0.615   1.344   7.238  1.9310 -1.2846  0.3353
  170DOPC  H13B20629   0.761   1.414   7.274  0.7470 -0.9352  0.2512
  170DOPC  H13C20630   0.675   1.333   7.405  1.4168 -0.8257 -1.2159
  170DOPC   C1420631   0.460   1.489   7.430  0.0916 -0.1522  0.2001
  170DOPC  H14A20632   0.393   1.443   7.359 -0.3664 -0.0131  0.5372
  170DOPC  H14B20633   0.481   1.426   7.515  1.5762  0.4656  0.3164
  170DOPC  H14C20634   0.412   1.580   7.465  0.7253  0.2954 -0.0778
  170DOPC   C1520635   0.679   1.587   7.457  0.4160 -0.2856 -0.1787
  170DOPC  H15A20636   0.695   1.524   7.543  0.6789 -1.2930 -0.9541
  170DOPC  H15B20637   0.640   1.685   7.480  1.7356  0.7576 -2.0997
  170DOPC  H15C20638   0.772   1.610   7.407 -0.8175  1.7780 -1.7090
  170DOPC   C1120639   0.684   1.653   7.165 -0.1479  0.8436 -0.4136
  170DOPC  H11A20640   0.730   1.732   7.227 -1.3431  1.1611  0.0991
  170DOPC  H11B20641   0.756   1.571   7.146  0.0373  0.4088  1.9448
  170DOPC     P20642   0.597   1.875   7.059 -0.4078 -0.0685 -0.3359
  170DOPC   O1320643   0.721   1.957   7.045 -0.3647 -0.5227  0.1480
  170DOPC   O1420644   0.523   1.907   7.184  0.5252  0.1565  0.3486
  170DOPC   O1220645   0.643   1.717   7.045  0.1812 -0.2423  0.2744
  170DOPC   O1120646   0.492   1.895   6.938 -0.2937 -0.3411  0.4618
  170DOPC    C120647   0.498   1.826   6.816  0.2414  0.2790  0.0560
  170DOPC    HA20648   0.401   1.820   6.762 -0.4914 -0.5601  1.4047
  170DOPC    HB20649   0.540   1.724   6.831  1.2394  0.3121 -2.1712
  170DOPC    C220650   0.601   1.896   6.722 -0.2824  0.4691 -0.0445
  170DOPC    HS20651   0.693   1.888   6.783 -0.3510  2.0595  0.3097
  170DOPC   O2120652   0.564   2.029   6.689 -0.1157  0.6846  0.2193
  170DOPC   C2120653   0.654   2.113   6.632 -0.0200  0.1721  0.3414
  170DOPC   O2220654   0.762   2.071   6.591 -0.3510  0.0514  0.1129
  170DOPC   C2220655   0.609   2.263   6.621  0.6134 -0.1188  0.2347
  170DOPC   H2R20656   0.675   2.289   6.536  1.5041 -1.3567  0.5178
  170DOPC   H2S20657   0.637   2.323   6.711  0.3343  0.0519  0.2100
  170DOPC    C320658   0.614   1.811   6.588 -0.1909 -0.0121 -0.4791
  170DOPC    HX20659   0.663   1.715   6.615 -0.6741 -0.1580 -0.1130
  170DOPC    HY20660   0.684   1.865   6.521 -2.5439  3.1026 -0.6504
  170DOPC   O3120661   0.496   1.783   6.517  0.0452  1.0439 -0.2043
  170DOPC   C3120662   0.432   1.672   6.537 -0.5627  0.5690 -0.2275
  170DOPC   O3220663   0.461   1.587   6.618 -0.0318 -0.5192 -0.4709
  170DOPC   C3220664   0.317   1.653   6.443 -0.0453  0.3672  0.2917
  170DOPC   H2X20665   0.273   1.558   6.482  0.7348  0.5708  1.7336
  170DOPC   H2Y20666   0.248   1.740   6.450 -0.2638  0.2779 -0.6666
  170DOPC   C2320667   0.457   2.278   6.590  0.6500  0.1477 -0.8896
  170DOPC   H3R20668   0.446   2.388   6.573  0.3808  0.5082  1.3412
  170DOPC   H3S20669   0.397   2.244   6.677  2.7933  0.2568  0.7148
  170DOPC   C2420670   0.408   2.190   6.475  0.7978 -0.2621  0.0205
  170DOPC   H4R20671   0.299   2.206   6.462  0.4649  0.2623  2.8393
  170DOPC   H4S20672   0.428   2.086   6.507 -1.5806 -0.1403  2.2678
  170DOPC   C2520673   0.482   2.204   6.345  0.3359 -0.4360  0.2789
  170DOPC   H5R20674   0.590   2.178   6.351  0.9735  2.2674  2.1111
  170DOPC   H5S20675   0.474   2.313   6.323  1.4536 -0.5370 -0.7542
  170DOPC   C2620676   0.414   2.125   6.232  0.0190  0.3994  0.9558
  170DOPC   H6R20677   0.312   2.169   6.231  0.5265  1.6243  1.5492
  170DOPC   H6S20678   0.403   2.018   6.261  3.3066  0.2741  2.1836
  170DOPC   C2720679   0.484   2.132   6.097 -0.0231 -0.2866  0.7511
  170DOPC   H7R20680   0.589   2.096   6.107  0.3495  0.2369 -0.9142
  170DOPC   H7S20681   0.490   2.239   6.068  0.2543  0.0895  2.1207
  170DOPC   C2820682   0.420   2.045   5.987  0.1194  0.1906  0.2224
  170DOPC   H8R20683   0.431   1.940   6.020  2.4249  0.0929 -0.6482
  170DOPC   H8S20684   0.471   2.055   5.889  1.2161 -0.5595  0.6964
  170DOPC   C2920685   0.275   2.075   5.955 -0.0172 -0.5404  0.3152
  170DOPC   H9R20686   0.216   2.143   6.018 -2.0653 -0.6542 -1.3653
  170DOPC  C21020687   0.213   2.039   5.839  0.0941 -0.0693  0.5332
  170DOPC  H10R20688   0.108   2.069   5.829 -0.0024 -0.3745  0.6492
  170DOPC  C21120689   0.277   1.965   5.724  0.8551  0.4487  0.2355
  170DOPC  H11R20690   0.335   1.880   5.766  1.0110  0.5209  0.1640
  170DOPC  H11S20691   0.346   2.033   5.670 -1.4988  2.3489 -0.5757
  170DOPC  C21220692   0.174   1.890   5.629  0.0902  0.2631 -0.6316
  170DOPC  H12R20693   0.101   1.837   5.693 -0.3925 -0.0488 -1.4239
  170DOPC  H12S20694   0.214   1.818   5.554  0.2338  0.2553 -0.5468
  170DOPC  C21320695   0.088   1.987   5.545 -0.1762  0.2524  0.1245
  170DOPC  H13R20696   0.158   2.058   5.497  2.2659 -0.2896  2.6078
  170DOPC  H13S20697   0.026   2.046   5.616 -0.2613 -0.1624  0.3961
  170DOPC  C21420698  -0.001   1.915   5.444 -0.3494 -0.7939 -0.0210
  170DOPC  H14R20699   0.066   1.861   5.374 -0.0388  0.3040 -0.5902
  170DOPC  H14S20700  -0.039   2.006   5.392  0.0633 -0.5723  0.0559
  170DOPC  C21520701  -0.117   1.835   5.506 -0.5207  0.1463 -0.4247
  170DOPC  H15R20702  -0.138   1.880   5.606 -1.3896 -0.3014 -0.3900
  170DOPC  H15S20703  -0.093   1.727   5.518 -1.8793 -0.2484 -1.0671
  170DOPC  C21620704  -0.245   1.831   5.428  0.1458 -0.0547 -0.0135
  170DOPC  H16R20705  -0.227   1.798   5.323  1.6679 -0.0474  0.2177
  170DOPC  H16S20706  -0.290   1.933   5.429 -1.5053 -0.7496  1.3765
  170DOPC  C21720707  -0.347   1.724   5.484 -0.3350 -0.4473 -0.5151
  170DOPC  H17R20708  -0.380   1.776   5.577 -0.4491 -0.2403 -0.6712
  170DOPC  H17S20709  -0.289   1.634   5.515 -2.9255 -1.2844  2.4595
  170DOPC  C21820710  -0.462   1.692   5.387 -0.4021 -0.2613 -0.3280
  170DOPC  H18R20711  -0.421   1.655   5.291 -1.1819  0.4195 -0.9424
  170DOPC  H18S20712  -0.535   1.776   5.394  0.4995  0.4037  2.1331
  170DOPC  H18T20713  -0.509   1.597   5.420  0.8019 -1.3570 -1.6499
  170DOPC   C3320714   0.375   1.660   6.302 -0.3368  0.1848  0.8082
  170DOPC   H3X20715   0.462   1.595   6.282 -0.1007  1.4489 -3.2446
  170DOPC   H3Y20716   0.412   1.762   6.279 -2.0242  0.3927 -1.3836
  170DOPC   C3420717   0.274   1.603   6.196  0.4576  0.5999 -0.4538
  170DOPC   H4X20718   0.180   1.661   6.193 -0.1984 -0.3953  0.0787
  170DOPC   H4Y20719   0.252   1.504   6.242  1.8327 -0.3286 -1.6972
  170DOPC   C3520720   0.331   1.578   6.055 -0.3649  0.1266 -1.0110
  170DOPC   H5X20721   0.416   1.508   6.068 -1.1443 -0.5065  1.0286
  170DOPC   H5Y20722   0.368   1.676   6.018 -2.8379  1.4339 -0.2690
  170DOPC   C3620723   0.224   1.504   5.976  0.5198  0.1946 -0.4825
  170DOPC   H6X20724   0.199   1.418   6.042  0.6307  1.2696  1.0146
  170DOPC   H6Y20725   0.137   1.573   5.967  0.5624  0.1816 -0.9846
  170DOPC   C3720726   0.275   1.440   5.846 -0.3787 -0.8859 -0.4792
  170DOPC   H7X20727   0.290   1.537   5.794  0.8950  0.9805  3.0008
  170DOPC   H7Y20728   0.379   1.406   5.869 -0.0847  1.4680  2.3576
  170DOPC   C3820729   0.191   1.332   5.782  0.8587 -0.7292 -0.4571
  170DOPC   H8X20730   0.089   1.377   5.779  1.4721  0.7133 -0.1083
  170DOPC   H8Y20731   0.175   1.251   5.857  2.7217  0.3575  1.1865
  170DOPC   C3920732   0.245   1.296   5.650 -0.2005 -0.8568  0.3573
  170DOPC   H9X20733   0.243   1.373   5.571  0.1452 -0.5262  0.6678
  170DOPC  C31020734   0.313   1.179   5.615 -0.3833  0.1912 -0.4072
  170DOPC  H10X20735   0.329   1.159   5.508 -2.8155 -1.2233 -0.5674
  170DOPC  C31120736   0.359   1.064   5.702  0.6428 -0.6978  0.7479
  170DOPC  H11X20737   0.318   1.073   5.805  1.6134  0.8718  1.0297
  170DOPC  H11Y20738   0.467   1.043   5.696  0.9491  0.8619 -3.7756
  170DOPC  C31220739   0.305   0.923   5.656 -0.0376 -0.8859 -0.9896
  170DOPC  H12X20740   0.194   0.918   5.659 -0.2126  0.9005 -2.3087
  170DOPC  H12Y20741   0.330   0.846   5.732 -2.3146  1.0251  1.9358
  170DOPC  C31320742   0.360   0.877   5.521 -0.2743 -0.5014 -0.2465
  170DOPC  H13X20743   0.297   0.932   5.448  1.0552 -0.3819 -1.3357
  170DOPC  H13Y20744   0.460   0.921   5.500 -0.8623 -0.0261 -2.2833
  170DOPC  C31420745   0.368   0.728   5.514  0.3425  0.0992 -0.4495
  170DOPC  H14X20746   0.389   0.711   5.406  1.7469  0.5443 -0.2643
  170DOPC  H14Y20747   0.452   0.691   5.576 -0.4315 -1.2857 -0.1915
  170DOPC  C31520748   0.246   0.646   5.554 -0.1697 -0.2038 -0.6003
  170DOPC  H15X20749   0.160   0.684   5.494 -0.3351 -1.5996 -1.2820
  170DOPC  H15Y20750   0.220   0.655   5.661 -3.2695  0.9737 -1.3408
  170DOPC  C31620751   0.265   0.496   5.524  0.6393  0.0047  0.5308
  170DOPC  H16X20752   0.342   0.454   5.593 -0.1292 -3.1097 -0.3471
  170DOPC  H16Y20753   0.173   0.439   5.546  0.7873 -0.5469 -0.2060
  170DOPC  C31720754   0.307   0.463   5.379  0.1887  0.1949 -0.2599
  170DOPC  H17X20755   0.250   0.529   5.310 -1.6813  1.1166  2.0600
  170DOPC  H17Y20756   0.417   0.475   5.368  0.1167  0.0935 -1.1616
  170DOPC  C31820757   0.277   0.320   5.333 -0.4336  0.2677  0.3898
  170DOPC  H18X20758   0.301   0.317   5.224  2.9240  1.6380  0.9973
  170DOPC  H18Y20759   0.335   0.242   5.387 -1.0397 -0.3158  0.2191
  170DOPC  H18Z20760   0.170   0.297   5.352 -1.2364  4.0677  1.3064
  171DOPC     N20761   5.357   4.150   2.444 -0.4082  0.9251  0.4589
  171DOPC   C1220762   5.388   4.010   2.502 -0.0355 -0.1566  0.1310
  171DOPC  H12A20763   5.496   4.001   2.506  0.2470  1.8926 -1.6593
  171DOPC  H12B20764   5.357   3.943   2.423 -0.8843 -0.5345  0.7746
  171DOPC   C1320765   5.406   4.157   2.306 -0.1133 -0.2414 -0.4977
  171DOPC  H13A20766   5.353   4.090   2.239 -1.1306 -0.4165  0.4560
  171DOPC  H13B20767   5.405   4.260   2.273  2.1146  0.6519  1.9094
  171DOPC  H13C20768   5.511   4.132   2.303  0.6010  1.9693  2.0566
  171DOPC   C1420769   5.431   4.255   2.524  0.5024  0.3910 -0.2368
  171DOPC  H14A20770   5.536   4.228   2.521  0.6509  0.9427 -0.1466
  171DOPC  H14B20771   5.413   4.352   2.482  0.8780 -0.4624 -2.5181
  171DOPC  H14C20772   5.407   4.254   2.630 -0.0794 -2.0949 -0.3278
  171DOPC   C1520773   5.211   4.171   2.451  0.8841  0.2952 -0.4170
  171DOPC  H15A20774   5.178   4.267   2.415 -0.5266 -0.4237 -1.1384
  171DOPC  H15B20775   5.169   4.163   2.550  0.4085  0.9233 -0.5627
  171DOPC  H15C20776   5.156   4.101   2.390  1.3964  0.1948 -0.7723
  171DOPC   C1120777   5.338   3.983   2.646 -0.0761  0.6363 -0.2101
  171DOPC  H11A20778   5.403   3.903   2.689  0.3159  1.2360  0.3305
  171DOPC  H11B20779   5.349   4.077   2.704  2.7107 -0.3856  1.0781
  171DOPC     P20780   5.155   3.808   2.591  0.0755 -0.2454  0.0813
  171DOPC   O1320781   5.230   3.768   2.470  0.7602 -0.4456  0.5204
  171DOPC   O1420782   5.006   3.806   2.602  0.3007 -0.3151 -0.4150
  171DOPC   O1220783   5.198   3.950   2.639  0.5203 -0.7527 -0.1979
  171DOPC   O1120784   5.210   3.726   2.714 -0.6378  0.4870 -0.0790
  171DOPC    C120785   5.186   3.751   2.855 -0.0125 -0.4281 -0.5404
  171DOPC    HA20786   5.133   3.665   2.901 -0.7965  0.3104 -0.0047
  171DOPC    HB20787   5.123   3.843   2.867  0.9183  0.8028 -4.0032
  171DOPC    C220788   5.309   3.783   2.941  0.5089 -0.5674 -0.0027
  171DOPC    HS20789   5.362   3.865   2.887 -1.1327 -0.9571 -2.3734
  171DOPC   O2120790   5.382   3.655   2.958  0.1472 -0.0711 -0.6565
  171DOPC   C2120791   5.514   3.673   2.964  0.1361 -0.2786 -0.1817
  171DOPC   O2220792   5.572   3.777   2.947 -0.0358 -0.4147 -0.3561
  171DOPC   C2220793   5.590   3.542   2.985  0.1156 -0.2238 -0.1469
  171DOPC   H2R20794   5.664   3.521   2.904  1.5742 -2.3975  1.6231
  171DOPC   H2S20795   5.519   3.458   2.974 -2.4861  1.8125  0.1787
  171DOPC    C320796   5.268   3.835   3.077  0.4384  0.0703  0.0901
  171DOPC    HX20797   5.206   3.926   3.063  0.2338 -0.0175  0.4052
  171DOPC    HY20798   5.356   3.855   3.142  0.4446 -0.1548  0.1517
  171DOPC   O3120799   5.182   3.733   3.127 -0.0503  0.0884  0.2169
  171DOPC   C3120800   5.144   3.767   3.247  0.2223  0.3261  0.3929
  171DOPC   O3220801   5.183   3.861   3.315 -0.2906 -0.2208  0.1483
  171DOPC   C3220802   5.046   3.664   3.293 -0.7579 -0.1603 -0.1787
  171DOPC   H2X20803   4.987   3.633   3.205 -0.8365 -0.1762 -0.1207
  171DOPC   H2Y20804   5.103   3.571   3.317 -0.4667  0.2177  0.6413
  171DOPC   C2320805   5.656   3.540   3.128 -0.0133  0.8250  0.1944
  171DOPC   H3R20806   5.730   3.622   3.135  0.2596  0.5557  0.5040
  171DOPC   H3S20807   5.716   3.447   3.133 -1.7020 -0.2875  1.7283
  171DOPC   C2420808   5.544   3.534   3.232 -0.2327  0.2260 -0.5344
  171DOPC   H4R20809   5.479   3.448   3.206  1.3805 -1.2787  0.1716
  171DOPC   H4S20810   5.490   3.631   3.229 -0.5747  0.0157 -2.7138
  171DOPC   C2520811   5.603   3.531   3.371 -0.0327  0.0946  0.0040
  171DOPC   H5R20812   5.675   3.616   3.372  0.0759  0.0596 -1.8485
  171DOPC   H5S20813   5.653   3.432   3.386 -0.4141 -0.0211  0.5340
  171DOPC   C2620814   5.500   3.550   3.487  0.3226  0.0661 -0.3361
  171DOPC   H6R20815   5.449   3.646   3.467  1.9739  0.8766 -0.8076
  171DOPC   H6S20816   5.566   3.567   3.575 -0.1947  0.3195  0.0096
  171DOPC   C2720817   5.422   3.427   3.523  0.2812  0.9198 -0.1066
  171DOPC   H7R20818   5.486   3.336   3.521  0.5054  1.0849 -0.4459
  171DOPC   H7S20819   5.348   3.397   3.446  1.6679 -1.7890 -0.5210
  171DOPC   C2820820   5.354   3.445   3.665 -0.9118 -0.2102 -0.1592
  171DOPC   H8R20821   5.310   3.547   3.659 -1.3954 -0.4588 -0.8802
  171DOPC   H8S20822   5.443   3.450   3.733 -1.4499  1.0882  0.4886
  171DOPC   C2920823   5.250   3.345   3.711  0.5562 -0.6016 -0.8082
  171DOPC   H9R20824   5.165   3.326   3.644 -1.9795 -0.1633  2.0583
  171DOPC  C21020825   5.257   3.280   3.829  0.2863  0.1186  0.0664
  171DOPC  H10R20826   5.181   3.203   3.851 -0.1895  0.8400  1.0233
  171DOPC  C21120827   5.365   3.280   3.939  0.3567 -0.8434 -0.1039
  171DOPC  H11R20828   5.469   3.280   3.901  0.6291  1.2984  0.5132
  171DOPC  H11S20829   5.367   3.187   4.000  1.7477  0.2579  1.6094
  171DOPC  C21220830   5.339   3.408   4.027 -0.3023  0.5520 -0.5428
  171DOPC  H12R20831   5.231   3.422   4.048 -0.1919  0.2548  0.2547
  171DOPC  H12S20832   5.379   3.503   3.985 -1.1323  1.9168  1.5968
  171DOPC  C21320833   5.413   3.401   4.166 -0.5985  0.1273  0.5334
  171DOPC  H13R20834   5.515   3.365   4.139 -0.8735  1.6017 -3.0360
  171DOPC  H13S20835   5.358   3.329   4.231  0.4661 -2.1915 -0.9746
  171DOPC  C21420836   5.430   3.534   4.229  0.1023 -0.6130 -0.0260
  171DOPC  H14R20837   5.337   3.551   4.287  0.7051  0.6522  0.6194
  171DOPC  H14S20838   5.435   3.613   4.151 -2.3874  0.0499  0.4012
  171DOPC  C21520839   5.552   3.526   4.319 -0.3146 -0.1438  0.2720
  171DOPC  H15R20840   5.642   3.525   4.254 -0.8543 -1.2739 -0.4928
  171DOPC  H15S20841   5.551   3.438   4.386 -1.5265 -0.7440 -0.4827
  171DOPC  C21620842   5.557   3.647   4.415 -0.1861  0.0952 -0.4066
  171DOPC  H16R20843   5.466   3.660   4.478 -2.3231 -2.1663 -2.8150
  171DOPC  H16S20844   5.556   3.734   4.346 -0.7908 -0.5950 -1.2893
  171DOPC  C21720845   5.672   3.652   4.511  0.4642  0.1051 -0.0729
  171DOPC  H17R20846   5.762   3.632   4.449 -0.6787 -0.5170 -1.5908
  171DOPC  H17S20847   5.656   3.562   4.574  0.6092  2.0621  3.0008
  171DOPC  C21820848   5.692   3.780   4.596  0.1596  0.5997 -0.5034
  171DOPC  H18R20849   5.702   3.872   4.535  0.3465 -0.7178 -2.5407
  171DOPC  H18S20850   5.778   3.762   4.665 -1.1106 -1.6453  0.5968
  171DOPC  H18T20851   5.616   3.804   4.674 -1.6492 -1.4035 -1.5583
  171DOPC   C3320852   4.953   3.695   3.413  0.4030  0.2131  0.5941
  171DOPC   H3X20853   4.869   3.623   3.401 -2.4341  3.4661 -1.0230
  171DOPC   H3Y20854   4.896   3.790   3.402 -0.7410 -0.3942  1.0745
  171DOPC   C3420855   4.995   3.693   3.556 -0.2564 -0.4876  0.1089
  171DOPC   H4X20856   5.054   3.600   3.572 -0.7545 -0.9443 -0.6291
  171DOPC   H4Y20857   4.909   3.683   3.625 -0.3376 -0.2330  0.0484
  171DOPC   C3520858   5.067   3.824   3.593 -0.0205 -0.7140  0.1068
  171DOPC   H5X20859   5.027   3.921   3.554  0.5069 -0.1045  1.0482
  171DOPC   H5Y20860   5.171   3.818   3.554 -0.4216  0.6160 -1.2917
  171DOPC   C3620861   5.094   3.845   3.743  0.3367  0.2760  0.5113
  171DOPC   H6X20862   5.152   3.936   3.769 -1.7732  0.9372  3.4159
  171DOPC   H6Y20863   4.998   3.874   3.791  0.3660  0.9075  0.2055
  171DOPC   C3720864   5.170   3.732   3.816 -0.2503  0.1331  0.6517
  171DOPC   H7X20865   5.134   3.635   3.777 -1.2829  0.7185  0.1000
  171DOPC   H7Y20866   5.278   3.740   3.792  0.0397 -3.4712  0.2507
  171DOPC   C3820867   5.136   3.741   3.964  0.2738  0.1030 -0.1312
  171DOPC   H8X20868   5.167   3.651   4.021  2.2419 -0.0770 -1.3726
  171DOPC   H8Y20869   5.026   3.753   3.977 -0.0035  0.1736 -2.1328
  171DOPC   C3920870   5.204   3.854   4.032  0.1862  0.5774  0.4663
  171DOPC   H9X20871   5.275   3.912   3.970 -0.0402  0.8955  0.4990
  171DOPC  C31020872   5.165   3.902   4.155  0.1381  0.0424  0.2056
  171DOPC  H10X20873   5.222   3.984   4.201 -0.8421 -0.6658  2.8438
  171DOPC  C31120874   5.045   3.847   4.240 -0.0608 -0.5843 -0.1430
  171DOPC  H11X20875   5.023   3.744   4.205  1.9717 -1.5791  1.2727
  171DOPC  H11Y20876   4.957   3.910   4.215 -0.0708  0.1942  1.6769
  171DOPC  C31220877   5.070   3.837   4.391  0.3664  0.3024 -0.8157
  171DOPC  H12X20878   5.140   3.751   4.399  1.1254  1.0321  0.9389
  171DOPC  H12Y20879   4.971   3.804   4.428 -0.2096  1.5539 -1.1927
  171DOPC  C31320880   5.114   3.966   4.466 -0.8808  0.3392 -0.4919
  171DOPC  H13X20881   5.206   4.006   4.420  1.6834 -2.4308  1.8158
  171DOPC  H13Y20882   5.037   4.044   4.486 -0.8948 -0.0204  0.9623
  171DOPC  C31420883   5.160   3.927   4.607 -0.8366 -0.6289 -0.3385
  171DOPC  H14X20884   5.248   3.860   4.598  1.5167  1.8391  2.0942
  171DOPC  H14Y20885   5.198   4.016   4.663 -0.8688 -0.6495 -0.2839
  171DOPC  C31520886   5.049   3.868   4.701  0.2171 -0.4196 -0.2865
  171DOPC  H15X20887   5.028   3.763   4.674 -0.3820 -0.1359 -0.9896
  171DOPC  H15Y20888   4.962   3.929   4.667  1.0162  0.8016 -0.1892
  171DOPC  C31620889   5.084   3.886   4.849 -0.0806  0.3887 -0.3656
  171DOPC  H16X20890   5.155   3.806   4.880  0.1096  0.3953 -0.7714
  171DOPC  H16Y20891   5.128   3.986   4.871 -1.8361  0.9572  0.7529
  171DOPC  C31720892   4.959   3.882   4.934  0.4225 -0.1033  0.3017
  171DOPC  H17X20893   4.880   3.936   4.878  1.4531  0.1572 -0.9430
  171DOPC  H17Y20894   4.918   3.779   4.931 -2.2167  0.8814 -1.3099
  171DOPC  C31820895   4.980   3.924   5.082 -0.4537  0.8350  0.0909
  171DOPC  H18X20896   4.897   3.905   5.153 -0.5902 -0.2917 -0.3545
  171DOPC  H18Y20897   5.071   3.874   5.121  0.7136  2.6474 -0.2125
  171DOPC  H18Z20898   5.013   4.030   5.083  3.0116  0.0426 -3.4402
  172DOPC     N20899   3.451   4.339   3.244  0.4322 -0.1489 -0.1912
  172DOPC   C1220900   3.331   4.410   3.294 -0.0736 -0.5411  0.1283
  172DOPC  H12A20901   3.356   4.514   3.309  0.6813 -0.7241  0.1808
  172DOPC  H12B20902   3.290   4.377   3.388 -1.4372 -0.1905 -0.3290
  172DOPC   C1320903   3.538   4.304   3.364 -0.4948  0.2545  0.3627
  172DOPC  H13A20904   3.488   4.245   3.439 -0.8519 -1.1415 -0.9050
  172DOPC  H13B20905   3.613   4.236   3.327 -1.7471 -0.5127 -0.9073
  172DOPC  H13C20906   3.577   4.395   3.406 -1.5175  0.0042  1.9438
  172DOPC   C1420907   3.538   4.413   3.156 -0.0522 -0.2330 -0.1628
  172DOPC  H14A20908   3.631   4.362   3.136 -0.9015 -2.4782  1.2301
  172DOPC  H14B20909   3.489   4.433   3.062  0.0592 -0.0809 -0.1888
  172DOPC  H14C20910   3.559   4.511   3.195  1.2402 -0.8055  0.6558
  172DOPC   C1520911   3.405   4.210   3.174  0.0468  0.5312  0.3056
  172DOPC  H15A20912   3.347   4.241   3.089 -0.0462  1.9392  0.8510
  172DOPC  H15B20913   3.342   4.146   3.234  0.3842  0.6849  0.8290
  172DOPC  H15C20914   3.492   4.160   3.135 -0.0693  0.1948  0.4752
  172DOPC   C1120915   3.212   4.413   3.192  0.3596  0.2700  0.3985
  172DOPC  H11A20916   3.167   4.314   3.169  0.7064 -0.0456  1.0462
  172DOPC  H11B20917   3.136   4.478   3.240  1.5555 -0.0854  2.9364
  172DOPC     P20918   3.264   4.622   3.038 -0.0119  0.3565  0.1811
  172DOPC   O1320919   3.220   4.638   2.899 -0.0055 -0.5640  0.7068
  172DOPC   O1420920   3.399   4.677   3.077 -0.5099  0.0185 -0.3630
  172DOPC   O1220921   3.252   4.468   3.067 -0.6356 -0.4996 -0.4270
  172DOPC   O1120922   3.157   4.671   3.141 -0.4624 -0.4616  0.1671
  172DOPC    C120923   3.186   4.794   3.204 -0.6635  0.0567  0.0930
  172DOPC    HA20924   3.089   4.842   3.229  0.8436  2.3715  1.8827
  172DOPC    HB20925   3.252   4.867   3.152  2.0867 -1.0347  1.8302
  172DOPC    C220926   3.247   4.783   3.348  0.5308 -0.9244 -0.5542
  172DOPC    HS20927   3.350   4.741   3.341  1.1397  0.4858 -0.3090
  172DOPC   O2120928   3.154   4.712   3.431  0.2596  0.0236  0.6237
  172DOPC   C2120929   3.202   4.637   3.528 -0.7183 -0.3286  0.6834
  172DOPC   O2220930   3.321   4.608   3.537 -0.2389  0.3400 -0.2886
  172DOPC   C2220931   3.090   4.595   3.626 -0.2426  0.1407  0.0912
  172DOPC   H2R20932   3.136   4.538   3.710 -0.1918 -0.7973 -0.5544
  172DOPC   H2S20933   3.030   4.524   3.566  0.5561  0.4802 -1.1532
  172DOPC    C320934   3.259   4.921   3.401  0.0615  0.0305 -0.0021
  172DOPC    HX20935   3.158   4.968   3.408  0.6789  1.7893 -1.7445
  172DOPC    HY20936   3.306   4.981   3.319 -3.1389  0.4533 -1.7020
  172DOPC   O3120937   3.318   4.937   3.530  0.0753  0.6748 -0.0099
  172DOPC   C3120938   3.455   4.926   3.520 -0.1573 -0.0554 -0.5435
  172DOPC   O3220939   3.513   4.908   3.414  0.1509  0.3413 -0.1152
  172DOPC   C3220940   3.528   4.943   3.654  0.2211 -0.0095  0.1554
  172DOPC   H2X20941   3.514   5.050   3.679  1.1866 -0.0703  1.0398
  172DOPC   H2Y20942   3.486   4.876   3.732 -0.0800  0.0660  0.0561
  172DOPC   C2320943   2.995   4.719   3.669 -0.6047  0.2040  0.4959
  172DOPC   H3R20944   2.921   4.690   3.746 -1.1407 -1.2530 -0.5314
  172DOPC   H3S20945   2.928   4.742   3.584 -0.9916 -1.0747  0.4394
  172DOPC   C2420946   3.067   4.843   3.714 -0.4083 -0.0807 -0.1809
  172DOPC   H4R20947   2.999   4.921   3.755  1.3783  0.7960  1.3131
  172DOPC   H4S20948   3.110   4.887   3.621  0.5340  1.6890  1.0137
  172DOPC   C2520949   3.163   4.819   3.822  0.3511 -0.7135  0.6007
  172DOPC   H5R20950   3.244   4.751   3.789  0.0352 -1.2930  1.0034
  172DOPC   H5S20951   3.107   4.763   3.901  0.8048  2.3313  3.3189
  172DOPC   C2620952   3.230   4.945   3.879  0.2183 -0.1042  0.0089
  172DOPC   H6R20953   3.157   5.023   3.909 -0.9588 -1.1910  0.0681
  172DOPC   H6S20954   3.292   4.991   3.799  0.8653 -2.7000 -1.0888
  172DOPC   C2720955   3.311   4.929   4.001 -0.3531 -0.3086 -0.5538
  172DOPC   H7R20956   3.413   4.910   3.962 -0.3672  1.9622 -1.9499
  172DOPC   H7S20957   3.270   4.842   4.057  0.3846 -1.4949 -1.7891
  172DOPC   C2820958   3.320   5.058   4.099 -0.3277  0.1449  0.1075
  172DOPC   H8R20959   3.358   5.143   4.038  0.4201 -0.1118  0.2079
  172DOPC   H8S20960   3.410   5.019   4.151  0.6895 -0.4205 -1.9885
  172DOPC   C2920961   3.200   5.089   4.190 -0.0509 -0.2448 -0.1270
  172DOPC   H9R20962   3.115   5.142   4.144  1.7786  2.4006 -0.6501
  172DOPC  C21020963   3.196   5.072   4.321 -0.1129  0.5760 -0.1998
  172DOPC  H10R20964   3.100   5.092   4.370 -1.3325 -2.2894 -1.2555
  172DOPC  C21120965   3.305   5.019   4.405  0.1468 -0.5240 -0.6592
  172DOPC  H11R20966   3.402   5.019   4.350  0.5213  0.5089 -0.0227
  172DOPC  H11S20967   3.272   4.915   4.426 -2.2305  0.3914  0.4092
  172DOPC  C21220968   3.325   5.080   4.542 -0.5817  0.4255 -0.0092
  172DOPC  H12R20969   3.360   5.184   4.530  2.8127 -0.7354 -1.4249
  172DOPC  H12S20970   3.406   5.023   4.593 -0.4111  0.5590 -0.1294
  172DOPC  C21320971   3.192   5.065   4.626 -0.3216 -0.0578  0.0043
  172DOPC  H13R20972   3.179   4.956   4.643  1.5869 -0.2246  0.5808
  172DOPC  H13S20973   3.099   5.117   4.593 -2.5139 -1.6478  3.0929
  172DOPC  C21420974   3.211   5.117   4.769  0.6289  0.4029 -0.0268
  172DOPC  H14R20975   3.112   5.103   4.818  1.4821 -0.2835  1.5694
  172DOPC  H14S20976   3.217   5.226   4.753  0.1665  0.4208 -0.1073
  172DOPC  C21520977   3.330   5.056   4.849 -0.1102  0.3711  1.1322
  172DOPC  H15R20978   3.427   5.077   4.798 -0.8094  1.2145  0.0965
  172DOPC  H15S20979   3.319   4.946   4.839 -0.2137  0.2184  2.7277
  172DOPC  C21620980   3.323   5.094   4.997 -0.9074  0.7411 -0.0370
  172DOPC  H16R20981   3.221   5.071   5.033 -0.6531 -0.7996 -0.1879
  172DOPC  H16S20982   3.343   5.203   4.998  1.5080  0.3525 -0.3002
  172DOPC  C21720983   3.435   5.029   5.080  0.1558 -0.1967  1.0224
  172DOPC  H17R20984   3.530   5.030   5.022 -0.8679 -1.0445 -0.7307
  172DOPC  H17S20985   3.413   4.920   5.083 -0.2259 -0.2520 -1.5562
  172DOPC  C21820986   3.460   5.088   5.215 -0.4300  0.2871  0.2839
  172DOPC  H18R20987   3.382   5.053   5.285  2.0081 -2.2721  1.9453
  172DOPC  H18S20988   3.472   5.197   5.197  1.5288  0.1129  0.3277
  172DOPC  H18T20989   3.554   5.052   5.261  0.7580  0.0238 -2.1867
  172DOPC   C3320990   3.682   4.901   3.652 -0.9166 -0.7846 -0.1594
  172DOPC   H3X20991   3.734   4.986   3.602  0.5385  1.2375  4.2383
  172DOPC   H3Y20992   3.699   4.807   3.596  0.0097 -0.1907 -0.9047
  172DOPC   C3420993   3.731   4.879   3.795 -0.3533 -0.0795 -0.6085
  172DOPC   H4X20994   3.835   4.841   3.788 -0.8874 -1.7686  0.0240
  172DOPC   H4Y20995   3.677   4.803   3.855  1.4625 -0.9171  0.0389
  172DOPC   C3520996   3.739   5.000   3.888  0.1652  0.2418  0.2996
  172DOPC   H5X20997   3.632   5.019   3.914 -0.3638 -2.3260  0.2727
  172DOPC   H5Y20998   3.781   5.079   3.823  2.0945 -1.2417 -0.3609
  172DOPC   C3620999   3.842   5.000   3.994  0.2216 -0.1379 -0.2947
  172DOPC   H6X21000   3.938   4.993   3.939 -0.6837 -2.2365 -1.7500
  172DOPC   H6Y21001   3.853   5.086   4.063 -4.6623 -0.4992  1.2963
  172DOPC   C3721002   3.822   4.881   4.092 -0.1406 -0.1884 -0.3993
  172DOPC   H7X21003   3.799   4.791   4.031 -0.2076  0.7814 -1.8469
  172DOPC   H7Y21004   3.914   4.863   4.152 -0.2983  0.9538  0.2091
  172DOPC   C3821005   3.697   4.905   4.190 -0.4551  0.4175  0.5051
  172DOPC   H8X21006   3.615   4.932   4.121 -1.2355  0.9441  1.5976
  172DOPC   H8Y21007   3.714   4.999   4.248  0.9018  1.6865 -1.8128
  172DOPC   C3921008   3.646   4.787   4.271  0.2907 -0.6257  0.4115
  172DOPC   H9X21009   3.617   4.698   4.213 -3.2201 -0.3031  1.4691
  172DOPC  C31021010   3.629   4.772   4.404  0.7430  0.5973  0.3617
  172DOPC  H10X21011   3.603   4.672   4.442 -2.1173  2.0182  2.5228
  172DOPC  C31121012   3.664   4.867   4.510  0.5602 -0.1545 -0.2437
  172DOPC  H11X21013   3.568   4.885   4.564  0.0415 -1.2293 -0.7775
  172DOPC  H11Y21014   3.708   4.962   4.471  1.0890 -0.3924 -0.2302
  172DOPC  C31221015   3.759   4.806   4.617 -0.4039 -0.3007  0.0416
  172DOPC  H12X21016   3.788   4.891   4.682 -1.5975 -0.4747  0.8326
  172DOPC  H12Y21017   3.854   4.767   4.575  1.4271  2.8398  0.9659
  172DOPC  C31321018   3.689   4.702   4.703 -0.1826  0.5733  0.4076
  172DOPC  H13X21019   3.598   4.753   4.741 -0.1545 -0.0724  1.3922
  172DOPC  H13Y21020   3.667   4.614   4.639 -0.5790 -0.4811  1.9460
  172DOPC  C31421021   3.765   4.654   4.826 -0.2278 -0.2891 -0.3158
  172DOPC  H14X21022   3.870   4.631   4.796 -0.0352  0.3722 -0.1519
  172DOPC  H14Y21023   3.775   4.748   4.884  1.6813 -0.9588  0.5217
  172DOPC  C31521024   3.696   4.541   4.911 -0.0363 -0.1579 -0.2863
  172DOPC  H15X21025   3.761   4.490   4.984  0.9969 -1.9760 -2.3438
  172DOPC  H15Y21026   3.673   4.461   4.837  0.0352 -1.7515  1.3399
  172DOPC  C31621027   3.564   4.586   4.969 -0.3374 -0.1686 -0.5665
  172DOPC  H16X21028   3.564   4.684   5.021 -1.4704 -0.2547 -0.3886
  172DOPC  H16Y21029   3.493   4.609   4.887 -0.5118  2.1246  0.1598
  172DOPC  C31721030   3.496   4.487   5.064  0.4146 -0.3285 -0.0963
  172DOPC  H17X21031   3.390   4.517   5.079  0.2823 -0.1630 -1.3006
  172DOPC  H17Y21032   3.499   4.389   5.012 -1.5734 -0.7758  0.5613
  172DOPC  C31821033   3.559   4.477   5.198  0.2868 -0.7826 -0.6513
  172DOPC  H18X21034   3.661   4.436   5.185  0.3014 -0.8050 -0.4711
  172DOPC  H18Y21035   3.561   4.577   5.247 -1.2874 -0.9148 -0.2521
  172DOPC  H18Z21036   3.508   4.410   5.272  1.4997  0.3137  1.2722
  173DOPC     N21037   2.847   2.053   3.470  0.4418  0.6955  0.0085
  173DOPC   C1221038   2.950   2.158   3.441 -1.0907 -0.1615 -0.2453
  173DOPC  H12A21039   2.895   2.239   3.395 -0.2785 -0.6660 -2.2088
  173DOPC  H12B21040   3.014   2.125   3.361  3.2332  0.1359  2.7574
  173DOPC   C1321041   2.761   2.029   3.352 -0.0535 -0.3361 -0.0122
  173DOPC  H13A21042   2.811   1.980   3.270  0.4918 -0.0443  0.1433
  173DOPC  H13B21043   2.676   1.969   3.380  1.5559 -1.2398  3.6357
  173DOPC  H13C21044   2.732   2.125   3.310  2.4272  0.2433 -0.5506
  173DOPC   C1421045   2.774   2.093   3.591 -0.5441  0.4789  0.0120
  173DOPC  H14A21046   2.687   2.030   3.607  0.1131 -0.8214 -1.2495
  173DOPC  H14B21047   2.837   2.078   3.677  1.0776 -1.1826 -1.3876
  173DOPC  H14C21048   2.748   2.198   3.595  1.4547  1.0421 -0.7563
  173DOPC   C1521049   2.908   1.919   3.500 -0.2278 -0.4789 -0.0747
  173DOPC  H15A21050   2.988   1.936   3.572 -0.7606  1.3062  0.1467
  173DOPC  H15B21051   2.941   1.866   3.412  1.0359  1.1178 -0.6186
  173DOPC  H15C21052   2.832   1.859   3.548 -0.3899 -0.5345 -0.3974
  173DOPC   C1121053   3.034   2.204   3.562 -0.3904  0.0708  0.2959
  173DOPC  H11A21054   3.098   2.288   3.526 -0.1655 -0.6865 -1.1536
  173DOPC  H11B21055   2.971   2.246   3.643 -1.1821  0.8186 -0.6939
  173DOPC     P21056   3.265   2.079   3.570  0.4005 -0.4858 -0.0228
  173DOPC   O1321057   3.288   2.159   3.442 -0.0006  0.3694  0.0357
  173DOPC   O1421058   3.309   1.935   3.570 -0.3766  0.3551  0.4076
  173DOPC   O1221059   3.109   2.093   3.607  0.8163 -0.4968 -0.2821
  173DOPC   O1121060   3.337   2.157   3.686  0.1353  0.8639 -0.1780
  173DOPC    C121061   3.271   2.151   3.810  0.0749 -0.2876  0.0126
  173DOPC    HA21062   3.238   2.051   3.845 -0.7521  0.2830  0.9028
  173DOPC    HB21063   3.188   2.225   3.802  0.0116 -0.2514  0.8768
  173DOPC    C221064   3.368   2.187   3.928 -0.6079  0.5241  0.4741
  173DOPC    HS21065   3.418   2.281   3.894 -1.0423  0.4895 -0.2965
  173DOPC   O2121066   3.457   2.077   3.952  0.4419 -0.2853 -0.5417
  173DOPC   C2121067   3.585   2.113   3.980  1.1435 -0.0532  0.2382
  173DOPC   O2221068   3.616   2.225   4.016  0.2592 -0.2997  0.2929
  173DOPC   C2221069   3.669   1.984   3.968  0.0650 -1.1236 -0.2910
  173DOPC   H2R21070   3.768   2.024   3.938  0.5124 -1.9713  0.0158
  173DOPC   H2S21071   3.642   1.911   3.889 -0.3436 -0.9159 -0.3452
  173DOPC    C321072   3.286   2.224   4.054 -0.2235 -0.0970  0.7077
  173DOPC    HX21073   3.220   2.137   4.076  1.6904 -1.0994  2.9570
  173DOPC    HY21074   3.223   2.312   4.031 -1.4375 -0.7924  1.2315
  173DOPC   O3121075   3.380   2.232   4.165  0.1042 -0.6095 -0.2048
  173DOPC   C3121076   3.416   2.354   4.193 -0.7257 -0.2771 -0.0178
  173DOPC   O3221077   3.373   2.451   4.132 -0.3876 -0.3555  0.1991
  173DOPC   C3221078   3.528   2.348   4.297  0.1983  0.3263 -0.6028
  173DOPC   H2X21079   3.484   2.305   4.389 -0.0135 -0.2357 -0.9606
  173DOPC   H2Y21080   3.606   2.280   4.256 -0.1474  0.2275 -1.1021
  173DOPC   C2321081   3.687   1.921   4.110 -0.3504  0.0290  0.6225
  173DOPC   H3R21082   3.713   2.002   4.181 -1.4034 -0.2358  1.3414
  173DOPC   H3S21083   3.760   1.839   4.103 -0.4958 -0.1124  0.7453
  173DOPC   C2421084   3.563   1.860   4.169  0.4639 -0.4976 -0.1238
  173DOPC   H4R21085   3.503   1.794   4.103 -0.6565 -0.6002  0.9588
  173DOPC   H4S21086   3.491   1.944   4.170  0.5638 -0.2865 -2.8481
  173DOPC   C2521087   3.587   1.790   4.307  0.2276 -0.0178  0.4678
  173DOPC   H5R21088   3.665   1.712   4.293  0.9056  1.0531 -2.4781
  173DOPC   H5S21089   3.493   1.736   4.329  0.3363 -0.4398 -0.0766
  173DOPC   C2621090   3.614   1.886   4.426  0.3541 -0.4220 -0.0953
  173DOPC   H6R21091   3.706   1.942   4.399 -0.1618 -0.0963 -1.2700
  173DOPC   H6S21092   3.626   1.831   4.522  0.3582 -1.1882 -0.5292
  173DOPC   C2721093   3.506   1.994   4.451 -0.0827  0.8091  0.2302
  173DOPC   H7R21094   3.411   1.937   4.456  1.1604 -1.4870 -0.7848
  173DOPC   H7S21095   3.500   2.064   4.365  3.5051  3.0725  1.5700
  173DOPC   C2821096   3.523   2.065   4.583 -0.5425  0.2634 -0.1995
  173DOPC   H8R21097   3.519   1.990   4.665 -0.0108  1.1792  0.6898
  173DOPC   H8S21098   3.433   2.128   4.598 -0.0315  0.8007  0.7178
  173DOPC   C2921099   3.641   2.155   4.580  0.1637  0.2823 -0.1362
  173DOPC   H9R21100   3.703   2.150   4.489 -1.0563 -1.9002 -0.9251
  173DOPC  C21021101   3.680   2.235   4.681 -0.7227 -0.1106  0.9598
  173DOPC  H10R21102   3.765   2.302   4.665 -0.7580 -0.4965 -1.1237
  173DOPC  C21121103   3.617   2.263   4.814  0.2256  0.2920  0.9026
  173DOPC  H11R21104   3.527   2.198   4.828 -0.0421  0.0603 -1.4520
  173DOPC  H11S21105   3.576   2.365   4.802 -0.0604  0.0031 -0.9585
  173DOPC  C21221106   3.710   2.243   4.933 -0.0025 -0.1777  0.6544
  173DOPC  H12R21107   3.675   2.286   5.029 -1.1165  0.2276  0.0810
  173DOPC  H12S21108   3.798   2.306   4.908  0.2609 -1.1348 -0.9812
  173DOPC  C21321109   3.767   2.101   4.953 -0.4185 -0.2855  0.7758
  173DOPC  H13R21110   3.743   2.026   4.874  1.0753 -3.1704  2.9018
  173DOPC  H13S21111   3.711   2.069   5.043 -1.4277  0.7580  0.5383
  173DOPC  C21421112   3.924   2.104   4.973  0.7701 -0.3985 -0.3828
  173DOPC  H14R21113   3.955   2.003   5.005  1.1657 -0.1194  0.1362
  173DOPC  H14S21114   3.943   2.171   5.060 -0.7707  0.4103 -0.6249
  173DOPC  C21521115   4.011   2.151   4.855  0.7687 -0.0803  0.3782
  173DOPC  H15R21116   3.999   2.259   4.835  0.3834 -0.3408 -0.9178
  173DOPC  H15S21117   3.965   2.099   4.767 -0.2166 -1.1185  1.4654
  173DOPC  C21621118   4.158   2.106   4.888 -0.1649 -0.4583 -0.6392
  173DOPC  H16R21119   4.184   2.095   4.996  0.3241 -2.5248 -0.9127
  173DOPC  H16S21120   4.221   2.187   4.848 -0.4893 -0.0530 -0.3384
  173DOPC  C21721121   4.182   1.969   4.823  0.7775  0.4852 -0.3914
  173DOPC  H17R21122   4.169   1.986   4.714  0.4283  2.4300 -0.0902
  173DOPC  H17S21123   4.094   1.909   4.857  2.4875 -1.2653  1.1929
  173DOPC  C21821124   4.310   1.897   4.864  0.5264  0.2180 -0.1206
  173DOPC  H18R21125   4.314   1.855   4.967 -1.2621 -1.0472 -0.5257
  173DOPC  H18S21126   4.399   1.962   4.847  1.2472 -1.0857 -1.6690
  173DOPC  H18T21127   4.332   1.814   4.793  1.2805  1.4026 -1.3040
  173DOPC   C3321128   3.605   2.481   4.340  0.2928  0.0904 -0.2830
  173DOPC   H3X21129   3.666   2.506   4.250 -0.0882  1.2169 -0.2366
  173DOPC   H3Y21130   3.682   2.447   4.413  1.9827 -0.3066 -2.1627
  173DOPC   C3421131   3.514   2.587   4.395 -0.7102 -0.5733  0.2446
  173DOPC   H4X21132   3.448   2.531   4.465  1.9591 -2.5229  1.3702
  173DOPC   H4Y21133   3.455   2.641   4.317  2.3644  2.6373 -0.1176
  173DOPC   C3521134   3.578   2.705   4.478  0.1133 -0.6066 -0.1379
  173DOPC   H5X21135   3.579   2.800   4.421 -0.2972 -0.5802 -0.1002
  173DOPC   H5Y21136   3.685   2.677   4.489  1.2189  3.0594 -0.5153
  173DOPC   C3621137   3.515   2.725   4.611 -0.3364 -0.0298  0.1508
  173DOPC   H6X21138   3.415   2.771   4.607  0.8764  2.6719 -1.5062
  173DOPC   H6Y21139   3.510   2.624   4.657  2.4659 -0.3894 -0.1685
  173DOPC   C3721140   3.606   2.805   4.706 -0.2840  0.0191  0.5324
  173DOPC   H7X21141   3.699   2.747   4.725  0.0200 -0.3847 -1.8673
  173DOPC   H7Y21142   3.643   2.898   4.658  2.3547 -1.0289  0.3802
  173DOPC   C3821143   3.544   2.829   4.838  0.6572  0.5252  0.0767
  173DOPC   H8X21144   3.605   2.871   4.920  3.2581  0.3374 -1.6471
  173DOPC   H8Y21145   3.518   2.729   4.879 -1.4702  1.2988  0.7577
  173DOPC   C3921146   3.416   2.916   4.814 -0.2907 -0.0409  0.1566
  173DOPC   H9X21147   3.408   2.960   4.714 -2.1898 -0.6140  0.0287
  173DOPC  C31021148   3.319   2.931   4.901 -0.2747 -0.5523 -0.5219
  173DOPC  H10X21149   3.231   2.984   4.864 -0.2588 -1.0938 -1.3673
  173DOPC  C31121150   3.320   2.866   5.041  0.1199  0.2706  0.4487
  173DOPC  H11X21151   3.411   2.807   5.067 -0.2587  0.5881  2.6747
  173DOPC  H11Y21152   3.233   2.796   5.044  0.4732 -0.1459  1.7565
  173DOPC  C31221153   3.297   2.963   5.158 -0.3697  0.4073 -0.7038
  173DOPC  H12X21154   3.190   2.992   5.150 -0.9524 -0.2279  3.0414
  173DOPC  H12Y21155   3.366   3.050   5.150 -0.7781  0.7793 -0.1823
  173DOPC  C31321156   3.319   2.908   5.300 -0.6364  0.5773  0.4157
  173DOPC  H13X21157   3.288   2.986   5.372 -0.2445  1.0486  0.0788
  173DOPC  H13Y21158   3.247   2.825   5.313 -1.1729  0.1997 -3.5366
  173DOPC  C31421159   3.463   2.863   5.334  0.0108 -0.1665 -0.4586
  173DOPC  H14X21160   3.496   2.771   5.281 -0.1578  0.9320 -2.6247
  173DOPC  H14Y21161   3.535   2.945   5.315 -0.4215  0.4216  0.3697
  173DOPC  C31521162   3.476   2.831   5.482 -0.6486 -0.0182  0.2257
  173DOPC  H15X21163   3.469   2.917   5.552  1.4805 -2.7612  4.1755
  173DOPC  H15Y21164   3.577   2.788   5.500 -0.1552  0.0196 -2.1037
  173DOPC  C31621165   3.372   2.741   5.529 -0.3820 -0.0216  0.7443
  173DOPC  H16X21166   3.275   2.796   5.527 -0.5233 -0.0714 -3.3273
  173DOPC  H16Y21167   3.347   2.668   5.449 -0.0069  0.8296 -0.1708
  173DOPC  C31721168   3.401   2.670   5.665 -0.1126  0.2402  0.1530
  173DOPC  H17X21169   3.304   2.627   5.696 -0.6430  2.7079  2.1930
  173DOPC  H17Y21170   3.486   2.598   5.656 -0.4207 -0.4635  2.3564
  173DOPC  C31821171   3.432   2.771   5.772  0.0999 -0.0977  0.0896
  173DOPC  H18X21172   3.515   2.837   5.741  1.0880 -0.9710  0.8084
  173DOPC  H18Y21173   3.337   2.822   5.800  1.1876  1.1781  1.6537
  173DOPC  H18Z21174   3.468   2.715   5.861  0.6876 -1.2835 -0.8712
  174DOPC     N21175   6.697   2.825   2.116  0.0091  0.0557  0.5295
  174DOPC   C1221176   6.545   2.872   2.107  0.7388 -0.2932  0.5441
  174DOPC  H12A21177   6.483   2.793   2.067 -1.9941  2.0825 -0.2828
  174DOPC  H12B21178   6.531   2.945   2.028 -2.8898 -1.2257  0.1422
  174DOPC   C1321179   6.721   2.740   1.989  0.3408  0.2845 -0.1852
  174DOPC  H13A21180   6.822   2.706   2.001  0.8537  1.9592  0.6448
  174DOPC  H13B21181   6.662   2.650   1.986  0.8979 -0.0499 -2.0308
  174DOPC  H13C21182   6.700   2.806   1.906 -3.6388 -0.8870 -0.3441
  174DOPC   C1421183   6.717   2.737   2.235 -0.0954  0.4831  0.5048
  174DOPC  H14A21184   6.741   2.797   2.321  2.7027  1.5369 -0.9074
  174DOPC  H14B21185   6.628   2.676   2.241  0.3679 -0.6202 -2.2984
  174DOPC  H14C21186   6.802   2.677   2.208 -0.2661  0.2316  0.5227
  174DOPC   C1521187   6.792   2.939   2.124 -0.0383 -0.5192 -0.1487
  174DOPC  H15A21188   6.791   2.987   2.220 -0.2900  1.7964 -1.2285
  174DOPC  H15B21189   6.769   3.014   2.050  0.1547 -0.5451 -0.2372
  174DOPC  H15C21190   6.889   2.901   2.095  0.3285  1.8160 -2.3575
  174DOPC   C1121191   6.482   2.933   2.235  0.6843  0.4518 -0.2914
  174DOPC  H11A21192   6.544   3.017   2.271 -1.1935  1.4878  0.6578
  174DOPC  H11B21193   6.381   2.973   2.212  0.5562 -0.7652 -2.0853
  174DOPC     P21194   6.373   2.709   2.338 -0.0080 -0.1247 -0.3112
  174DOPC   O1321195   6.411   2.608   2.235  0.4112 -0.1322  0.0158
  174DOPC   O1421196   6.234   2.761   2.328  0.4282  0.5117 -0.6589
  174DOPC   O1221197   6.472   2.834   2.345  0.3468 -0.0074 -0.1550
  174DOPC   O1121198   6.405   2.629   2.474  0.1819  0.0925 -0.2793
  174DOPC    C121199   6.297   2.557   2.543  0.1204 -0.1174 -0.4705
  174DOPC    HA21200   6.345   2.462   2.575  0.5375 -0.5907 -2.3948
  174DOPC    HB21201   6.211   2.526   2.480  0.0778 -0.9354 -0.0246
  174DOPC    C221202   6.244   2.630   2.667 -0.0106  0.0404  0.1111
  174DOPC    HS21203   6.224   2.734   2.632  0.6817  1.0996  2.6693
  174DOPC   O2121204   6.345   2.632   2.769 -0.4831 -0.2398 -0.0762
  174DOPC   C2121205   6.363   2.753   2.839  0.4740  0.8699  0.1478
  174DOPC   O2221206   6.304   2.855   2.818  0.1196  0.1805 -0.1452
  174DOPC   C2221207   6.461   2.723   2.952 -0.5357 -0.8471 -0.8515
  174DOPC   H2R21208   6.543   2.662   2.909  0.0953  0.0110 -0.9043
  174DOPC   H2S21209   6.409   2.676   3.038  0.1081  1.3742  0.8792
  174DOPC    C321210   6.116   2.573   2.730  0.0715 -0.5927  0.5167
  174DOPC    HX21211   6.135   2.473   2.775  1.5574 -0.3131  0.5856
  174DOPC    HY21212   6.044   2.568   2.646  0.3708 -0.3665  0.2471
  174DOPC   O3121213   6.072   2.664   2.842 -0.3791  0.1655  0.1546
  174DOPC   C3121214   5.956   2.647   2.889 -0.3717 -0.8977  0.4506
  174DOPC   O3221215   5.884   2.550   2.872  0.1724  0.1272  0.6685
  174DOPC   C3221216   5.919   2.786   2.959  0.0996 -0.0822  0.6147
  174DOPC   H2X21217   5.960   2.866   2.892  0.0851 -0.9305 -0.4408
  174DOPC   H2Y21218   5.808   2.789   2.959  0.0829 -0.6449  0.6817
  174DOPC   C2321219   6.520   2.851   3.015 -0.5124 -0.1417  0.0084
  174DOPC   H3R21220   6.561   2.926   2.945 -1.9890  1.2062  0.5334
  174DOPC   H3S21221   6.601   2.834   3.090  0.1861  0.4091 -0.6159
  174DOPC   C2421222   6.415   2.931   3.093 -0.4081 -0.4727 -0.3147
  174DOPC   H4R21223   6.311   2.922   3.055 -0.8792 -0.3699  0.9245
  174DOPC   H4S21224   6.440   3.039   3.085 -1.4478 -0.2457 -0.6779
  174DOPC   C2521225   6.431   2.909   3.246 -0.3150  0.0486  0.3567
  174DOPC   H5R21226   6.538   2.898   3.276 -0.5769  1.2787  1.8265
  174DOPC   H5S21227   6.371   2.824   3.284  0.8359 -0.1478  1.8585
  174DOPC   C2621228   6.384   3.024   3.334 -0.5097  0.2873 -0.0890
  174DOPC   H6R21229   6.446   3.111   3.305  1.0013 -0.7249 -0.0224
  174DOPC   H6S21230   6.409   3.000   3.440  1.3521  0.4808 -0.4461
  174DOPC   C2721231   6.242   3.069   3.314 -0.0421  0.7709  0.0068
  174DOPC   H7R21232   6.184   2.995   3.374  0.6936  0.5971  0.5242
  174DOPC   H7S21233   6.200   3.057   3.212  0.4907 -0.4785 -0.0803
  174DOPC   C2821234   6.219   3.219   3.352  0.6435 -0.2154  1.3734
  174DOPC   H8R21235   6.285   3.248   3.437  1.1213  2.7245  0.0911
  174DOPC   H8S21236   6.114   3.225   3.387  0.1914 -1.0922  0.2186
  174DOPC   C2921237   6.234   3.309   3.228  0.0267 -1.0528  0.3732
  174DOPC   H9R21238   6.313   3.283   3.157  1.7148  0.9247  1.4145
  174DOPC  C21021239   6.158   3.422   3.211 -0.9809  0.1273  0.1615
  174DOPC  H10R21240   6.172   3.484   3.122 -1.6295 -0.8158 -0.6136
  174DOPC  C21121241   6.058   3.468   3.308  0.2761 -0.0748  0.1645
  174DOPC  H11R21242   5.989   3.385   3.331 -0.1286  0.4629  0.9517
  174DOPC  H11S21243   5.987   3.539   3.259  0.0674 -1.3465 -1.4394
  174DOPC  C21221244   6.117   3.527   3.436  0.3173 -0.1679 -0.0716
  174DOPC  H12R21245   6.198   3.599   3.413 -0.5680  0.7886 -0.2940
  174DOPC  H12S21246   6.174   3.453   3.496  0.3848  0.2334  0.3538
  174DOPC  C21321247   6.014   3.590   3.525  0.0088  0.3826 -0.6651
  174DOPC  H13R21248   5.949   3.662   3.470  0.7945  2.9099  1.5175
  174DOPC  H13S21249   6.063   3.640   3.611 -0.2116 -0.3919 -0.0761
  174DOPC  C21421250   5.917   3.486   3.588  0.0055  0.9363 -0.1747
  174DOPC  H14R21251   5.962   3.386   3.603 -2.3619 -0.3166 -0.9332
  174DOPC  H14S21252   5.841   3.484   3.508 -0.4681 -0.1422  0.2778
  174DOPC  C21521253   5.848   3.524   3.723  0.7000 -0.4504  0.0991
  174DOPC  H15R21254   5.766   3.451   3.736  0.5674 -0.0645  1.6149
  174DOPC  H15S21255   5.798   3.619   3.697 -2.5930 -1.7942  1.0526
  174DOPC  C21621256   5.942   3.532   3.842  0.0626  0.0763  0.0933
  174DOPC  H16R21257   6.018   3.611   3.824  0.4302  0.1912  1.9399
  174DOPC  H16S21258   5.992   3.433   3.852 -1.5817 -0.7487  0.6321
  174DOPC  C21721259   5.862   3.548   3.974 -0.2539  0.2649  0.4232
  174DOPC  H17R21260   5.785   3.468   3.966 -0.7568  0.7934 -0.0402
  174DOPC  H17S21261   5.808   3.645   3.970  0.9086  0.9245  0.2485
  174DOPC  C21821262   5.936   3.540   4.100  0.4995 -0.4305 -0.4578
  174DOPC  H18R21263   6.026   3.604   4.107  0.3976 -0.4396  1.8941
  174DOPC  H18S21264   5.970   3.436   4.115 -0.7394 -0.6222  1.4267
  174DOPC  H18T21265   5.882   3.566   4.194  2.6964  0.3531  0.6607
  174DOPC   C3321266   5.978   2.802   3.096 -0.3795  0.3707 -0.4008
  174DOPC   H3X21267   5.987   2.906   3.135 -2.5488 -0.0838  1.5404
  174DOPC   H3Y21268   6.083   2.767   3.109  0.2773  2.4519  0.2913
  174DOPC   C3421269   5.887   2.729   3.205 -0.5049 -0.5891 -1.0591
  174DOPC   H4X21270   5.896   2.622   3.176  1.4787 -0.5432 -0.7162
  174DOPC   H4Y21271   5.780   2.757   3.204 -0.4307 -0.0783  0.8274
  174DOPC   C3521272   5.951   2.742   3.345  0.1832  0.0339 -0.5820
  174DOPC   H5X21273   6.061   2.734   3.341  0.2285  0.0035  0.4658
  174DOPC   H5Y21274   5.926   2.654   3.408 -0.1291 -1.5747 -2.8190
  174DOPC   C3621275   5.901   2.863   3.426 -0.7948  0.2955  0.3479
  174DOPC   H6X21276   5.947   2.956   3.388  0.6802 -0.9747 -1.0816
  174DOPC   H6Y21277   5.791   2.870   3.414 -0.7683 -0.3290 -0.3505
  174DOPC   C3721278   5.940   2.857   3.579 -0.1450  0.8350 -0.1149
  174DOPC   H7X21279   5.861   2.800   3.632 -0.5235  1.7083  0.2785
  174DOPC   H7Y21280   6.036   2.802   3.585  1.0048  2.1315 -3.7408
  174DOPC   C3821281   5.957   2.997   3.646  0.0436  0.0626 -0.2981
  174DOPC   H8X21282   6.055   3.036   3.611  0.6509  0.0185  1.2668
  174DOPC   H8Y21283   5.966   2.971   3.754  0.5692 -1.5686 -0.7142
  174DOPC   C3921284   5.844   3.085   3.605 -0.0512 -0.3138  0.6968
  174DOPC   H9X21285   5.864   3.136   3.509  1.1163 -0.5114  0.8274
  174DOPC  C31021286   5.729   3.103   3.673 -0.1817 -0.4281  0.3954
  174DOPC  H10X21287   5.678   3.195   3.641  1.2569  0.4712  0.5820
  174DOPC  C31121288   5.692   3.044   3.811 -0.5179 -0.2047  0.1047
  174DOPC  H11X21289   5.702   2.933   3.817 -0.8839 -0.3044 -0.8787
  174DOPC  H11Y21290   5.583   3.064   3.824 -0.6740  0.0026 -1.3400
  174DOPC  C31221291   5.778   3.110   3.920 -0.5756 -0.2456  0.5571
  174DOPC  H12X21292   5.778   3.221   3.918 -1.0169 -0.2484  0.1043
  174DOPC  H12Y21293   5.885   3.081   3.927  0.8777  4.4878  2.5022
  174DOPC  C31321294   5.711   3.069   4.050  0.6670  0.1458  0.0750
  174DOPC  H13X21295   5.605   3.102   4.046 -0.2452 -2.2222  2.2520
  174DOPC  H13Y21296   5.706   2.959   4.061 -1.1014  0.1841 -0.0933
  174DOPC  C31421297   5.771   3.130   4.177  0.3599  0.3306  0.6197
  174DOPC  H14X21298   5.869   3.079   4.185 -0.1161 -1.4104 -2.7341
  174DOPC  H14Y21299   5.782   3.239   4.160  0.1739  0.4893  1.4875
  174DOPC  C31521300   5.688   3.114   4.308  0.1819 -0.4040  0.1951
  174DOPC  H15X21301   5.660   3.006   4.312  0.4377 -0.5266 -0.9084
  174DOPC  H15Y21302   5.599   3.178   4.291 -0.2957 -1.6512 -2.6396
  174DOPC  C31621303   5.751   3.151   4.439 -0.2670 -0.1127 -0.0320
  174DOPC  H16X21304   5.682   3.136   4.525 -0.7083  3.3854  0.3586
  174DOPC  H16Y21305   5.831   3.076   4.458 -1.5368 -1.5105 -0.0031
  174DOPC  C31721306   5.814   3.291   4.447  0.0781 -0.2150  0.5210
  174DOPC  H17X21307   5.869   3.321   4.354 -0.8803 -0.8898 -0.2766
  174DOPC  H17Y21308   5.736   3.370   4.452 -0.2575 -0.6040  1.8010
  174DOPC  C31821309   5.919   3.332   4.545 -0.0018  0.4258  0.7018
  174DOPC  H18X21310   5.978   3.247   4.585 -1.3895 -0.2464  1.3898
  174DOPC  H18Y21311   5.984   3.414   4.508 -1.7624  1.3594 -0.4450
  174DOPC  H18Z21312   5.863   3.370   4.634  0.7523  1.6808  0.6645
  175DOPC     N21313   3.340   6.101   2.565 -0.0406 -0.5044 -0.5408
  175DOPC   C1221314   3.383   6.190   2.682 -0.2006 -0.2601 -0.5045
  175DOPC  H12A21315   3.301   6.196   2.752  0.9982 -0.0768  0.9172
  175DOPC  H12B21316   3.397   6.285   2.634 -3.3877  0.5176 -0.1243
  175DOPC   C1321317   3.287   5.971   2.618  0.2720 -0.1706  0.1047
  175DOPC  H13A21318   3.186   5.981   2.657  1.3094  2.6131  2.4371
  175DOPC  H13B21319   3.302   5.886   2.553  1.1392  0.0186  0.0565
  175DOPC  H13C21320   3.344   5.948   2.707 -1.8274  1.3556  1.9730
  175DOPC   C1421321   3.457   6.075   2.478  0.8048  0.8620 -0.4675
  175DOPC  H14A21322   3.486   6.171   2.436  0.1631  1.0385 -0.5109
  175DOPC  H14B21323   3.536   6.021   2.528  0.5717  0.1347 -0.8700
  175DOPC  H14C21324   3.427   6.008   2.399 -0.4625 -0.8097  1.3647
  175DOPC   C1521325   3.235   6.164   2.478 -0.0878 -0.5200  0.5652
  175DOPC  H15A21326   3.142   6.181   2.530 -0.6658 -3.5492  0.6973
  175DOPC  H15B21327   3.213   6.095   2.399  1.7660 -0.7338  0.1822
  175DOPC  H15C21328   3.272   6.254   2.432 -0.0369 -1.6237 -1.6528
  175DOPC   C1121329   3.505   6.155   2.768 -0.3967  0.0518  0.1465
  175DOPC  H11A21330   3.595   6.139   2.705 -0.4490 -0.6904  0.2428
  175DOPC  H11B21331   3.523   6.240   2.836  2.4996 -0.1761 -0.2067
  175DOPC     P21332   3.416   6.030   2.978  0.0301  0.3138  0.0283
  175DOPC   O1321333   3.382   5.889   3.015 -0.4795 -0.4996  0.1825
  175DOPC   O1421334   3.302   6.120   2.978  0.3911  0.2331  0.4640
  175DOPC   O1221335   3.481   6.032   2.841 -0.0497 -0.2080  0.7116
  175DOPC   O1121336   3.533   6.095   3.071 -0.0205 -0.3573 -0.2958
  175DOPC    C121337   3.665   6.051   3.068  0.1056  0.0798 -0.5859
  175DOPC    HA21338   3.702   6.049   2.964  1.5590  0.4730 -0.0973
  175DOPC    HB21339   3.676   5.949   3.110  2.2455  0.6846  0.4504
  175DOPC    C221340   3.748   6.143   3.156 -0.5237 -0.1797  0.2280
  175DOPC    HS21341   3.853   6.122   3.127  0.1332 -1.0075  2.9174
  175DOPC   O2121342   3.716   6.114   3.293  0.3055 -0.2571  0.1860
  175DOPC   C2121343   3.797   6.040   3.358 -0.0779  0.2954 -0.3521
  175DOPC   O2221344   3.905   5.997   3.315  0.8247 -0.5864 -0.0950
  175DOPC   C2221345   3.733   5.987   3.488  0.3005  0.0738  0.1156
  175DOPC   H2R21346   3.653   5.917   3.456 -1.6378  1.7453  1.0504
  175DOPC   H2S21347   3.694   6.076   3.542  0.8792  1.7820 -2.1186
  175DOPC    C321348   3.712   6.287   3.130  0.1675 -0.4560  0.1979
  175DOPC    HX21349   3.602   6.299   3.137  0.2353  0.4298 -0.1930
  175DOPC    HY21350   3.714   6.294   3.019  0.4857 -0.2236  0.2186
  175DOPC   O3121351   3.784   6.390   3.204  0.3995  0.1936  0.2031
  175DOPC   C3121352   3.864   6.469   3.135  0.2444  0.8419 -0.4554
  175DOPC   O3221353   3.855   6.491   3.017 -0.4566 -0.0475  0.1173
  175DOPC   C3221354   3.970   6.524   3.228  0.3954 -0.4090  0.0891
  175DOPC   H2X21355   3.922   6.605   3.288  0.3741 -1.6857  1.8992
  175DOPC   H2Y21356   4.008   6.450   3.301  0.0446 -0.9132 -0.2344
  175DOPC   C2321357   3.838   5.917   3.579  0.0170  0.4500  0.1490
  175DOPC   H3R21358   3.935   5.971   3.587 -0.1090  0.5990  0.6937
  175DOPC   H3S21359   3.857   5.814   3.540 -2.6950  0.2421 -0.8410
  175DOPC   C2421360   3.782   5.890   3.717 -1.2181 -0.1255 -0.1507
  175DOPC   H4R21361   3.703   5.812   3.708 -3.5661  2.0744  0.0447
  175DOPC   H4S21362   3.736   5.983   3.757 -2.1577 -0.0889 -1.2597
  175DOPC   C2521363   3.890   5.837   3.812 -0.0663  0.2169  0.1160
  175DOPC   H5R21364   3.976   5.908   3.807  1.4260 -1.5120  0.2052
  175DOPC   H5S21365   3.936   5.740   3.785 -0.4269  0.4452 -1.4536
  175DOPC   C2621366   3.841   5.850   3.960 -0.1166 -0.5066 -0.0514
  175DOPC   H6R21367   3.766   5.770   3.980  2.0133 -2.2066  1.6793
  175DOPC   H6S21368   3.795   5.950   3.976 -1.7482 -1.2963  0.4255
  175DOPC   C2721369   3.957   5.841   4.064 -0.3488  0.3961  0.7620
  175DOPC   H7R21370   4.030   5.922   4.041  0.8954 -1.1245 -0.9149
  175DOPC   H7S21371   4.013   5.746   4.048 -2.7355 -0.9708  0.1725
  175DOPC   C2821372   3.911   5.859   4.203  0.3211  0.5163 -0.4276
  175DOPC   H8R21373   3.804   5.831   4.197 -0.3341  1.8328  2.8872
  175DOPC   H8S21374   3.937   5.961   4.239  1.0327 -0.0319  0.6770
  175DOPC   C2921375   3.982   5.755   4.293 -0.9521 -0.5935 -0.4125
  175DOPC   H9R21376   4.076   5.709   4.257 -0.7032  0.5015 -1.2330
  175DOPC  C21021377   3.932   5.726   4.416 -0.1072 -0.0259 -0.1753
  175DOPC  H10R21378   3.978   5.655   4.486 -2.1623 -1.8550 -0.5740
  175DOPC  C21121379   3.808   5.786   4.487  0.1492  0.1047 -0.2316
  175DOPC  H11R21380   3.750   5.695   4.514  0.2130  0.3452  0.7625
  175DOPC  H11S21381   3.760   5.849   4.410 -1.2008  0.6757  1.0190
  175DOPC  C21221382   3.838   5.876   4.609 -0.3419  0.3768 -0.0783
  175DOPC  H12R21383   3.900   5.816   4.679 -0.6282  0.3745  0.1782
  175DOPC  H12S21384   3.745   5.894   4.667 -2.0979  0.1505 -2.6603
  175DOPC  C21321385   3.916   6.008   4.586 -0.6647  0.0215  0.4553
  175DOPC  H13R21386   4.008   5.989   4.527  0.2575 -1.8617  2.4015
  175DOPC  H13S21387   3.961   6.034   4.683 -1.1052 -0.1841  0.7195
  175DOPC  C21421388   3.825   6.120   4.525  0.4382  0.9744 -0.2160
  175DOPC  H14R21389   3.745   6.086   4.455  1.1209 -2.4030  0.4300
  175DOPC  H14S21390   3.886   6.185   4.460  1.3671  0.4291  0.0976
  175DOPC  C21521391   3.752   6.190   4.643 -0.9210  0.2930 -0.0925
  175DOPC  H15R21392   3.823   6.210   4.727  0.6709  2.1050 -1.7570
  175DOPC  H15S21393   3.683   6.108   4.672 -0.7131 -0.1198 -0.7460
  175DOPC  C21621394   3.676   6.315   4.617  0.6727  0.8376  0.3662
  175DOPC  H16R21395   3.617   6.347   4.706 -0.5349  0.7639 -0.3874
  175DOPC  H16S21396   3.605   6.280   4.540  1.4317  0.9068 -0.3781
  175DOPC  C21721397   3.746   6.437   4.567 -0.6428 -0.4055 -0.0390
  175DOPC  H17R21398   3.667   6.511   4.540 -0.1371 -0.1373 -0.8094
  175DOPC  H17S21399   3.788   6.413   4.467 -1.6722 -0.8192 -0.3873
  175DOPC  C21821400   3.857   6.490   4.660  0.4068 -1.2027 -0.0653
  175DOPC  H18R21401   3.941   6.419   4.673  2.5080  1.0983 -0.1680
  175DOPC  H18S21402   3.817   6.528   4.757  0.5654 -0.8795 -0.1255
  175DOPC  H18T21403   3.912   6.576   4.615  0.9479 -2.3153 -1.5792
  175DOPC   C3321404   4.096   6.585   3.159 -0.2218 -0.1112  0.2566
  175DOPC   H3X21405   4.058   6.672   3.100 -0.7216 -0.0172  0.7115
  175DOPC   H3Y21406   4.140   6.515   3.085  0.6458  1.8765 -1.2027
  175DOPC   C3421407   4.206   6.620   3.262  0.1101 -1.0890 -0.4168
  175DOPC   H4X21408   4.304   6.639   3.214  0.9648  3.4680  2.4916
  175DOPC   H4Y21409   4.214   6.532   3.330  1.2571 -1.9246 -1.5960
  175DOPC   C3521410   4.185   6.750   3.344 -0.0841  0.6996  0.4589
  175DOPC   H5X21411   4.089   6.738   3.398 -2.2657  2.2203 -2.7360
  175DOPC   H5Y21412   4.173   6.836   3.275 -1.0264 -1.7730 -2.7744
  175DOPC   C3621413   4.296   6.782   3.445 -0.5409  0.8869 -0.2081
  175DOPC   H6X21414   4.393   6.794   3.392  1.1157  0.5221  2.5724
  175DOPC   H6Y21415   4.252   6.867   3.502  1.9844  1.2406  1.3908
  175DOPC   C3721416   4.335   6.665   3.546  0.3481 -0.0862 -0.3995
  175DOPC   H7X21417   4.357   6.576   3.483  0.3154 -2.0186  2.1173
  175DOPC   H7Y21418   4.427   6.687   3.604 -1.9807 -0.0637  3.6332
  175DOPC   C3821419   4.227   6.637   3.648  0.8384  0.6633 -0.0513
  175DOPC   H8X21420   4.249   6.544   3.704  1.7332  1.0993  0.3345
  175DOPC   H8Y21421   4.132   6.618   3.594 -0.2734 -0.4206  2.1777
  175DOPC   C3921422   4.196   6.750   3.744 -0.1982 -0.7664  0.7013
  175DOPC   H9X21423   4.149   6.838   3.700  1.1647  0.3468  1.3889
  175DOPC  C31021424   4.215   6.752   3.875  0.5297 -0.7521  0.1600
  175DOPC  H10X21425   4.204   6.846   3.931 -0.9659 -0.7875 -0.0367
  175DOPC  C31121426   4.283   6.634   3.947 -0.3172 -0.1703 -0.3676
  175DOPC  H11X21427   4.349   6.574   3.881 -0.2903  0.3136 -0.7916
  175DOPC  H11Y21428   4.210   6.562   3.989 -0.7041  1.0686  1.1864
  175DOPC  C31221429   4.353   6.690   4.078  0.0997  0.0230  0.6805
  175DOPC  H12X21430   4.428   6.768   4.054 -0.9321  0.6250 -0.7399
  175DOPC  H12Y21431   4.415   6.606   4.117  0.2257  0.2701  1.0129
  175DOPC  C31321432   4.262   6.745   4.186 -0.3316  0.8564  0.4532
  175DOPC  H13X21433   4.195   6.830   4.159  0.0093  1.0018  0.0471
  175DOPC  H13Y21434   4.191   6.662   4.207 -0.8064  0.8246 -1.1293
  175DOPC  C31421435   4.326   6.776   4.318 -0.1951 -0.4189 -0.2575
  175DOPC  H14X21436   4.409   6.706   4.343  0.0131 -0.5284 -1.2219
  175DOPC  H14Y21437   4.372   6.876   4.305  2.5651 -1.6368 -0.6108
  175DOPC  C31521438   4.224   6.798   4.431 -0.4896  0.1737  0.0004
  175DOPC  H15X21439   4.156   6.712   4.445 -1.4159  0.9249  0.2904
  175DOPC  H15Y21440   4.169   6.891   4.402  2.3166  1.2309 -2.4884
  175DOPC  C31621441   4.310   6.837   4.548  0.1114 -0.1741 -0.3954
  175DOPC  H16X21442   4.381   6.751   4.557  1.3576  0.6760 -1.7289
  175DOPC  H16Y21443   4.380   6.921   4.530  0.7922 -0.1365  2.0660
  175DOPC  C31721444   4.233   6.842   4.686  0.0870  0.3900 -0.2797
  175DOPC  H17X21445   4.291   6.890   4.768  1.2499  0.6288 -1.2096
  175DOPC  H17Y21446   4.154   6.916   4.660  2.1629  2.2529 -1.7721
  175DOPC  C31821447   4.170   6.706   4.733 -0.8887  0.6516  0.2412
  175DOPC  H18X21448   4.111   6.701   4.827  0.3948  0.1229  1.0380
  175DOPC  H18Y21449   4.105   6.665   4.652 -2.3209  1.7784  0.7792
  175DOPC  H18Z21450   4.245   6.625   4.742 -1.3282 -0.1815 -2.6153
  176DOPC     N21451   3.405   1.685   3.287  0.3732  0.0233 -0.1267
  176DOPC   C1221452   3.277   1.752   3.337  0.5677 -0.2742 -0.2019
  176DOPC  H12A21453   3.307   1.813   3.420  0.3096 -0.0914 -0.2419
  176DOPC  H12B21454   3.219   1.673   3.382  0.9290 -0.5466 -0.2060
  176DOPC   C1321455   3.373   1.587   3.181  1.0391  0.4831 -0.9043
  176DOPC  H13A21456   3.329   1.627   3.091 -0.8870 -1.9860 -1.1566
  176DOPC  H13B21457   3.466   1.540   3.154  0.0284 -2.2299  0.0179
  176DOPC  H13C21458   3.300   1.513   3.207  1.1235  1.1802  1.5236
  176DOPC   C1421459   3.483   1.623   3.399 -0.0909 -0.1991  0.2838
  176DOPC  H14A21460   3.490   1.686   3.486  0.5785  0.0501  0.0570
  176DOPC  H14B21461   3.434   1.529   3.421  0.9487 -0.7827  0.1902
  176DOPC  H14C21462   3.586   1.604   3.371 -0.2826 -0.1594 -0.4825
  176DOPC   C1521463   3.485   1.795   3.217  0.2381  0.4879  0.3012
  176DOPC  H15A21464   3.437   1.812   3.121 -0.5634 -1.1262  0.3883
  176DOPC  H15B21465   3.588   1.767   3.200  0.2336 -1.2487  2.6472
  176DOPC  H15C21466   3.480   1.886   3.276 -0.3766 -0.4583  1.7534
  176DOPC   C1121467   3.192   1.836   3.237  0.2829  0.4896 -0.1587
  176DOPC  H11A21468   3.120   1.900   3.292  2.6634  1.3285  2.2581
  176DOPC  H11B21469   3.256   1.912   3.187  0.8235  0.0272 -0.1897
  176DOPC     P21470   2.994   1.673   3.184  0.2974  0.9303  0.2190
  176DOPC   O1321471   2.976   1.545   3.105 -0.1693  0.3898  1.1134
  176DOPC   O1421472   2.883   1.767   3.187 -0.2427 -0.2251 -0.1645
  176DOPC   O1221473   3.128   1.744   3.146 -0.2580 -0.1666  0.7089
  176DOPC   O1121474   3.027   1.627   3.329  0.0078  0.1573  0.3849
  176DOPC    C121475   2.933   1.586   3.417 -0.7258  0.9939  0.7307
  176DOPC    HA21476   2.870   1.507   3.370 -1.0015  1.5688  0.1140
  176DOPC    HB21477   2.857   1.660   3.449 -1.1197  1.1287 -0.4931
  176DOPC    C221478   3.009   1.530   3.541  1.0880 -0.6258 -0.4161
  176DOPC    HS21479   2.931   1.480   3.602 -0.4934  1.2919 -0.7515
  176DOPC   O2121480   3.074   1.640   3.613 -0.2674  0.5854 -0.3494
  176DOPC   C2121481   3.048   1.650   3.742  0.0742 -0.1631 -0.3650
  176DOPC   O2221482   2.986   1.576   3.815 -0.2305 -0.1028 -0.2058
  176DOPC   C2221483   3.114   1.777   3.798 -0.4183 -0.2191 -0.7567
  176DOPC   H2R21484   3.035   1.831   3.854 -0.2300 -0.3331 -0.3784
  176DOPC   H2S21485   3.152   1.846   3.719 -1.4024  1.0113 -0.1959
  176DOPC    C321486   3.121   1.430   3.500  0.2065 -0.2994  0.3804
  176DOPC    HX21487   3.203   1.477   3.441  0.6452 -0.7380  0.6322
  176DOPC    HY21488   3.070   1.361   3.429  0.7159 -2.0871  1.6732
  176DOPC   O3121489   3.156   1.346   3.616  0.0178 -0.3918 -0.1307
  176DOPC   C3121490   3.287   1.367   3.658 -0.4031 -0.4280  0.1969
  176DOPC   O3221491   3.363   1.444   3.611  0.1870 -0.1567 -0.0731
  176DOPC   C3221492   3.302   1.283   3.783 -0.2293  0.5838  0.1829
  176DOPC   H2X21493   3.236   1.318   3.865  0.9232 -1.0536  1.9133
  176DOPC   H2Y21494   3.286   1.175   3.759 -3.3057  1.0702 -0.2771
  176DOPC   C2321495   3.230   1.731   3.885 -0.0673 -0.1071  0.2059
  176DOPC   H3R21496   3.304   1.814   3.892  0.9081 -1.0681  2.0687
  176DOPC   H3S21497   3.282   1.646   3.836 -0.5862  1.0861 -2.5410
  176DOPC   C2421498   3.191   1.700   4.031 -0.3603 -0.3009 -0.3739
  176DOPC   H4R21499   3.284   1.682   4.090 -0.4536 -1.3176 -0.5149
  176DOPC   H4S21500   3.124   1.615   4.055 -0.1638  0.0211  1.4610
  176DOPC   C2521501   3.131   1.822   4.099  0.3801  0.4365 -0.1522
  176DOPC   H5R21502   3.022   1.820   4.076 -0.4126  3.7192  2.5618
  176DOPC   H5S21503   3.182   1.918   4.079 -1.6488  1.6289  0.0677
  176DOPC   C2621504   3.139   1.817   4.255 -0.4319 -0.6448 -0.1718
  176DOPC   H6R21505   3.245   1.807   4.288 -0.5137  1.4460  0.9046
  176DOPC   H6S21506   3.080   1.730   4.288 -0.1423 -0.8374 -0.1579
  176DOPC   C2721507   3.093   1.949   4.320 -0.2375 -0.3700 -0.1359
  176DOPC   H7R21508   3.158   2.028   4.277 -3.6496  1.6075 -2.1255
  176DOPC   H7S21509   3.125   1.940   4.426 -1.1330  0.3915  0.2158
  176DOPC   C2821510   2.952   1.983   4.301  0.6865 -0.6856  0.3819
  176DOPC   H8R21511   2.895   1.903   4.352 -1.4816  1.1070  0.9630
  176DOPC   H8S21512   2.910   1.977   4.198 -1.2947  0.8353  1.0248
  176DOPC   C2921513   2.928   2.118   4.359 -0.2398  0.1783  0.3554
  176DOPC   H9R21514   2.947   2.200   4.289 -0.5026  0.1964  0.3046
  176DOPC  C21021515   2.921   2.152   4.486 -0.1705 -0.3666 -0.2823
  176DOPC  H10R21516   2.933   2.258   4.515 -0.6319 -0.9732  2.4646
  176DOPC  C21121517   2.926   2.061   4.608 -0.5524  0.1060 -0.0543
  176DOPC  H11R21518   3.022   2.092   4.656 -1.4981  2.2733  0.5891
  176DOPC  H11S21519   2.942   1.958   4.571 -1.3551 -0.3697  0.8800
  176DOPC  C21221520   2.816   2.087   4.707 -0.5373  0.1174 -0.1825
  176DOPC  H12R21521   2.826   2.022   4.797 -1.6812  0.3008  0.0908
  176DOPC  H12S21522   2.716   2.058   4.670  0.0366 -1.5019 -0.5300
  176DOPC  C21321523   2.806   2.224   4.768  0.3280 -0.3513  0.4341
  176DOPC  H13R21524   2.789   2.306   4.693 -2.1054  1.2889  2.5932
  176DOPC  H13S21525   2.907   2.248   4.807  0.0334 -0.2035  1.1175
  176DOPC  C21421526   2.707   2.246   4.895  0.1090 -0.4805 -0.2326
  176DOPC  H14R21527   2.731   2.163   4.965 -0.1664 -1.1082 -0.8746
  176DOPC  H14S21528   2.604   2.243   4.854 -0.0801  3.4126 -0.4159
  176DOPC  C21521529   2.734   2.383   4.963  0.0421 -0.4864 -0.2694
  176DOPC  H15R21530   2.682   2.463   4.907 -0.5333  0.4775  1.5298
  176DOPC  H15S21531   2.841   2.408   4.979 -0.1321 -1.1857  2.6587
  176DOPC  C21621532   2.676   2.374   5.100 -0.7115 -0.3466 -1.1623
  176DOPC  H16R21533   2.716   2.462   5.153  0.2532 -1.5817  0.2408
  176DOPC  H16S21534   2.724   2.283   5.142  0.3147  1.3392  1.5212
  176DOPC  C21721535   2.526   2.361   5.127 -1.0452  0.5587  0.5222
  176DOPC  H17R21536   2.504   2.393   5.231 -0.4425 -1.1516  1.2111
  176DOPC  H17S21537   2.510   2.252   5.143  0.2574  0.6124  2.4615
  176DOPC  C21821538   2.435   2.423   5.021  0.3733  0.2359 -0.3337
  176DOPC  H18R21539   2.327   2.414   5.045  1.0181 -2.5047  2.0409
  176DOPC  H18S21540   2.455   2.385   4.918  0.2402  1.7507 -0.9497
  176DOPC  H18T21541   2.470   2.528   5.010  1.9606 -0.1775  0.5809
  176DOPC   C3321542   3.447   1.298   3.838 -0.5729 -0.7938  0.0106
  176DOPC   H3X21543   3.528   1.334   3.771  1.1344  0.1690  2.4483
  176DOPC   H3Y21544   3.489   1.203   3.877  0.5722  0.0279  0.8713
  176DOPC   C3421545   3.444   1.393   3.966 -0.0143  0.1684  0.2649
  176DOPC   H4X21546   3.383   1.338   4.040  0.1699 -2.8139 -1.6069
  176DOPC   H4Y21547   3.398   1.482   3.918 -0.6168 -0.2158  0.1240
  176DOPC   C3521548   3.581   1.438   4.017  0.2557 -0.1923  0.2045
  176DOPC   H5X21549   3.631   1.346   4.055 -1.1496 -0.4519  1.5246
  176DOPC   H5Y21550   3.547   1.499   4.103  0.1423 -0.2670  0.2121
  176DOPC   C3621551   3.664   1.511   3.916 -0.2302  0.3397 -0.6562
  176DOPC   H6X21552   3.707   1.440   3.841 -0.5238 -0.1201 -0.3956
  176DOPC   H6Y21553   3.603   1.597   3.883  3.3631  2.2670 -2.9964
  176DOPC   C3721554   3.790   1.565   3.987  0.3003 -0.4171 -0.7315
  176DOPC   H7X21555   3.769   1.623   4.080 -1.0908 -0.6586 -0.8794
  176DOPC   H7Y21556   3.862   1.488   4.021 -0.3115 -0.4888  0.4469
  176DOPC   C3821557   3.870   1.651   3.884  0.0146 -0.1156  0.2412
  176DOPC   H8X21558   3.801   1.733   3.854 -1.2984 -1.3107 -0.0873
  176DOPC   H8Y21559   3.878   1.585   3.795  0.6391  0.9393 -0.5074
  176DOPC   C3921560   4.000   1.700   3.938  0.0252  0.0061  0.8906
  176DOPC   H9X21561   3.983   1.775   4.016  1.6048 -0.2258  1.5088
  176DOPC  C31021562   4.123   1.667   3.901  0.4812 -0.2445 -0.3360
  176DOPC  H10X21563   4.211   1.708   3.954  0.0405 -0.3219  0.4792
  176DOPC  C31121564   4.159   1.565   3.801 -1.0439  0.4516 -0.0258
  176DOPC  H11X21565   4.258   1.583   3.755 -0.0611 -0.1841  1.7130
  176DOPC  H11Y21566   4.089   1.574   3.715  0.0900  1.4601 -0.8709
  176DOPC  C31221567   4.144   1.422   3.871 -0.3655 -0.4275  0.0195
  176DOPC  H12X21568   4.149   1.336   3.801  0.9519 -0.1405 -0.2586
  176DOPC  H12Y21569   4.041   1.427   3.912 -0.0337  0.8393  0.7575
  176DOPC  C31321570   4.242   1.389   3.990 -0.2358  0.3843  0.4608
  176DOPC  H13X21571   4.345   1.396   3.950 -0.8650  2.4309 -0.9410
  176DOPC  H13Y21572   4.235   1.471   4.065 -0.7424  1.4814 -0.7318
  176DOPC  C31421573   4.223   1.256   4.060 -0.4116  0.2706  0.0744
  176DOPC  H14X21574   4.235   1.165   3.998 -0.6486 -1.1087  1.9451
  176DOPC  H14Y21575   4.305   1.245   4.135  0.6590  2.9964 -0.5749
  176DOPC  C31521576   4.092   1.247   4.138  0.0455  0.6633 -0.1988
  176DOPC  H15X21577   4.071   1.143   4.170  1.5796  0.1237 -0.8200
  176DOPC  H15Y21578   4.010   1.274   4.068 -1.8024 -1.0448  1.2095
  176DOPC  C31621579   4.077   1.345   4.256 -0.0469  0.0246 -0.0076
  176DOPC  H16X21580   4.167   1.334   4.320  1.8353  0.9162 -2.3506
  176DOPC  H16Y21581   4.066   1.451   4.226  2.6438  1.9945  4.7543
  176DOPC  C31721582   3.956   1.318   4.345  0.4540  0.6152 -0.2766
  176DOPC  H17X21583   3.963   1.216   4.389 -0.5442  0.2691 -0.8749
  176DOPC  H17Y21584   3.961   1.397   4.423  0.0901  1.2313 -0.8678
  176DOPC  C31821585   3.828   1.353   4.271 -0.0619 -0.1735  0.7528
  176DOPC  H18X21586   3.737   1.338   4.332 -0.8577  0.0179 -0.3567
  176DOPC  H18Y21587   3.834   1.460   4.243 -0.3923 -0.9330 -2.6524
  176DOPC  H18Z21588   3.812   1.290   4.181  2.6496  2.1070 -1.5375
  177DOPC     N21589   6.213   4.766   2.567  0.1273  0.3924 -0.8338
  177DOPC   C1221590   6.235   4.878   2.673  0.8659  0.1445  1.0654
  177DOPC  H12A21591   6.219   4.974   2.626 -0.4561 -0.2558  0.6326
  177DOPC  H12B21592   6.334   4.886   2.715  0.3705  3.1210  1.9317
  177DOPC   C1321593   6.321   4.766   2.469  0.1996  0.5416 -0.4575
  177DOPC  H13A21594   6.337   4.860   2.420  1.7189 -0.5619 -2.1914
  177DOPC  H13B21595   6.413   4.719   2.499 -0.2277 -0.1417 -0.1680
  177DOPC  H13C21596   6.291   4.691   2.397 -0.6503  0.3995  0.0192
  177DOPC   C1421597   6.087   4.783   2.497  0.3273  0.1981  0.0781
  177DOPC  H14A21598   6.063   4.709   2.422  0.7634 -0.9162  1.0184
  177DOPC  H14B21599   6.014   4.775   2.576 -1.6146  1.9065 -1.4106
  177DOPC  H14C21600   6.083   4.882   2.455 -1.9004 -0.3313 -1.1483
  177DOPC   C1521601   6.220   4.634   2.625  0.0061 -0.4282  0.1787
  177DOPC  H15A21602   6.298   4.629   2.699 -0.7438  1.0413  1.1062
  177DOPC  H15B21603   6.239   4.564   2.544  1.7869 -0.5909  0.7046
  177DOPC  H15C21604   6.132   4.612   2.683 -0.7583 -0.3891 -0.9200
  177DOPC   C1121605   6.141   4.874   2.796 -0.1478 -0.5493  0.4858
  177DOPC  H11A21606   6.173   4.793   2.864 -0.2990  0.5131  1.8715
  177DOPC  H11B21607   6.145   4.971   2.850 -1.9284  0.2675 -0.7566
  177DOPC     P21608   5.905   4.972   2.746 -0.2218 -0.5731  0.3526
  177DOPC   O1321609   5.785   4.927   2.669  0.4434 -0.1666 -0.0095
  177DOPC   O1421610   5.963   5.096   2.684  0.6383  0.6171 -0.1016
  177DOPC   O1221611   6.006   4.854   2.759  0.2712 -0.3648 -0.7924
  177DOPC   O1121612   5.870   5.000   2.896 -0.2285  0.3131  0.1121
  177DOPC    C121613   5.769   4.924   2.971  0.3049  0.4188  0.6359
  177DOPC    HA21614   5.776   4.820   2.934  1.7074  0.4721  0.6973
  177DOPC    HB21615   5.669   4.971   2.962 -0.0535 -0.5455 -0.8263
  177DOPC    C221616   5.804   4.919   3.122 -0.0030 -0.0184 -0.1719
  177DOPC    HS21617   5.723   4.853   3.160  1.5686 -3.0891 -1.7134
  177DOPC   O2121618   5.811   5.047   3.175 -0.2389 -0.1900 -0.1213
  177DOPC   C2121619   5.769   5.073   3.296  0.0267 -0.4940  0.2348
  177DOPC   O2221620   5.709   4.995   3.369 -0.2225 -0.1884 -0.1908
  177DOPC   C2221621   5.792   5.222   3.318  0.7047 -0.3293  0.6350
  177DOPC   H2R21622   5.702   5.263   3.267  0.1191  0.5801  2.3326
  177DOPC   H2S21623   5.883   5.259   3.266 -0.7965 -0.0642 -1.9650
  177DOPC    C321624   5.938   4.839   3.135 -0.7171  0.0675 -0.1617
  177DOPC    HX21625   6.011   4.911   3.092 -2.3417  2.0524  0.2537
  177DOPC    HY21626   5.938   4.758   3.060 -0.4948  1.5731 -1.8430
  177DOPC   O3121627   5.979   4.807   3.271  1.0868  0.0071  0.0923
  177DOPC   C3121628   5.919   4.707   3.331  0.7603  0.0470  0.0057
  177DOPC   O3221629   5.856   4.618   3.272 -0.8070 -1.1597 -0.5103
  177DOPC   C3221630   5.958   4.708   3.479  0.5083  0.1313 -0.0530
  177DOPC   H2X21631   5.918   4.617   3.529 -0.4920  0.3372 -0.4569
  177DOPC   H2Y21632   6.068   4.694   3.476  0.7103  0.5471  2.6012
  177DOPC   C2321633   5.798   5.261   3.467  0.8312 -0.0917 -0.1529
  177DOPC   H3R21634   5.885   5.209   3.512  1.3112 -0.5983 -1.6039
  177DOPC   H3S21635   5.706   5.218   3.514  0.8682  0.0655  0.0646
  177DOPC   C2421636   5.798   5.412   3.500 -0.1590  0.4018  0.3013
  177DOPC   H4R21637   5.698   5.447   3.465 -0.7176  0.3311  1.7641
  177DOPC   H4S21638   5.881   5.458   3.440  2.3792 -0.2558  3.0870
  177DOPC   C2521639   5.816   5.437   3.643 -1.1190  0.2229 -0.1203
  177DOPC   H5R21640   5.773   5.356   3.706 -2.0370  0.6858 -0.1330
  177DOPC   H5S21641   5.782   5.537   3.677 -1.1887 -0.3679  1.6375
  177DOPC   C2621642   5.966   5.438   3.683 -0.3515 -0.4320  0.6729
  177DOPC   H6R21643   6.007   5.520   3.620 -3.0770  0.3036 -0.2916
  177DOPC   H6S21644   6.005   5.337   3.658  0.1376  0.0416 -0.5584
  177DOPC   C2721645   5.992   5.466   3.828  0.6763  0.1131  0.3279
  177DOPC   H7R21646   5.953   5.382   3.889  1.3478 -0.5811 -0.1946
  177DOPC   H7S21647   5.933   5.556   3.859  0.9715 -0.1818  1.8422
  177DOPC   C2821648   6.137   5.488   3.881 -0.2550 -0.6817  0.1171
  177DOPC   H8R21649   6.192   5.395   3.855 -1.1744 -0.8534 -1.3462
  177DOPC   H8S21650   6.128   5.498   3.991 -0.4088  1.1819 -0.0358
  177DOPC   C2921651   6.205   5.609   3.812 -0.0346 -0.2495 -0.3316
  177DOPC   H9R21652   6.225   5.613   3.704 -0.4909  0.9213 -0.3791
  177DOPC  C21021653   6.235   5.725   3.876  0.1635  0.6108  0.6757
  177DOPC  H10R21654   6.287   5.803   3.818  0.1486 -0.6491 -1.1143
  177DOPC  C21121655   6.209   5.765   4.023 -0.2950  0.5480 -0.2433
  177DOPC  H11R21656   6.161   5.682   4.079 -0.9961  1.5003  0.5745
  177DOPC  H11S21657   6.141   5.852   4.015 -0.7310  0.1403 -1.2855
  177DOPC  C21221658   6.333   5.822   4.095  0.0261  0.3208  0.1521
  177DOPC  H12R21659   6.385   5.900   4.036  1.0915  0.7642  1.6149
  177DOPC  H12S21660   6.408   5.744   4.120  1.7693  2.0116  0.4471
  177DOPC  C21321661   6.304   5.881   4.232  0.1146 -0.4183 -0.2890
  177DOPC  H13R21662   6.224   5.958   4.227 -1.0985 -1.4600  1.6251
  177DOPC  H13S21663   6.393   5.933   4.274 -1.9937  1.9115  1.6025
  177DOPC  C21421664   6.260   5.762   4.329 -0.9177 -0.4630 -0.2635
  177DOPC  H14R21665   6.338   5.683   4.325  0.4706  0.8974 -0.8992
  177DOPC  H14S21666   6.165   5.724   4.286 -0.1411 -0.8477 -1.7178
  177DOPC  C21521667   6.253   5.786   4.482 -0.4490 -0.0393 -0.4525
  177DOPC  H15R21668   6.353   5.817   4.519 -0.8618 -0.4513  1.0957
  177DOPC  H15S21669   6.224   5.696   4.540  3.1373 -1.4636 -0.5908
  177DOPC  C21621670   6.162   5.898   4.510 -0.1368 -0.4812  0.1591
  177DOPC  H16R21671   6.058   5.867   4.484 -0.1402 -0.9813  0.7347
  177DOPC  H16S21672   6.185   5.997   4.465  0.8365  0.5598  2.7555
  177DOPC  C21721673   6.151   5.927   4.659  0.4732 -0.8636 -0.0896
  177DOPC  H17R21674   6.251   5.921   4.705 -0.9514  0.0144  3.3925
  177DOPC  H17S21675   6.094   5.851   4.716  0.4611  0.1397  1.2880
  177DOPC  C21821676   6.087   6.060   4.690 -0.8873  1.0373  0.1517
  177DOPC  H18R21677   6.098   6.073   4.800 -0.3661  0.5450  0.1641
  177DOPC  H18S21678   5.983   6.053   4.653 -0.7797  1.3486 -0.2136
  177DOPC  H18T21679   6.137   6.146   4.641 -0.1918  0.4610 -0.1602
  177DOPC   C3321680   5.932   4.842   3.552  0.1718  0.0788  0.4261
  177DOPC   H3X21681   5.829   4.834   3.591  0.3022 -4.2497  0.3860
  177DOPC   H3Y21682   5.940   4.930   3.484 -2.1544  0.9530  1.1917
  177DOPC   C3421683   6.038   4.856   3.663  0.3258 -0.2064 -0.8030
  177DOPC   H4X21684   6.140   4.870   3.620  0.0882  1.0555 -0.9827
  177DOPC   H4Y21685   6.047   4.760   3.720  0.0786  0.8844  1.1857
  177DOPC   C3521686   6.000   4.953   3.775  0.1490 -0.3304 -0.3618
  177DOPC   H5X21687   5.897   4.935   3.814  0.0958  0.4510 -0.1329
  177DOPC   H5Y21688   5.994   5.059   3.744 -2.2177 -0.3279 -0.1089
  177DOPC   C3621689   6.115   4.958   3.877  0.6328 -0.2576  0.4343
  177DOPC   H6X21690   6.214   4.989   3.837  1.2920 -0.6432  1.7143
  177DOPC   H6Y21691   6.097   5.035   3.955  2.5533  1.6377 -0.8960
  177DOPC   C3721692   6.132   4.829   3.970 -0.4699 -0.2297 -0.1604
  177DOPC   H7X21693   6.036   4.774   3.982  0.2840 -1.5715 -0.0391
  177DOPC   H7Y21694   6.200   4.765   3.910  1.4842  3.4475 -2.2110
  177DOPC   C3821695   6.185   4.870   4.108 -0.0968 -0.8665  0.3263
  177DOPC   H8X21696   6.181   4.781   4.174 -0.4278 -0.7973  0.3985
  177DOPC   H8Y21697   6.121   4.944   4.159  0.5690  0.5620 -0.8360
  177DOPC   C3921698   6.324   4.928   4.106 -0.2568 -0.7978  0.9344
  177DOPC   H9X21699   6.401   4.850   4.094  1.8398  1.4206 -1.0187
  177DOPC  C31021700   6.359   5.059   4.122  0.0103 -0.4461  0.1991
  177DOPC  H10X21701   6.464   5.091   4.132 -0.8756  2.7174  0.2679
  177DOPC  C31121702   6.276   5.179   4.144 -0.1471  0.0994 -0.4707
  177DOPC  H11X21703   6.172   5.152   4.171 -0.0460 -1.7085 -1.7308
  177DOPC  H11Y21704   6.264   5.241   4.053 -0.8722 -1.8166 -1.7334
  177DOPC  C31221705   6.334   5.249   4.263 -0.6586  0.2360 -0.0463
  177DOPC  H12X21706   6.289   5.350   4.260  0.2788  0.7020  1.0230
  177DOPC  H12Y21707   6.444   5.264   4.250 -0.3290 -1.5281  0.3937
  177DOPC  C31321708   6.300   5.192   4.399  0.4063  0.3168 -0.4825
  177DOPC  H13X21709   6.191   5.190   4.419  0.7371  1.3785  1.6624
  177DOPC  H13Y21710   6.340   5.088   4.408  0.4461  0.4065  0.4454
  177DOPC  C31421711   6.369   5.279   4.510 -0.4174 -0.0528  0.6292
  177DOPC  H14X21712   6.476   5.274   4.481 -0.4970  1.4575  0.0136
  177DOPC  H14Y21713   6.344   5.386   4.501 -0.2224  0.0429  1.2198
  177DOPC  C31521714   6.345   5.229   4.647 -0.3304 -0.3066 -0.2801
  177DOPC  H15X21715   6.377   5.123   4.658  0.7597  0.1608  1.6201
  177DOPC  H15Y21716   6.236   5.231   4.669 -0.1957  1.7041  0.3953
  177DOPC  C31621717   6.415   5.308   4.759 -0.4463 -0.7830  0.0226
  177DOPC  H16X21718   6.522   5.279   4.756 -0.1207  0.0830  1.8706
  177DOPC  H16Y21719   6.407   5.418   4.743  0.2477 -0.8246 -0.7103
  177DOPC  C31721720   6.345   5.286   4.894 -0.3163  0.2580  0.6602
  177DOPC  H17X21721   6.237   5.303   4.878  0.0792  0.5062 -2.1036
  177DOPC  H17Y21722   6.351   5.180   4.927  0.9864 -0.1166 -0.6591
  177DOPC  C31821723   6.395   5.393   4.987  0.3677  0.4735  0.2115
  177DOPC  H18X21724   6.351   5.492   4.960 -0.5387  0.2589  0.8713
  177DOPC  H18Y21725   6.361   5.367   5.090 -1.9628  2.5172  0.0647
  177DOPC  H18Z21726   6.505   5.395   5.001  0.4666  1.6984 -0.5405
  178DOPC     N21727   3.534   7.228   2.720 -0.7057  0.8084  0.2806
  178DOPC   C1221728   3.402   7.236   2.798 -0.6994  0.2869 -0.4104
  178DOPC  H12A21729   3.361   7.136   2.797 -0.3686  0.1543 -1.8155
  178DOPC  H12B21730   3.330   7.290   2.738 -1.8054 -1.3654 -0.6465
  178DOPC   C1321731   3.571   7.362   2.677  0.0674 -0.9029 -0.5456
  178DOPC  H13A21732   3.655   7.363   2.610 -0.6000 -1.2014 -1.4023
  178DOPC  H13B21733   3.489   7.410   2.625 -1.2402 -2.2218  0.2256
  178DOPC  H13C21734   3.596   7.422   2.763 -0.6073 -0.7601 -0.4434
  178DOPC   C1421735   3.519   7.143   2.597 -0.5075 -0.0699 -0.0219
  178DOPC  H14A21736   3.616   7.114   2.559  0.8038  2.1768  1.4087
  178DOPC  H14B21737   3.463   7.056   2.629  1.7742 -1.6205  0.0152
  178DOPC  H14C21738   3.469   7.203   2.522  0.1076 -0.5057 -0.8001
  178DOPC   C1521739   3.637   7.160   2.807 -0.2316 -0.5787 -0.9075
  178DOPC  H15A21740   3.623   7.177   2.912  2.6847  0.3768 -0.5950
  178DOPC  H15B21741   3.737   7.185   2.774 -0.1291  3.1535  1.7198
  178DOPC  H15C21742   3.630   7.053   2.793  1.0500 -1.1063  1.7518
  178DOPC   C1121743   3.393   7.300   2.943  0.4777 -0.2405 -0.3635
  178DOPC  H11A21744   3.435   7.401   2.925  2.0603 -0.8952 -0.4601
  178DOPC  H11B21745   3.286   7.308   2.973  0.7872  0.0049  0.7315
  178DOPC     P21746   3.435   7.097   3.108  0.2133  0.1316  0.3845
  178DOPC   O1321747   3.561   7.017   3.102  0.3242  0.1111  0.1352
  178DOPC   O1421748   3.304   7.040   3.054 -0.1985  0.3078 -0.2763
  178DOPC   O1221749   3.467   7.241   3.051  0.3606 -0.0526 -0.1934
  178DOPC   O1121750   3.405   7.123   3.261 -0.3245  0.3020 -0.0003
  178DOPC    C121751   3.453   7.235   3.337  0.6274  0.7385  0.1409
  178DOPC    HA21752   3.379   7.249   3.419 -0.3169  1.0307 -0.7391
  178DOPC    HB21753   3.450   7.330   3.279  0.1495 -0.6152 -2.1872
  178DOPC    C221754   3.598   7.215   3.385  0.2172  0.3763 -0.3392
  178DOPC    HS21755   3.655   7.173   3.300 -1.2631 -1.3841 -0.5267
  178DOPC   O2121756   3.604   7.120   3.488 -0.4199 -0.4247  0.1288
  178DOPC   C2121757   3.723   7.071   3.520 -0.0162  0.4135  0.0012
  178DOPC   O2221758   3.828   7.117   3.482  0.6505 -0.1376  0.2306
  178DOPC   C2221759   3.706   6.956   3.616 -0.2936 -0.5329 -0.4611
  178DOPC   H2R21760   3.613   6.902   3.589  0.0694 -0.6318 -1.5338
  178DOPC   H2S21761   3.697   6.999   3.718 -2.0102  2.5485 -1.7739
  178DOPC    C321762   3.666   7.350   3.422 -0.1641  0.5778  0.5331
  178DOPC    HX21763   3.626   7.414   3.341  2.3756  0.9678 -0.4978
  178DOPC    HY21764   3.776   7.335   3.419 -0.2576 -0.2036  0.6282
  178DOPC   O3121765   3.617   7.397   3.548  0.2210 -0.0478  0.2496
  178DOPC   C3121766   3.653   7.524   3.571 -0.9606 -0.0933  0.1397
  178DOPC   O3221767   3.726   7.587   3.493  0.5903 -0.2432 -0.2039
  178DOPC   C3221768   3.611   7.576   3.708  0.3820  0.4755 -0.4762
  178DOPC   H2X21769   3.506   7.550   3.732  0.3394  1.5878  0.6240
  178DOPC   H2Y21770   3.674   7.521   3.781  1.0906 -1.1326 -2.2050
  178DOPC   C2321771   3.828   6.861   3.622 -0.1795 -0.1820  0.3583
  178DOPC   H3R21772   3.921   6.918   3.639 -0.3128  0.4048 -0.7344
  178DOPC   H3S21773   3.837   6.809   3.524  0.1994  2.1594 -0.9312
  178DOPC   C2421774   3.822   6.772   3.749  0.4307 -0.1882 -0.4402
  178DOPC   H4R21775   3.909   6.703   3.755 -0.7450 -1.6333  1.0118
  178DOPC   H4S21776   3.739   6.700   3.731  1.3037 -0.4543 -3.9641
  178DOPC   C2521777   3.803   6.847   3.879  0.0017  0.1500 -0.2015
  178DOPC   H5R21778   3.705   6.895   3.899  0.3552  0.2032  1.4964
  178DOPC   H5S21779   3.878   6.929   3.876 -0.6523  0.7256 -1.4062
  178DOPC   C2621780   3.845   6.760   4.002 -0.1398 -0.5199 -0.2955
  178DOPC   H6R21781   3.937   6.702   3.982 -0.1906 -1.8497  2.8752
  178DOPC   H6S21782   3.763   6.687   4.016 -1.2905  0.9735  1.1320
  178DOPC   C2721783   3.859   6.853   4.128  0.2736 -0.1913  0.1710
  178DOPC   H7R21784   3.769   6.919   4.129  0.3860 -0.0247  2.1305
  178DOPC   H7S21785   3.945   6.920   4.105  2.7526 -2.9714  0.8156
  178DOPC   C2821786   3.873   6.782   4.260 -0.6363 -0.2410 -0.0488
  178DOPC   H8R21787   3.950   6.837   4.318 -0.9611 -1.3545  1.4954
  178DOPC   H8S21788   3.911   6.681   4.235 -0.6529  0.1081 -1.6079
  178DOPC   C2921789   3.748   6.757   4.338 -0.5478  0.0077  0.3939
  178DOPC   H9R21790   3.660   6.717   4.285 -0.3115 -0.3372  0.2633
  178DOPC  C21021791   3.727   6.800   4.466 -0.5201  0.4792  0.2723
  178DOPC  H10R21792   3.638   6.783   4.529  0.4569 -1.3384  1.2506
  178DOPC  C21121793   3.822   6.877   4.553  0.6165  0.1856  0.1658
  178DOPC  H11R21794   3.862   6.961   4.492 -0.4559 -0.0200 -0.8449
  178DOPC  H11S21795   3.911   6.820   4.588  0.8748  0.9977  0.8777
  178DOPC  C21221796   3.763   6.936   4.689 -0.5841 -0.0372  0.1140
  178DOPC  H12R21797   3.733   6.854   4.757  1.1773 -0.0133  0.9653
  178DOPC  H12S21798   3.670   6.991   4.661 -1.0806 -1.2543 -0.6825
  178DOPC  C21321799   3.863   7.042   4.742 -0.0074  0.0529 -0.6726
  178DOPC  H13R21800   3.887   7.119   4.666 -1.1818 -2.1792 -3.5008
  178DOPC  H13S21801   3.956   6.985   4.765  1.7758  1.8168 -3.0051
  178DOPC  C21421802   3.809   7.101   4.873  0.1796  0.1653  0.4237
  178DOPC  H14R21803   3.715   7.154   4.848  1.1397  2.1236  0.7186
  178DOPC  H14S21804   3.877   7.180   4.914  1.6976  0.8335 -3.0374
  178DOPC  C21521805   3.780   7.009   4.993 -0.4076  0.5414 -0.3743
  178DOPC  H15R21806   3.874   6.955   5.017 -0.0077  2.1098  1.7969
  178DOPC  H15S21807   3.704   6.932   4.964  0.6723 -1.3253  1.4923
  178DOPC  C21621808   3.722   7.086   5.108 -0.1729  0.6305 -0.2212
  178DOPC  H16R21809   3.638   7.150   5.074  1.4415  2.4536 -1.0216
  178DOPC  H16S21810   3.799   7.164   5.129 -0.7860  1.1918 -0.0196
  178DOPC  C21721811   3.692   7.001   5.231  0.0215 -0.3870 -0.0409
  178DOPC  H17R21812   3.773   6.928   5.254 -1.2132 -1.5747  0.6087
  178DOPC  H17S21813   3.598   6.948   5.207 -0.0770 -0.6287  0.8762
  178DOPC  C21821814   3.656   7.094   5.351  0.4869  0.4526  0.6032
  178DOPC  H18R21815   3.615   7.028   5.430 -1.1116 -1.3281 -1.5914
  178DOPC  H18S21816   3.583   7.169   5.312  0.2837 -0.9212 -1.8793
  178DOPC  H18T21817   3.742   7.154   5.386 -1.1132  3.5262 -0.3210
  178DOPC   C3321818   3.620   7.725   3.720 -0.2166 -0.1263 -0.2455
  178DOPC   H3X21819   3.552   7.776   3.649 -0.5311 -0.0283  0.1250
  178DOPC   H3Y21820   3.722   7.765   3.701 -1.5090  3.0639 -1.0793
  178DOPC   C3421821   3.591   7.769   3.865 -0.4771  0.6065  0.4995
  178DOPC   H4X21822   3.497   7.727   3.906 -0.0370 -0.8753  0.0224
  178DOPC   H4Y21823   3.570   7.878   3.856 -1.3264  0.3642 -0.7179
  178DOPC   C3521824   3.710   7.777   3.960  0.3441 -0.0478 -0.4455
  178DOPC   H5X21825   3.807   7.815   3.921  2.0847 -2.2147  1.5307
  178DOPC   H5Y21826   3.731   7.672   3.989  3.4926  0.4104 -0.7354
  178DOPC   C3621827   3.686   7.849   4.095  0.0974 -0.0747 -0.2031
  178DOPC   H6X21828   3.664   7.956   4.076  1.3941  0.7062  2.2543
  178DOPC   H6Y21829   3.600   7.801   4.146 -2.0078 -1.8849 -4.8474
  178DOPC   C3721830   3.810   7.839   4.183  0.2792 -0.4352  0.2749
  178DOPC   H7X21831   3.867   7.743   4.190 -0.7616 -1.0746  0.2446
  178DOPC   H7Y21832   3.881   7.916   4.148  0.2525 -0.1461  0.8410
  178DOPC   C3821833   3.777   7.881   4.330 -0.3453  0.2976 -0.1279
  178DOPC   H8X21834   3.871   7.875   4.389  0.5842 -3.2071 -1.7081
  178DOPC   H8Y21835   3.718   7.798   4.376  0.4807 -1.0495 -1.4193
  178DOPC   C3921836   3.710   8.015   4.344  0.2481  0.0877 -0.4292
  178DOPC   H9X21837   3.604   8.023   4.316  0.3527  2.6457 -0.2966
  178DOPC  C31021838   3.769   8.130   4.388 -0.8475 -0.1344  0.6371
  178DOPC  H10X21839   3.700   8.216   4.384  0.5719  1.0666  1.1995
  178DOPC  C31121840   3.915   8.142   4.443  0.6148  0.4628 -0.5078
  178DOPC  H11X21841   3.974   8.110   4.354  0.1860 -0.3336 -0.5151
  178DOPC  H11Y21842   3.930   8.067   4.523 -0.8938 -0.2082 -0.8242
  178DOPC  C31221843   3.960   8.277   4.480 -0.4598  0.3684 -0.3077
  178DOPC  H12X21844   3.939   8.339   4.391 -0.4167  0.4406 -0.2682
  178DOPC  H12Y21845   4.068   8.281   4.506 -0.7737  0.5050  1.1016
  178DOPC  C31321846   3.897   8.349   4.611  0.0187 -0.1157  0.1468
  178DOPC  H13X21847   3.794   8.309   4.623  0.0437  0.5575  3.6977
  178DOPC  H13Y21848   3.957   8.302   4.692  1.5286  0.0352 -0.8391
  178DOPC  C31421849   3.914   8.500   4.616  0.3767  0.1368  0.3593
  178DOPC  H14X21850   4.019   8.533   4.605 -1.1581  5.8343 -0.6849
  178DOPC  H14Y21851   3.857   8.552   4.536 -0.5574 -1.1826  0.1241
  178DOPC  C31521852   3.866   8.557   4.746 -0.0963  0.0236 -0.1967
  178DOPC  H15X21853   3.919   8.498   4.824  0.9033  0.4098 -0.5701
  178DOPC  H15Y21854   3.757   8.541   4.755  0.1864 -1.4506  0.9613
  178DOPC  C31621855   3.897   8.711   4.756 -0.1560  0.2265 -0.4088
  178DOPC  H16X21856   4.007   8.730   4.753 -0.3660  1.8366  0.6325
  178DOPC  H16Y21857   3.839   8.756   4.673 -0.0782  1.9686  0.4362
  178DOPC  C31721858   3.836   8.757   4.889 -1.1456 -0.0675 -0.4475
  178DOPC  H17X21859   3.830   8.868   4.878 -0.7831 -0.0415 -0.3919
  178DOPC  H17Y21860   3.734   8.715   4.902 -1.5458  1.1088  0.4724
  178DOPC  C31821861   3.919   8.712   5.016  0.2645 -0.6396  0.3412
  178DOPC  H18X21862   4.023   8.746   4.996 -0.1633  1.3791  1.2683
  178DOPC  H18Y21863   3.881   8.760   5.109  4.1987 -1.6401  2.7017
  178DOPC  H18Z21864   3.925   8.602   5.031  1.2463 -0.7130 -0.4455
  179DOPC     N21865   6.825   4.298   2.365 -0.0142  0.0730  0.0141
  179DOPC   C1221866   6.823   4.256   2.513 -0.0345  0.2130  0.3457
  179DOPC  H12A21867   6.921   4.247   2.559 -0.6148 -0.1837  1.5233
  179DOPC  H12B21868   6.780   4.157   2.516  0.5151 -0.0184  0.7955
  179DOPC   C1321869   6.921   4.215   2.292 -0.0461 -0.0340  0.4439
  179DOPC  H13A21870   6.919   4.242   2.188 -1.2213  0.0975  0.4920
  179DOPC  H13B21871   7.019   4.223   2.337 -0.6639 -0.1949  1.8690
  179DOPC  H13C21872   6.887   4.113   2.302 -4.3378  1.0190 -1.2518
  179DOPC   C1421873   6.863   4.444   2.351  0.7385  0.5413  0.2908
  179DOPC  H14A21874   6.960   4.457   2.395  2.1843  0.0379 -2.4922
  179DOPC  H14B21875   6.864   4.472   2.247 -0.0094  0.8023  0.3477
  179DOPC  H14C21876   6.790   4.511   2.394 -0.0573  0.0360 -0.2447
  179DOPC   C1521877   6.689   4.299   2.309 -0.6210  0.2449  0.3944
  179DOPC  H15A21878   6.697   4.303   2.201 -0.2324 -1.4767  0.3295
  179DOPC  H15B21879   6.624   4.380   2.340 -0.7156 -0.2151  1.4509
  179DOPC  H15C21880   6.639   4.207   2.336 -0.8726  0.3582  0.3182
  179DOPC   C1121881   6.748   4.346   2.609  0.5850 -0.3663 -0.2716
  179DOPC  H11A21882   6.753   4.305   2.712  2.8246 -0.7961 -0.5059
  179DOPC  H11B21883   6.798   4.446   2.609 -1.5273  0.7654 -1.7094
  179DOPC     P21884   6.503   4.262   2.596  0.0975 -0.3760  0.2160
  179DOPC   O1321885   6.541   4.140   2.518 -0.0042 -0.4300  0.1008
  179DOPC   O1421886   6.377   4.337   2.561 -0.2305 -0.2637  0.3540
  179DOPC   O1221887   6.616   4.365   2.575  0.6871 -0.4579 -0.5033
  179DOPC   O1121888   6.507   4.233   2.747  0.2054  0.3253  0.5956
  179DOPC    C121889   6.486   4.317   2.858 -0.6227 -0.3497  0.5147
  179DOPC    HA21890   6.548   4.408   2.843  0.3269 -1.1402 -0.6094
  179DOPC    HB21891   6.541   4.272   2.943 -0.4437 -0.8716  0.1250
  179DOPC    C221892   6.336   4.329   2.903 -0.3406  0.0282  0.4634
  179DOPC    HS21893   6.282   4.402   2.839 -3.2969  0.4242  3.1651
  179DOPC   O2121894   6.348   4.373   3.034  0.3533 -0.1882 -0.2101
  179DOPC   C2121895   6.276   4.482   3.066  0.5072  0.0013 -0.0691
  179DOPC   O2221896   6.186   4.527   2.999  0.1925  0.5661 -0.1745
  179DOPC   C2221897   6.326   4.546   3.198  0.1197  0.0852 -0.5551
  179DOPC   H2R21898   6.432   4.517   3.214 -0.4376 -0.7544  2.2329
  179DOPC   H2S21899   6.256   4.514   3.279  1.2851  1.2914  1.0067
  179DOPC    C321900   6.261   4.192   2.896  0.3568  0.1283 -0.1242
  179DOPC    HX21901   6.328   4.108   2.923  0.3361 -0.3908 -1.5728
  179DOPC    HY21902   6.245   4.172   2.788  1.7661  1.2213 -0.5575
  179DOPC   O3121903   6.151   4.180   2.981  0.2876  0.0459  1.0621
  179DOPC   C3121904   6.032   4.199   2.920 -0.4297  0.0392 -0.6870
  179DOPC   O3221905   6.018   4.226   2.805  0.2616 -0.6475 -0.1111
  179DOPC   C3221906   5.916   4.198   3.023 -0.0843  0.2485 -0.1863
  179DOPC   H2X21907   5.824   4.226   2.966 -1.4748 -1.3988  1.1175
  179DOPC   H2Y21908   5.903   4.093   3.060  1.3252  0.4668  1.0313
  179DOPC   C2321909   6.301   4.701   3.203  0.7297  0.3818  0.7598
  179DOPC   H3R21910   6.196   4.726   3.178  0.9012 -0.7153 -1.3252
  179DOPC   H3S21911   6.354   4.755   3.121 -0.9896 -0.2997 -0.8646
  179DOPC   C2421912   6.352   4.761   3.335 -1.5012 -0.2277 -0.2972
  179DOPC   H4R21913   6.463   4.755   3.336 -1.3925  1.3421  1.5862
  179DOPC   H4S21914   6.309   4.712   3.425  1.7399  0.6044  1.8563
  179DOPC   C2521915   6.317   4.909   3.343  0.2376  0.4229 -0.3564
  179DOPC   H5R21916   6.206   4.921   3.345  0.0793 -0.8611  1.4082
  179DOPC   H5S21917   6.353   4.954   3.248 -0.0144 -1.1878 -1.2463
  179DOPC   C2621918   6.372   4.979   3.470 -0.6932  0.0085  0.1233
  179DOPC   H6R21919   6.481   4.963   3.464 -1.0492 -2.5831 -0.6567
  179DOPC   H6S21920   6.324   4.922   3.553  1.7210 -0.9836  0.9273
  179DOPC   C2721921   6.334   5.126   3.471  0.4520  0.3841  0.3068
  179DOPC   H7R21922   6.227   5.128   3.499 -0.3034  1.3716 -2.3807
  179DOPC   H7S21923   6.347   5.161   3.366 -0.9228 -0.9919 -0.3498
  179DOPC   C2821924   6.415   5.221   3.560 -0.2280 -0.5879  1.1362
  179DOPC   H8R21925   6.367   5.322   3.564  0.3222 -0.3379  1.5190
  179DOPC   H8S21926   6.512   5.229   3.506 -0.6805 -0.9353  0.2545
  179DOPC   C2921927   6.436   5.170   3.700 -0.2402 -0.3816  0.2256
  179DOPC   H9R21928   6.422   5.064   3.727 -1.0546 -1.0203 -2.4437
  179DOPC  C21021929   6.482   5.242   3.807  0.6434  0.4044  0.4289
  179DOPC  H10R21930   6.484   5.196   3.906 -0.4059  0.0350  0.2849
  179DOPC  C21121931   6.520   5.387   3.797 -0.0515 -0.1851 -0.6685
  179DOPC  H11R21932   6.445   5.431   3.728 -0.2130 -0.1518 -0.4740
  179DOPC  H11S21933   6.622   5.404   3.756 -0.1769  1.1062 -0.4995
  179DOPC  C21221934   6.522   5.469   3.936  0.4618 -0.0019  0.0443
  179DOPC  H12R21935   6.416   5.484   3.965  0.3090  1.0801 -0.9456
  179DOPC  H12S21936   6.556   5.570   3.902 -1.5038  0.9347  0.6921
  179DOPC  C21321937   6.617   5.422   4.048  0.3624  0.5452  0.9946
  179DOPC  H13R21938   6.708   5.405   3.987 -1.6643  0.7282 -2.3062
  179DOPC  H13S21939   6.586   5.324   4.089  0.3456  0.0975 -0.0721
  179DOPC  C21421940   6.645   5.531   4.152 -0.0247  0.4755  0.1375
  179DOPC  H14R21941   6.553   5.574   4.195  0.4713  2.3141 -0.5493
  179DOPC  H14S21942   6.683   5.612   4.087 -2.0512  0.7403 -0.7978
  179DOPC  C21521943   6.744   5.493   4.267  0.0055  0.0855 -0.2116
  179DOPC  H15R21944   6.823   5.432   4.218 -0.2598 -1.8575  1.6041
  179DOPC  H15S21945   6.700   5.419   4.338 -2.3650  1.2212 -0.3948
  179DOPC  C21621946   6.786   5.617   4.347 -0.7133 -0.0149  0.2196
  179DOPC  H16R21947   6.747   5.704   4.291  0.5263  1.3462  1.3790
  179DOPC  H16S21948   6.896   5.632   4.348 -0.7696  0.4472 -0.3460
  179DOPC  C21721949   6.733   5.636   4.484 -0.2186  0.5788 -0.0317
  179DOPC  H17R21950   6.757   5.740   4.515 -2.5066  0.6723  1.6854
  179DOPC  H17S21951   6.776   5.549   4.538  0.3545  0.0633 -1.2834
  179DOPC  C21821952   6.583   5.620   4.493  0.0284  0.1938  0.2541
  179DOPC  H18R21953   6.547   5.531   4.437 -1.2445  2.1501 -2.2486
  179DOPC  H18S21954   6.539   5.710   4.445  0.5790  0.3378  0.0096
  179DOPC  H18T21955   6.539   5.612   4.595 -1.7248  0.9205 -0.3975
  179DOPC   C3321956   5.943   4.303   3.135  0.4558 -0.1058 -0.2331
  179DOPC   H3X21957   5.843   4.326   3.178  0.5311 -2.8119  1.6476
  179DOPC   H3Y21958   5.972   4.404   3.099  0.7258 -0.3773 -0.7815
  179DOPC   C3421959   6.027   4.262   3.257  0.1672 -0.2153 -0.6248
  179DOPC   H4X21960   6.130   4.244   3.220  0.3741 -0.2619 -0.0265
  179DOPC   H4Y21961   5.991   4.165   3.300 -0.7246 -1.4169 -3.7611
  179DOPC   C3521962   6.025   4.356   3.377 -0.2314  1.2786  0.9307
  179DOPC   H5X21963   5.920   4.375   3.407 -1.1067  1.4855 -2.0059
  179DOPC   H5Y21964   6.068   4.455   3.349  0.2820  1.2280  1.5162
  179DOPC   C3621965   6.119   4.306   3.492  0.1179 -0.0411  0.2228
  179DOPC   H6X21966   6.067   4.212   3.521 -2.3207  0.6792 -1.4889
  179DOPC   H6Y21967   6.217   4.269   3.454 -0.8681 -3.1326  0.3878
  179DOPC   C3721968   6.122   4.402   3.614 -0.6636  0.1368  0.0354
  179DOPC   H7X21969   6.159   4.503   3.586  1.8268 -0.4969  0.8248
  179DOPC   H7Y21970   6.015   4.417   3.642 -1.0715 -0.4291 -1.1481
  179DOPC   C3821971   6.213   4.362   3.731  0.8022 -0.6489 -0.6314
  179DOPC   H8X21972   6.309   4.336   3.683  1.2927  0.7195 -0.4207
  179DOPC   H8Y21973   6.175   4.276   3.791 -0.3544  0.7640  0.7751
  179DOPC   C3921974   6.215   4.469   3.831  0.7812  0.3289 -0.1825
  179DOPC   H9X21975   6.231   4.570   3.791 -1.0740  1.8478  2.6227
  179DOPC  C31021976   6.210   4.467   3.971 -0.8529 -0.2913  0.6084
  179DOPC  H10X21977   6.215   4.565   4.022 -3.6689  0.0323  0.4070
  179DOPC  C31121978   6.185   4.346   4.056 -0.0525  0.2412 -0.0694
  179DOPC  H11X21979   6.254   4.260   4.040  1.2713  1.3951 -0.8080
  179DOPC  H11Y21980   6.091   4.304   4.015  1.2289 -0.8573 -2.1072
  179DOPC  C31221981   6.178   4.376   4.211  0.1710 -0.3125  0.4530
  179DOPC  H12X21982   6.120   4.295   4.262  0.1644 -0.6280 -0.0563
  179DOPC  H12Y21983   6.132   4.477   4.222 -0.6472 -0.5146 -0.8339
  179DOPC  C31321984   6.307   4.380   4.288  0.0764  0.0259 -1.0367
  179DOPC  H13X21985   6.325   4.274   4.317 -2.4403 -0.1801 -0.0230
  179DOPC  H13Y21986   6.387   4.425   4.224  1.2879 -0.4280  0.1005
  179DOPC  C31421987   6.309   4.458   4.417 -0.0908 -0.2525 -0.1155
  179DOPC  H14X21988   6.223   4.417   4.474  2.2693 -3.8267  1.2948
  179DOPC  H14Y21989   6.406   4.435   4.467 -0.6340  0.6615  1.4201
  179DOPC  C31521990   6.311   4.606   4.396 -0.8553 -0.1416  1.2018
  179DOPC  H15X21991   6.214   4.644   4.358 -0.7240  2.4845  3.2295
  179DOPC  H15Y21992   6.382   4.632   4.314  0.1819  0.3201  2.2272
  179DOPC  C31621993   6.328   4.683   4.521 -0.5097 -0.0902  0.2919
  179DOPC  H16X21994   6.408   4.646   4.589 -0.9323  0.6663  1.2316
  179DOPC  H16Y21995   6.352   4.790   4.501  1.3120 -0.1859  1.6562
  179DOPC  C31721996   6.201   4.703   4.607 -0.3654  0.6615 -0.0027
  179DOPC  H17X21997   6.118   4.750   4.550  0.4198  1.1007 -0.8222
  179DOPC  H17Y21998   6.152   4.612   4.647  1.3601 -0.1199  0.4374
  179DOPC  C31821999   6.233   4.805   4.714  0.5235 -0.2840 -0.2310
  179DOPC  H18X22000   6.273   4.896   4.664  0.7681  0.9953  2.1142
  179DOPC  H18Y22001   6.135   4.832   4.760 -0.0477 -0.1407 -1.5073
  179DOPC  H18Z22002   6.304   4.768   4.791 -0.6809 -0.7851  0.6915
  180DOPC     N22003   7.316   4.197   2.800  0.3577 -0.1054  0.6282
  180DOPC   C1222004   7.394   4.133   2.910 -0.3004  0.7596 -0.1377
  180DOPC  H12A22005   7.392   4.185   3.005  2.0701 -1.1283  1.0400
  180DOPC  H12B22006   7.497   4.151   2.884 -0.1640  0.5966  0.2864
  180DOPC   C1322007   7.171   4.215   2.837  0.1905  0.4116 -0.3433
  180DOPC  H13A22008   7.122   4.120   2.854 -0.5265  0.7686 -0.4136
  180DOPC  H13B22009   7.165   4.270   2.929  0.3337 -1.3556  0.7819
  180DOPC  H13C22010   7.122   4.268   2.757  2.3310  1.3309 -1.1146
  180DOPC   C1422011   7.331   4.124   2.673 -0.0271 -0.2781  0.2762
  180DOPC  H14A22012   7.431   4.125   2.631 -0.4843  0.0666 -0.8285
  180DOPC  H14B22013   7.300   4.021   2.670  4.2413 -1.7992 -2.2469
  180DOPC  H14C22014   7.266   4.163   2.597 -2.7163 -2.3971  1.3342
  180DOPC   C1522015   7.373   4.336   2.779  0.2454 -1.0660 -0.6059
  180DOPC  H15A22016   7.377   4.381   2.877 -2.6701  0.5584 -1.1142
  180DOPC  H15B22017   7.306   4.390   2.714 -1.3543  0.0479  1.8247
  180DOPC  H15C22018   7.473   4.350   2.740  1.1753  0.9212  2.1214
  180DOPC   C1122019   7.368   3.986   2.949 -0.3709  0.2349  0.1002
  180DOPC  H11A22020   7.392   3.922   2.861  0.7341 -1.6694  1.7100
  180DOPC  H11B22021   7.453   3.958   3.014  0.4643  2.5201  0.0739
  180DOPC     P22022   7.136   3.865   2.954 -0.2061  0.4125 -0.5853
  180DOPC   O1322023   7.205   3.731   2.929  0.3214  0.0092  0.2799
  180DOPC   O1422024   7.068   3.925   2.837  0.2183  0.7343 -0.5717
  180DOPC   O1222025   7.244   3.967   3.012  0.4676  0.9165  0.4336
  180DOPC   O1122026   7.032   3.837   3.074 -0.1804  0.0735 -0.3993
  180DOPC    C122027   7.065   3.856   3.209 -0.0128 -0.6884 -0.2497
  180DOPC    HA22028   6.976   3.845   3.275  0.4001 -1.5156  0.1719
  180DOPC    HB22029   7.097   3.962   3.218 -0.7512 -0.3866 -1.0022
  180DOPC    C222030   7.165   3.758   3.259  0.0007  0.2553 -0.1276
  180DOPC    HS22031   7.241   3.756   3.177  1.4680  1.4566  1.1407
  180DOPC   O2122032   7.105   3.629   3.289 -0.0501  0.4952  0.2980
  180DOPC   C2122033   7.178   3.519   3.258  0.2959  0.2729 -0.1489
  180DOPC   O2222034   7.284   3.526   3.197  0.1923 -0.4364 -0.5161
  180DOPC   C2222035   7.106   3.393   3.295 -0.4364 -0.5965  0.2658
  180DOPC   H2R22036   7.136   3.323   3.214 -1.9980 -1.5064  0.4394
  180DOPC   H2S22037   6.995   3.392   3.298 -0.4514  0.5445  0.3318
  180DOPC    C322038   7.237   3.807   3.386 -1.1072  0.1879 -0.1762
  180DOPC    HX22039   7.309   3.730   3.423  1.5301  2.5997  0.1110
  180DOPC    HY22040   7.157   3.809   3.463 -2.2355 -4.7966 -0.8853
  180DOPC   O3122041   7.307   3.934   3.369  1.1038  0.7798 -0.1546
  180DOPC   C3122042   7.439   3.934   3.338 -0.3306 -0.1493 -0.4901
  180DOPC   O3222043   7.509   3.835   3.312  0.7793  0.0095 -0.4757
  180DOPC   C3222044   7.489   4.076   3.346 -0.4574 -0.0463 -0.2793
  180DOPC   H2X22045   7.521   4.101   3.242  0.0246 -1.8320 -0.5850
  180DOPC   H2Y22046   7.412   4.153   3.370  1.7082  2.1202  0.1644
  180DOPC   C2322047   7.135   3.356   3.451  0.0987 -0.0906  0.5966
  180DOPC   H3R22048   7.242   3.361   3.479 -0.1208 -0.0519  1.4408
  180DOPC   H3S22049   7.101   3.251   3.461  0.3698 -0.3008 -0.4733
  180DOPC   C2422050   7.060   3.446   3.550 -0.0196  0.0636 -0.2210
  180DOPC   H4R22051   6.956   3.426   3.517 -0.3180  0.3892  0.4990
  180DOPC   H4S22052   7.108   3.544   3.528  0.2411 -0.2080 -0.8932
  180DOPC   C2522053   7.095   3.420   3.700 -0.3858 -0.0543 -0.4276
  180DOPC   H5R22054   7.200   3.450   3.718 -0.7062  0.3007  1.0578
  180DOPC   H5S22055   7.095   3.312   3.724 -0.4060  0.0024 -0.1690
  180DOPC   C2622056   7.016   3.488   3.807  0.2737  0.5854 -0.5255
  180DOPC   H6R22057   7.040   3.597   3.805 -1.7542  1.0753 -1.6834
  180DOPC   H6S22058   7.053   3.444   3.902  0.2703  1.7226  0.0156
  180DOPC   C2722059   6.870   3.472   3.785  0.3604  0.4377 -0.6855
  180DOPC   H7R22060   6.843   3.364   3.784 -0.5230  0.6557 -0.9341
  180DOPC   H7S22061   6.822   3.519   3.697 -1.5498  2.2650  1.2205
  180DOPC   C2822062   6.786   3.540   3.894  0.0718  0.4142 -0.0264
  180DOPC   H8R22063   6.681   3.533   3.859  0.0710 -0.5444  0.1289
  180DOPC   H8S22064   6.810   3.646   3.917 -3.2401  1.2361  0.0868
  180DOPC   C2922065   6.765   3.458   4.025 -0.1415 -0.4269  0.1677
  180DOPC   H9R22066   6.762   3.349   4.012  0.5533 -0.4525  0.1775
  180DOPC  C21022067   6.782   3.507   4.148 -0.7822  0.2037  0.4597
  180DOPC  H10R22068   6.758   3.436   4.229 -1.2416  0.0766  0.2191
  180DOPC  C21122069   6.828   3.645   4.186  0.4769 -0.1970 -0.2115
  180DOPC  H11R22070   6.781   3.691   4.276 -1.2018  2.8847 -2.4899
  180DOPC  H11S22071   6.808   3.725   4.112 -0.1755  2.0539  2.2252
  180DOPC  C21222072   6.983   3.657   4.197 -0.5991 -0.1221 -0.3585
  180DOPC  H12R22073   7.021   3.637   4.095 -0.0924  2.9486 -0.8572
  180DOPC  H12S22074   7.028   3.580   4.264  0.2213  0.5451 -0.1252
  180DOPC  C21322075   7.055   3.796   4.235  0.8098  0.2269  0.0191
  180DOPC  H13R22076   7.047   3.863   4.146 -1.2255  0.0330  0.0078
  180DOPC  H13S22077   7.162   3.787   4.261  0.7413  3.3601  2.0689
  180DOPC  C21422078   6.995   3.852   4.366  0.3137  0.4246 -0.3657
  180DOPC  H14R22079   6.986   3.772   4.443 -2.5009 -0.1823 -1.2292
  180DOPC  H14S22080   6.890   3.875   4.339 -0.1796 -1.1704  0.0635
  180DOPC  C21522081   7.076   3.962   4.427 -0.6132 -0.6020 -0.5793
  180DOPC  H15R22082   7.071   4.053   4.364  2.5482  0.0992  0.0514
  180DOPC  H15S22083   7.182   3.930   4.425 -0.5553 -0.5128  0.6432
  180DOPC  C21622084   7.029   4.000   4.563 -0.3361 -0.4146 -0.2724
  180DOPC  H16R22085   7.039   3.909   4.627  0.7748  0.3001  0.5851
  180DOPC  H16S22086   6.924   4.036   4.569  0.3551  1.5031  1.3259
  180DOPC  C21722087   7.103   4.103   4.641 -0.0910 -0.3616  0.1983
  180DOPC  H17R22088   7.090   4.200   4.590 -1.4547  0.1512  1.4379
  180DOPC  H17S22089   7.213   4.087   4.642  0.0678  0.6355 -0.6741
  180DOPC  C21822090   7.055   4.118   4.786 -0.2439  0.2619  0.6683
  180DOPC  H18R22091   7.035   4.016   4.825  0.0225  0.2473  0.7682
  180DOPC  H18S22092   6.966   4.184   4.790 -1.0447 -0.7967  0.8274
  180DOPC  H18T22093   7.137   4.164   4.844  0.8066  0.2059 -0.7138
  180DOPC   C3322094   7.611   4.086   3.439  0.0552  0.0222  0.2827
  180DOPC   H3X22095   7.675   3.995   3.434  0.9560  0.5630  1.6058
  180DOPC   H3Y22096   7.571   4.094   3.542 -1.1174 -0.4008 -0.1091
  180DOPC   C3422097   7.685   4.215   3.412  0.5218  0.3050  0.3562
  180DOPC   H4X22098   7.717   4.212   3.306  1.3500 -0.2269  0.6109
  180DOPC   H4Y22099   7.780   4.215   3.469  0.4390 -2.2120  0.5724
  180DOPC   C3522100   7.603   4.337   3.448  0.0860 -0.2511 -0.3692
  180DOPC   H5X22101   7.495   4.327   3.426 -0.3442 -0.3313  1.6211
  180DOPC   H5Y22102   7.626   4.421   3.379 -4.3974 -0.0013 -1.8669
  180DOPC   C3622103   7.635   4.386   3.600  0.4953 -0.7395  0.1837
  180DOPC   H6X22104   7.621   4.307   3.677  2.3929 -0.9162  0.3807
  180DOPC   H6Y22105   7.744   4.402   3.589  0.6345 -0.5137  1.7438
  180DOPC   C3722106   7.560   4.511   3.639  0.2214  0.0749 -0.0647
  180DOPC   H7X22107   7.610   4.603   3.602  0.2113  0.4834  0.8919
  180DOPC   H7Y22108   7.457   4.495   3.600  0.7908  0.3134 -1.7184
  180DOPC   C3822109   7.532   4.531   3.789 -0.6412  0.4631 -0.5402
  180DOPC   H8X22110   7.478   4.440   3.823  2.2338 -1.7132 -1.3944
  180DOPC   H8Y22111   7.468   4.620   3.806  0.0556  0.8576  0.0798
  180DOPC   C3922112   7.663   4.546   3.857  0.9344 -0.6199 -0.5839
  180DOPC   H9X22113   7.751   4.571   3.796 -0.6408  4.2720 -1.2369
  180DOPC  C31022114   7.684   4.517   3.981  0.5518 -0.1342 -0.3116
  180DOPC  H10X22115   7.789   4.520   4.015 -0.0490 -1.6080  1.8933
  180DOPC  C31122116   7.579   4.462   4.077  0.0327 -0.5424 -0.3485
  180DOPC  H11X22117   7.626   4.372   4.122 -1.0083 -0.5359  0.8103
  180DOPC  H11Y22118   7.482   4.437   4.029  0.7162  1.0095 -2.7377
  180DOPC  C31222119   7.559   4.553   4.203  0.4149 -0.7794  0.5092
  180DOPC  H12X22120   7.495   4.639   4.175 -1.5172 -1.8684  1.3901
  180DOPC  H12Y22121   7.657   4.600   4.228  0.7510 -0.7945 -0.6882
  180DOPC  C31322122   7.490   4.478   4.322 -0.0815 -0.2530  0.6058
  180DOPC  H13X22123   7.415   4.417   4.268  1.1418  0.1833 -1.7109
  180DOPC  H13Y22124   7.570   4.408   4.353 -0.0338 -1.0751 -1.2399
  180DOPC  C31422125   7.447   4.565   4.439  0.0128  0.8527 -0.3396
  180DOPC  H14X22126   7.543   4.609   4.473 -0.2897  1.5962 -0.4248
  180DOPC  H14Y22127   7.370   4.645   4.426 -1.0473 -0.1176 -0.2415
  180DOPC  C31522128   7.414   4.484   4.565 -0.3519  0.9136  0.3882
  180DOPC  H15X22129   7.502   4.420   4.585 -0.2461  0.9052 -0.0932
  180DOPC  H15Y22130   7.324   4.420   4.553 -0.2239  0.2883  2.4228
  180DOPC  C31622131   7.401   4.571   4.692 -0.4986  0.0322  0.4045
  180DOPC  H16X22132   7.506   4.592   4.724 -0.7516  2.5087 -0.1951
  180DOPC  H16Y22133   7.348   4.667   4.674 -0.3755 -0.1083 -0.7759
  180DOPC  C31722134   7.326   4.504   4.801 -0.0508  0.1824 -0.6336
  180DOPC  H17X22135   7.219   4.497   4.774 -0.6010  1.3113  1.0487
  180DOPC  H17Y22136   7.365   4.402   4.821 -1.5659  0.1040  2.6001
  180DOPC  C31822137   7.353   4.575   4.934  0.1685 -0.7584 -0.1061
  180DOPC  H18X22138   7.461   4.597   4.942 -0.0810  0.5396 -0.1193
  180DOPC  H18Y22139   7.316   4.680   4.935 -0.9914 -1.1180 -1.5168
  180DOPC  H18Z22140   7.323   4.516   5.023  2.4237 -0.5869  0.8263
  181DOPC     N22141   1.186   2.758   2.948  0.4167 -0.2455 -0.3378
  181DOPC   C1222142   1.317   2.836   2.937 -0.0949 -0.4492  0.5528
  181DOPC  H12A22143   1.367   2.797   2.849  0.3238  0.2051  0.4968
  181DOPC  H12B22144   1.394   2.819   3.010  1.7601  0.2014 -1.1645
  181DOPC   C1322145   1.200   2.616   2.916  0.4967 -0.1812  0.1839
  181DOPC  H13A22146   1.246   2.600   2.820 -1.0904 -1.3730 -0.4318
  181DOPC  H13B22147   1.250   2.572   3.001  1.7187 -0.5202 -0.6942
  181DOPC  H13C22148   1.098   2.579   2.916  0.1797  0.6578 -0.6809
  181DOPC   C1422149   1.082   2.818   2.856 -0.3798  0.0886  0.2483
  181DOPC  H14A22150   1.057   2.922   2.873 -3.4796 -0.1875 -1.7938
  181DOPC  H14B22151   1.116   2.798   2.756 -0.2155 -3.0299  0.8187
  181DOPC  H14C22152   0.991   2.760   2.862 -0.1684 -0.2258  0.4866
  181DOPC   C1522153   1.138   2.764   3.090  0.6361  0.0672 -0.5594
  181DOPC  H15A22154   1.040   2.722   3.105  1.9705 -2.2731  2.6510
  181DOPC  H15B22155   1.146   2.866   3.126  0.7497  0.1137 -0.7121
  181DOPC  H15C22156   1.200   2.694   3.144  0.9841 -3.1289 -4.6155
  181DOPC   C1122157   1.305   2.992   2.920  0.1248 -0.3976  0.4924
  181DOPC  H11A22158   1.412   3.022   2.911  0.0267  0.1456  1.1112
  181DOPC  H11B22159   1.249   3.016   2.827  0.1878 -0.0970  0.5321
  181DOPC     P22160   1.313   3.089   3.166 -0.1002  0.1420 -0.1319
  181DOPC   O1322161   1.286   3.232   3.182 -0.2256  0.1205 -0.6624
  181DOPC   O1422162   1.454   3.041   3.149  0.5410 -0.7036  0.0972
  181DOPC   O1222163   1.231   3.057   3.031  0.0232  0.0241 -0.1876
  181DOPC   O1122164   1.238   2.998   3.273  0.1869  0.0756  0.3236
  181DOPC    C122165   1.107   3.027   3.324 -0.1153 -0.1798  0.6966
  181DOPC    HA22166   1.072   2.937   3.379 -1.2556  0.1320  0.4977
  181DOPC    HB22167   1.031   3.027   3.243 -0.1234  0.2209  0.7063
  181DOPC    C222168   1.108   3.143   3.432  0.5042  0.3846  0.5691
  181DOPC    HS22169   1.119   3.241   3.381 -0.7418  1.3749  2.1305
  181DOPC   O2122170   1.216   3.117   3.522  0.1865 -0.1793  0.3495
  181DOPC   C2122171   1.275   3.218   3.576  0.1648  0.5297  0.4390
  181DOPC   O2222172   1.254   3.337   3.552 -0.8152  0.5535 -0.4054
  181DOPC   C2222173   1.399   3.156   3.656 -0.0547  0.5530 -0.1719
  181DOPC   H2R22174   1.455   3.226   3.722 -1.5108  1.0827  0.5496
  181DOPC   H2S22175   1.477   3.115   3.588  0.2656 -0.6524  0.9078
  181DOPC    C322176   0.972   3.146   3.517 -0.0765 -0.1676 -0.0737
  181DOPC    HX22177   0.962   3.051   3.574  1.5534  0.3726  1.1878
  181DOPC    HY22178   0.882   3.153   3.452  0.4807  0.3441 -0.8065
  181DOPC   O3122179   0.973   3.249   3.621  0.8446 -0.6822  0.1589
  181DOPC   C3122180   0.936   3.373   3.570 -0.4305  0.6120 -0.3150
  181DOPC   O3222181   0.904   3.389   3.454  0.3443 -0.3665 -0.2251
  181DOPC   C3222182   0.928   3.477   3.679  0.1863  0.1837 -0.1290
  181DOPC   H2X22183   0.896   3.561   3.613 -3.4207 -1.8249 -1.2331
  181DOPC   H2Y22184   0.847   3.449   3.749  1.6097 -1.6385  0.8834
  181DOPC   C2322185   1.358   3.050   3.768  0.2703  0.3368  0.5366
  181DOPC   H3R22186   1.452   3.016   3.816 -0.7140 -0.2967  2.0961
  181DOPC   H3S22187   1.291   2.971   3.729  1.4257 -0.7995  0.8030
  181DOPC   C2422188   1.273   3.114   3.875 -0.3372  0.1093  0.1178
  181DOPC   H4R22189   1.176   3.149   3.833  0.0314  1.2948  0.1994
  181DOPC   H4S22190   1.335   3.202   3.904  1.1478 -0.6986 -0.5030
  181DOPC   C2522191   1.263   3.028   4.003 -0.0266 -0.3714  0.7508
  181DOPC   H5R22192   1.369   3.011   4.030  0.5034  1.6382  0.0608
  181DOPC   H5S22193   1.206   2.938   3.972  0.2813 -0.3347  0.0608
  181DOPC   C2622194   1.195   3.098   4.120  0.0455  0.7120  0.2014
  181DOPC   H6R22195   1.090   3.120   4.088 -0.3395 -0.9498  0.2472
  181DOPC   H6S22196   1.245   3.193   4.148  0.5954 -0.1775  2.4576
  181DOPC   C2722197   1.210   3.018   4.250 -1.0066  1.0560  0.1553
  181DOPC   H7R22198   1.315   3.011   4.286 -0.3738  0.0923 -1.7919
  181DOPC   H7S22199   1.175   2.915   4.230  1.8616 -0.4043  1.9281
  181DOPC   C2822200   1.117   3.069   4.361 -0.2807 -0.7003 -0.2411
  181DOPC   H8R22201   1.117   3.002   4.449 -0.9583 -0.9510 -0.4199
  181DOPC   H8S22202   1.013   3.076   4.321 -1.1391 -1.6448  1.7153
  181DOPC   C2922203   1.158   3.204   4.411 -0.4461  0.0574  0.0499
  181DOPC   H9R22204   1.187   3.279   4.336 -3.7577  2.1269  0.6763
  181DOPC  C21022205   1.153   3.247   4.539 -0.7097 -0.3671  0.4860
  181DOPC  H10R22206   1.195   3.346   4.559 -0.5710 -0.0919 -1.0192
  181DOPC  C21122207   1.110   3.164   4.662  0.3581 -0.0040  0.2263
  181DOPC  H11R22208   1.176   3.185   4.749 -1.4760 -1.0782  1.9667
  181DOPC  H11S22209   1.110   3.054   4.650 -0.6149  0.0368 -0.2182
  181DOPC  C21222210   0.971   3.205   4.693  0.0646  0.2419 -0.0341
  181DOPC  H12R22211   0.911   3.200   4.600 -0.9995 -2.3814  0.7152
  181DOPC  H12S22212   0.971   3.305   4.741 -1.2900  0.2645 -0.0542
  181DOPC  C21322213   0.893   3.103   4.780  0.1684 -0.8778 -0.5499
  181DOPC  H13R22214   0.954   3.103   4.873 -3.3786  0.6626  1.9516
  181DOPC  H13S22215   0.904   3.007   4.725  2.8136 -0.9436 -0.0493
  181DOPC  C21422216   0.750   3.153   4.819 -0.1853 -0.6837 -0.4413
  181DOPC  H14R22217   0.753   3.263   4.830  1.0829 -0.8217  0.8602
  181DOPC  H14S22218   0.723   3.108   4.917 -2.6394  2.7485  0.6800
  181DOPC  C21522219   0.628   3.128   4.731 -0.0348  0.0328 -0.2562
  181DOPC  H15R22220   0.627   3.179   4.632 -2.0168  1.0346  0.2331
  181DOPC  H15S22221   0.546   3.185   4.781 -0.1574 -0.5028  0.1592
  181DOPC  C21622222   0.572   2.982   4.710 -0.2551 -0.2855 -0.0912
  181DOPC  H16R22223   0.639   2.910   4.658 -0.0376 -1.8871  2.2100
  181DOPC  H16S22224   0.482   2.988   4.646 -0.6261 -1.1483  0.3347
  181DOPC  C21722225   0.535   2.907   4.845  0.3684  0.3672 -0.3934
  181DOPC  H17R22226   0.624   2.903   4.911 -0.7661  1.0260  1.2235
  181DOPC  H17S22227   0.507   2.802   4.821 -3.1528  1.2338 -0.6224
  181DOPC  C21822228   0.419   2.976   4.929 -1.2582  0.4022  0.4930
  181DOPC  H18R22229   0.408   2.934   5.032 -2.3927  2.1442  1.1209
  181DOPC  H18S22230   0.322   2.970   4.875  0.2788  1.7252 -2.6318
  181DOPC  H18T22231   0.447   3.082   4.943  3.2082 -0.6248  0.8506
  181DOPC   C3322232   1.063   3.493   3.754  0.2841  0.2602 -0.9171
  181DOPC   H3X22233   1.130   3.565   3.702  0.5351  0.8584  0.2106
  181DOPC   H3Y22234   1.105   3.391   3.759 -2.8193 -1.1481 -1.0253
  181DOPC   C3422235   1.039   3.545   3.894  0.0645 -0.4342 -0.6772
  181DOPC   H4X22236   0.939   3.502   3.917 -0.5632  0.1216 -2.2052
  181DOPC   H4Y22237   1.019   3.655   3.893  0.5508 -0.3302  0.1093
  181DOPC   C3522238   1.137   3.509   4.003 -0.2506 -0.1588  0.0857
  181DOPC   H5X22239   1.162   3.401   4.001  1.6333  0.1123  2.8409
  181DOPC   H5Y22240   1.100   3.545   4.102 -0.7744 -1.3889  0.3588
  181DOPC   C3622241   1.273   3.571   3.982  0.2527  0.6696  0.0418
  181DOPC   H6X22242   1.307   3.562   3.876  0.8752 -1.4083  0.3849
  181DOPC   H6Y22243   1.260   3.678   4.009  0.0452  0.6034  0.1984
  181DOPC   C3722244   1.386   3.505   4.067  0.1421  0.0992  0.3439
  181DOPC   H7X22245   1.389   3.402   4.026 -1.2840  0.1730  0.0116
  181DOPC   H7Y22246   1.483   3.553   4.042 -0.3699  1.0208  0.0952
  181DOPC   C3822247   1.363   3.497   4.221  0.2120  0.0401  0.5516
  181DOPC   H8X22248   1.264   3.448   4.232  0.7317 -1.6602 -1.6991
  181DOPC   H8Y22249   1.367   3.602   4.257 -1.3401 -0.0787  1.1528
  181DOPC   C3922250   1.461   3.412   4.299 -0.0323 -0.1821 -0.2555
  181DOPC   H9X22251   1.493   3.317   4.254  2.5755  0.2688  0.4903
  181DOPC  C31022252   1.528   3.444   4.414  0.2320  0.6674  0.2031
  181DOPC  H10X22253   1.581   3.360   4.461 -0.4900 -1.2158 -2.1769
  181DOPC  C31122254   1.527   3.571   4.498  0.2287  0.6474 -0.5468
  181DOPC  H11X22255   1.450   3.637   4.452 -1.6286 -1.9021 -1.3379
  181DOPC  H11Y22256   1.626   3.615   4.473  0.4670 -0.0444 -0.8470
  181DOPC  C31222257   1.516   3.553   4.645  0.0944 -0.6057  0.4935
  181DOPC  H12X22258   1.524   3.656   4.685 -2.2474 -0.2580  0.2407
  181DOPC  H12Y22259   1.600   3.489   4.682 -0.4397 -1.3007  0.5361
  181DOPC  C31322260   1.386   3.496   4.695 -0.1101  0.5451  0.5739
  181DOPC  H13X22261   1.300   3.543   4.643 -0.6429 -1.4858 -0.4943
  181DOPC  H13Y22262   1.390   3.386   4.677  1.6041  0.7176 -0.3208
  181DOPC  C31422263   1.374   3.519   4.850 -0.1300  0.0066  0.2706
  181DOPC  H14X22264   1.460   3.481   4.909 -0.7938  0.8022  1.7840
  181DOPC  H14Y22265   1.373   3.629   4.864 -2.1793 -0.0118  0.5602
  181DOPC  C31522266   1.239   3.466   4.902  0.1592  0.2576 -0.4013
  181DOPC  H15X22267   1.226   3.361   4.868 -0.4332  0.0060  0.5593
  181DOPC  H15Y22268   1.152   3.528   4.869  0.8369  0.6988 -1.4161
  181DOPC  C31622269   1.237   3.468   5.056 -1.0246 -0.6227 -0.1490
  181DOPC  H16X22270   1.308   3.392   5.093 -0.9485 -1.6117 -2.2105
  181DOPC  H16Y22271   1.268   3.569   5.089 -1.3332 -0.6396  0.2043
  181DOPC  C31722272   1.107   3.430   5.115  0.2426 -0.5435  0.1803
  181DOPC  H17X22273   1.119   3.439   5.225 -0.2078 -0.0245  0.1894
  181DOPC  H17Y22274   1.024   3.495   5.080  0.8569 -0.1068 -0.4929
  181DOPC  C31822275   1.045   3.295   5.087 -0.0375  1.0860 -1.0960
  181DOPC  H18X22276   1.113   3.210   5.113 -2.0383 -0.5562 -0.9306
  181DOPC  H18Y22277   0.959   3.272   5.155  0.0263 -0.5364 -1.5094
  181DOPC  H18Z22278   1.010   3.274   4.984 -0.0042 -0.5933 -0.8057
  182DOPC     N22279   2.262   1.588   3.170 -0.0312 -0.6012  0.3894
  182DOPC   C1222280   2.112   1.583   3.174 -0.3706  0.2936 -0.1484
  182DOPC  H12A22281   2.077   1.623   3.080  0.2306  0.3159 -0.3721
  182DOPC  H12B22282   2.078   1.662   3.240  2.7886  1.6046  0.1371
  182DOPC   C1322283   2.313   1.537   3.303  0.4229  0.4363  0.7297
  182DOPC  H13A22284   2.298   1.601   3.388 -0.4674  0.1880  0.7674
  182DOPC  H13B22285   2.260   1.446   3.328 -0.2127  0.6193  0.0715
  182DOPC  H13C22286   2.415   1.505   3.290  0.2289 -1.4825  3.1195
  182DOPC   C1422287   2.307   1.729   3.147  0.2272  0.7398 -0.8683
  182DOPC  H14A22288   2.414   1.739   3.158  0.3151 -0.3889 -0.5452
  182DOPC  H14B22289   2.276   1.765   3.050  0.1925 -1.7094 -1.8365
  182DOPC  H14C22290   2.265   1.790   3.226  0.6879 -1.9968  1.6545
  182DOPC   C1522291   2.317   1.500   3.061  1.1265  0.1110  0.0278
  182DOPC  H15A22292   2.297   1.396   3.079  3.2028  0.0381  2.6201
  182DOPC  H15B22293   2.425   1.505   3.061  1.2988 -2.4476 -0.1520
  182DOPC  H15C22294   2.272   1.529   2.968 -2.1219 -1.3204  1.0292
  182DOPC   C1122295   2.048   1.445   3.193  0.3899  1.4478  0.3435
  182DOPC  H11A22296   1.947   1.456   3.148  1.8212  2.0000 -3.0285
  182DOPC  H11B22297   2.099   1.366   3.134  0.3920  1.2563  0.5983
  182DOPC     P22298   2.050   1.291   3.411 -0.1226  0.0138 -0.5423
  182DOPC   O1322299   2.192   1.257   3.448 -0.0253 -0.4561  0.4096
  182DOPC   O1422300   1.978   1.190   3.331 -0.5386 -0.6659  0.4898
  182DOPC   O1222301   2.042   1.424   3.334 -0.1867 -0.5349 -0.7475
  182DOPC   O1122302   1.959   1.324   3.538 -0.0828 -0.6241  0.1136
  182DOPC    C122303   1.993   1.426   3.634  0.7050 -0.5273  0.0620
  182DOPC    HA22304   1.904   1.485   3.666  1.2994  0.1783  0.4449
  182DOPC    HB22305   2.064   1.502   3.595  0.5794 -0.7597 -0.6404
  182DOPC    C222306   2.057   1.364   3.761  0.4527 -0.7138  0.6383
  182DOPC    HS22307   2.152   1.316   3.730  0.2222  0.4303 -2.0730
  182DOPC   O2122308   1.955   1.286   3.838  0.3556  0.0073 -0.2541
  182DOPC   C2122309   1.987   1.162   3.836  0.8889 -0.5388 -0.0622
  182DOPC   O2222310   2.067   1.103   3.767 -0.3464 -0.0761 -0.1578
  182DOPC   C2222311   1.913   1.096   3.954 -0.0057 -0.0550  0.0198
  182DOPC   H2R22312   1.822   1.043   3.918 -0.4737 -0.0274  1.0978
  182DOPC   H2S22313   1.863   1.175   4.014 -0.9577 -0.7261  0.1281
  182DOPC    C322314   2.111   1.474   3.855 -0.1386  0.1214 -0.2548
  182DOPC    HX22315   2.028   1.516   3.915  1.0366  0.1280  1.4365
  182DOPC    HY22316   2.157   1.545   3.783 -0.9444  0.2024 -0.6939
  182DOPC   O3122317   2.211   1.418   3.944 -0.5299 -0.5946 -0.0091
  182DOPC   C3122318   2.256   1.494   4.041 -0.2165 -0.8261  0.1503
  182DOPC   O3222319   2.213   1.606   4.070  0.1649 -0.8221 -0.5529
  182DOPC   C3222320   2.371   1.418   4.112  0.0801 -0.0004  0.5869
  182DOPC   H2X22321   2.385   1.324   4.054  0.4842 -0.0944  0.8360
  182DOPC   H2Y22322   2.465   1.476   4.107  0.5534 -0.7882  0.0841
  182DOPC   C2322323   2.013   1.019   4.046 -0.1392  0.0080  0.1838
  182DOPC   H3R22324   1.975   1.027   4.150  2.5979  1.2329  1.1901
  182DOPC   H3S22325   2.106   1.079   4.052  0.8893 -1.0779 -2.7971
  182DOPC   C2422326   2.039   0.870   4.012 -0.0405  0.2692 -0.6749
  182DOPC   H4R22327   2.116   0.832   4.082 -0.6815 -0.7134 -0.4901
  182DOPC   H4S22328   2.085   0.859   3.912  0.2730  3.1129 -0.9419
  182DOPC   C2522329   1.922   0.777   4.030 -0.3701  0.1298  0.2521
  182DOPC   H5R22330   1.856   0.779   3.941 -0.3118 -1.3635  0.1541
  182DOPC   H5S22331   1.867   0.807   4.122 -0.5821  0.7094 -0.0532
  182DOPC   C2622332   1.963   0.632   4.060 -0.2038  0.1238 -0.6152
  182DOPC   H6R22333   2.036   0.599   3.983 -0.1358 -1.8784  0.2505
  182DOPC   H6S22334   1.875   0.564   4.058  0.3164 -0.5389 -2.2959
  182DOPC   C2722335   2.044   0.607   4.190 -0.6534 -0.4951 -0.1608
  182DOPC   H7R22336   2.141   0.662   4.196 -2.0060  1.9654  0.5467
  182DOPC   H7S22337   2.078   0.502   4.184  0.3415 -0.2454  0.7187
  182DOPC   C2822338   1.968   0.626   4.326 -0.8770  0.0233  0.3542
  182DOPC   H8R22339   1.882   0.556   4.315 -1.3432  0.0738  3.1135
  182DOPC   H8S22340   1.930   0.730   4.328  1.2487  0.8826 -0.4993
  182DOPC   C2922341   2.056   0.595   4.449 -0.3941 -0.0307 -0.1258
  182DOPC   H9R22342   2.144   0.534   4.425 -0.7980 -0.2668 -1.0416
  182DOPC  C21022343   2.039   0.648   4.570 -0.2203 -0.3938 -0.4876
  182DOPC  H10R22344   2.083   0.596   4.657  1.1941  0.1923 -0.8298
  182DOPC  C21122345   1.926   0.746   4.605  0.2783  0.5076 -0.1858
  182DOPC  H11R22346   1.840   0.735   4.535  0.4245 -0.4772 -0.2158
  182DOPC  H11S22347   1.962   0.850   4.589  1.1921  0.6118  2.2054
  182DOPC  C21222348   1.889   0.735   4.757  0.3946  0.2703 -0.0438
  182DOPC  H12R22349   1.962   0.786   4.823 -1.4846  0.8771  1.6905
  182DOPC  H12S22350   1.879   0.629   4.790 -1.4977  0.6869  0.8731
  182DOPC  C21322351   1.751   0.798   4.786 -0.0872  0.4301  0.0475
  182DOPC  H13R22352   1.682   0.760   4.708 -0.1898  0.8799 -0.0840
  182DOPC  H13S22353   1.752   0.907   4.762  1.1835  0.3103 -0.5011
  182DOPC  C21422354   1.692   0.798   4.929 -0.7220  0.0851  0.8447
  182DOPC  H14R22355   1.603   0.865   4.927 -0.1903  0.8178  1.1942
  182DOPC  H14S22356   1.761   0.848   5.001 -0.4588 -0.2426  0.8255
  182DOPC  C21522357   1.663   0.660   4.983 -0.3856 -0.7905 -0.4759
  182DOPC  H15R22358   1.756   0.601   4.974 -1.1272 -1.8912 -1.0454
  182DOPC  H15S22359   1.598   0.608   4.910 -1.9695  1.3044 -0.6762
  182DOPC  C21622360   1.605   0.662   5.125 -1.3134 -0.3580 -0.0645
  182DOPC  H16R22361   1.664   0.727   5.193  0.7664 -2.7909  0.5789
  182DOPC  H16S22362   1.617   0.556   5.155  3.0561 -0.5056 -1.7511
  182DOPC  C21722363   1.449   0.681   5.120 -0.3040 -0.4476 -0.3313
  182DOPC  H17R22364   1.406   0.594   5.066 -0.3936  0.0447 -1.0661
  182DOPC  H17S22365   1.426   0.771   5.059 -3.5553  0.4299  1.9341
  182DOPC  C21822366   1.385   0.693   5.261  0.0274  0.6623 -0.7248
  182DOPC  H18R22367   1.437   0.768   5.323  0.5185 -0.1564 -0.1291
  182DOPC  H18S22368   1.398   0.594   5.309  1.6884  1.1570 -0.1269
  182DOPC  H18T22369   1.276   0.717   5.259 -0.1205  0.0431 -0.1845
  182DOPC   C3322370   2.354   1.392   4.259  0.4991 -0.2128 -0.0213
  182DOPC   H3X22371   2.263   1.337   4.292  1.7014 -1.2333  1.7915
  182DOPC   H3Y22372   2.365   1.485   4.318  0.7319  0.8089 -1.6179
  182DOPC   C3422373   2.457   1.295   4.312 -0.0424 -0.3742 -1.2404
  182DOPC   H4X22374   2.452   1.194   4.267 -0.1501 -0.8778 -0.1208
  182DOPC   H4Y22375   2.438   1.278   4.420  1.5086  0.8708 -0.7248
  182DOPC   C3522376   2.596   1.357   4.311  0.0390  0.2320  0.4090
  182DOPC   H5X22377   2.597   1.453   4.365 -2.8043 -1.8217  4.6748
  182DOPC   H5Y22378   2.634   1.371   4.208 -0.7012 -2.6955 -0.3578
  182DOPC   C3622379   2.701   1.274   4.381 -0.1768  0.2239  0.3445
  182DOPC   H6X22380   2.713   1.289   4.491 -0.4823  0.1469  0.3892
  182DOPC   H6Y22381   2.695   1.168   4.350  1.5032 -0.6714  2.7318
  182DOPC   C3722382   2.837   1.316   4.325 -0.9335 -0.4764  0.2608
  182DOPC   H7X22383   2.898   1.236   4.371  0.1881  1.6266  2.7166
  182DOPC   H7Y22384   2.853   1.300   4.217  1.2538 -0.1785  0.5064
  182DOPC   C3822385   2.881   1.460   4.379 -0.3808  0.1557  0.4068
  182DOPC   H8X22386   2.839   1.477   4.480 -0.7338 -0.2161  0.3287
  182DOPC   H8Y22387   2.843   1.533   4.304 -1.3423 -1.7718 -1.0894
  182DOPC   C3922388   3.036   1.464   4.375  0.3363  0.0049  0.4444
  182DOPC   H9X22389   3.089   1.451   4.279  0.4086 -2.3415  0.7448
  182DOPC  C31022390   3.115   1.473   4.477  0.2066  0.4487 -0.7581
  182DOPC  H10X22391   3.224   1.466   4.459  0.4114 -0.3276  0.6733
  182DOPC  C31122392   3.078   1.479   4.621 -0.1816  0.2066  0.3914
  182DOPC  H11X22393   3.145   1.434   4.696 -1.7988 -0.0847  1.7156
  182DOPC  H11Y22394   2.971   1.451   4.639 -0.3089  1.4516  1.7132
  182DOPC  C31222395   3.090   1.630   4.659 -0.1479 -0.8798  0.3925
  182DOPC  H12X22396   3.035   1.636   4.754  0.0805  0.5748  0.4558
  182DOPC  H12Y22397   3.033   1.701   4.595 -0.8151 -1.1472  0.6911
  182DOPC  C31322398   3.233   1.669   4.678  0.8389 -0.5599 -0.5126
  182DOPC  H13X22399   3.290   1.579   4.709 -1.0721 -2.4657 -2.2869
  182DOPC  H13Y22400   3.269   1.679   4.574 -0.5451 -1.4287 -1.0966
  182DOPC  C31422401   3.249   1.796   4.773  0.1879  0.2534 -0.1988
  182DOPC  H14X22402   3.234   1.892   4.720 -4.0584 -0.6349 -0.9955
  182DOPC  H14Y22403   3.168   1.804   4.849 -0.5687  0.8781 -1.0492
  182DOPC  C31522404   3.379   1.784   4.859 -0.4078  0.7893  0.3816
  182DOPC  H15X22405   3.473   1.783   4.800  0.6012  3.3856  1.7785
  182DOPC  H15Y22406   3.368   1.691   4.919  1.3971  0.2317 -0.0808
  182DOPC  C31622407   3.381   1.914   4.943  0.1000  0.3469 -0.0394
  182DOPC  H16X22408   3.443   1.982   4.882  0.1912  1.6601  1.4396
  182DOPC  H16Y22409   3.287   1.970   4.961 -0.7730 -0.1598 -2.5767
  182DOPC  C31722410   3.462   1.894   5.070  1.1265  0.3005  0.4750
  182DOPC  H17X22411   3.417   1.811   5.128  0.9921  1.9949  2.9953
  182DOPC  H17Y22412   3.565   1.871   5.036  0.2345 -1.0949 -1.4860
  182DOPC  C31822413   3.460   2.016   5.159 -0.3244  0.5138 -0.9011
  182DOPC  H18X22414   3.481   2.113   5.109 -0.2376 -0.2575 -2.4022
  182DOPC  H18Y22415   3.365   2.021   5.217 -1.1799  1.9788 -2.3437
  182DOPC  H18Z22416   3.548   2.005   5.226  2.2810 -0.1458 -4.1803
  183DOPC     N22417   7.126   5.428   2.567 -0.1305  0.1694  0.4869
  183DOPC   C1222418   7.265   5.475   2.612  0.2077 -0.3630 -0.3855
  183DOPC  H12A22419   7.274   5.583   2.607 -1.1085  0.0022  2.6374
  183DOPC  H12B22420   7.332   5.441   2.535  1.2891  0.3142  0.2396
  183DOPC   C1322421   7.026   5.504   2.642 -0.1153 -0.0127 -0.3091
  183DOPC  H13A22422   7.042   5.486   2.747 -1.1530 -1.5561 -0.3852
  183DOPC  H13B22423   7.032   5.612   2.643  0.0067  0.0694  3.4030
  183DOPC  H13C22424   6.929   5.470   2.608 -1.7070  2.7310  1.2207
  183DOPC   C1422425   7.106   5.287   2.590 -0.1462  0.4342  0.4052
  183DOPC  H14A22426   7.175   5.232   2.527  0.3063  0.5308  0.8114
  183DOPC  H14B22427   7.128   5.256   2.691  0.9504 -1.1110 -0.2749
  183DOPC  H14C22428   7.006   5.255   2.565 -0.1217 -0.1286  0.9967
  183DOPC   C1522429   7.119   5.445   2.424 -0.6311  0.6594  0.1001
  183DOPC  H15A22430   7.190   5.385   2.369 -0.5155  3.2652 -2.8374
  183DOPC  H15B22431   7.141   5.544   2.390  1.2031  0.1411 -0.3491
  183DOPC  H15C22432   7.024   5.416   2.382  0.6577 -1.4940 -1.5383
  183DOPC   C1122433   7.334   5.426   2.742  0.6135 -0.8393  0.4083
  183DOPC  H11A22434   7.331   5.315   2.731  0.5902 -0.7867 -0.1634
  183DOPC  H11B22435   7.442   5.451   2.748  0.2389  1.4452 -1.0689
  183DOPC     P22436   7.315   5.561   2.962  0.3990 -0.1679  0.3337
  183DOPC   O1322437   7.220   5.584   3.068  0.4662 -0.0886  0.2345
  183DOPC   O1422438   7.372   5.674   2.889  0.5797  0.1767  0.3279
  183DOPC   O1222439   7.252   5.469   2.855 -0.0303 -0.2551  0.2255
  183DOPC   O1122440   7.438   5.471   3.014 -0.7298 -0.4514 -0.6876
  183DOPC    C122441   7.405   5.351   3.085 -0.8508  0.1718 -0.4585
  183DOPC    HA22442   7.422   5.266   3.015  0.5740  0.5354 -0.5926
  183DOPC    HB22443   7.297   5.346   3.111 -1.1408 -1.4098 -1.8001
  183DOPC    C222444   7.484   5.341   3.215 -0.2033 -0.0614  0.4778
  183DOPC    HS22445   7.445   5.250   3.265 -0.2541 -0.7928 -0.8480
  183DOPC   O2122446   7.465   5.467   3.288  0.2482 -0.3837  0.2786
  183DOPC   C2122447   7.338   5.481   3.343  0.7945 -0.1285 -0.0641
  183DOPC   O2222448   7.254   5.392   3.349  0.2644  0.0031 -0.3412
  183DOPC   C2222449   7.316   5.622   3.387 -0.0614  0.7734  0.1396
  183DOPC   H2R22450   7.298   5.677   3.292  1.2945  1.1851  0.0975
  183DOPC   H2S22451   7.412   5.666   3.422  0.1881  0.4353 -0.1162
  183DOPC    C322452   7.634   5.304   3.184 -0.0582 -0.2423  0.0104
  183DOPC    HX22453   7.665   5.394   3.126 -1.6351  0.6690  0.5193
  183DOPC    HY22454   7.640   5.209   3.127  3.0358  0.1235 -0.4637
  183DOPC   O3122455   7.712   5.292   3.300 -0.1021  0.1581 -0.1317
  183DOPC   C3122456   7.847   5.310   3.295 -0.6733  0.7417  0.4226
  183DOPC   O3222457   7.911   5.341   3.197  0.0033  0.1687  0.7837
  183DOPC   C3222458   7.899   5.291   3.436  1.1105  0.0842 -0.3117
  183DOPC   H2X22459   7.854   5.376   3.492 -0.3315 -0.3014 -0.8461
  183DOPC   H2Y22460   7.852   5.201   3.479  0.6757  0.6444  0.3976
  183DOPC   C2322461   7.190   5.644   3.478 -0.2316 -0.0455 -0.0589
  183DOPC   H3R22462   7.094   5.590   3.461 -1.3670  2.3937 -2.0841
  183DOPC   H3S22463   7.169   5.745   3.437  0.4035  0.7314  1.4901
  183DOPC   C2422464   7.230   5.659   3.624  0.2323  0.3629 -0.0258
  183DOPC   H4R22465   7.331   5.706   3.624 -0.2286  1.3962  0.5674
  183DOPC   H4S22466   7.235   5.555   3.660  0.3120  0.2353 -0.4026
  183DOPC   C2522467   7.141   5.753   3.709 -0.2859  0.4836  0.3651
  183DOPC   H5R22468   7.033   5.729   3.698 -0.2784  0.8246 -0.5498
  183DOPC   H5S22469   7.150   5.853   3.661  1.3828  0.4388  0.5532
  183DOPC   C2622470   7.169   5.747   3.861 -0.1387 -0.5403 -0.2491
  183DOPC   H6R22471   7.256   5.811   3.887 -0.9759  0.5610 -0.1202
  183DOPC   H6S22472   7.189   5.641   3.889 -1.8389 -1.3510 -1.8635
  183DOPC   C2722473   7.053   5.803   3.955  0.3729  1.0921  0.2075
  183DOPC   H7R22474   6.957   5.770   3.910  0.8709  1.9084 -1.5289
  183DOPC   H7S22475   7.038   5.912   3.940 -0.5333  1.0437  0.6614
  183DOPC   C2822476   7.059   5.769   4.106  0.1107  0.2566  0.3952
  183DOPC   H8R22477   7.073   5.659   4.114 -0.2557  0.2345  0.7887
  183DOPC   H8S22478   6.960   5.774   4.156 -0.3263 -0.3409 -0.3866
  183DOPC   C2922479   7.161   5.838   4.195  0.5739 -0.4466  0.0979
  183DOPC   H9R22480   7.121   5.925   4.249 -2.5408 -1.5197 -0.2402
  183DOPC  C21022481   7.293   5.820   4.200 -0.1991  0.2684  0.0739
  183DOPC  H10R22482   7.357   5.885   4.262 -1.3027  0.8049  0.6762
  183DOPC  C21122483   7.376   5.724   4.128 -0.4833  0.1260 -0.4688
  183DOPC  H11R22484   7.444   5.773   4.056  0.9848  0.8319  1.3269
  183DOPC  H11S22485   7.306   5.651   4.081  0.0108 -0.9795  0.4391
  183DOPC  C21222486   7.464   5.638   4.226  0.3201  0.4921  0.1673
  183DOPC  H12R22487   7.392   5.588   4.295 -2.1742  1.8853 -1.2408
  183DOPC  H12S22488   7.526   5.712   4.280  0.7806 -0.4393  0.9207
  183DOPC  C21322489   7.560   5.546   4.149 -0.5648  0.0019 -1.0781
  183DOPC  H13R22490   7.629   5.597   4.078 -0.7662 -0.8513 -1.9075
  183DOPC  H13S22491   7.501   5.471   4.092  2.9472 -2.5206 -1.7089
  183DOPC  C21422492   7.645   5.447   4.239 -0.8252  0.0971  0.8272
  183DOPC  H14R22493   7.573   5.393   4.303  2.1498 -2.3436  2.3376
  183DOPC  H14S22494   7.712   5.511   4.301  1.2700  0.4398 -1.6130
  183DOPC  C21522495   7.718   5.332   4.160 -0.1875  0.1858  0.2232
  183DOPC  H15R22496   7.639   5.277   4.104 -1.5677 -0.4068  2.6148
  183DOPC  H15S22497   7.768   5.263   4.231 -0.7648  1.4707  1.9277
  183DOPC  C21622498   7.829   5.385   4.072  0.3293 -0.0566 -0.5231
  183DOPC  H16R22499   7.903   5.441   4.132  0.5359  0.5941 -1.3704
  183DOPC  H16S22500   7.787   5.442   3.986 -1.6421 -1.1684 -0.3527
  183DOPC  C21722501   7.895   5.269   4.000 -0.2307 -0.4241 -0.2423
  183DOPC  H17R22502   7.817   5.199   3.962 -0.1438  0.8203 -2.9668
  183DOPC  H17S22503   7.954   5.223   4.082  0.0510 -0.3417 -0.3993
  183DOPC  C21822504   7.973   5.318   3.886 -0.5159  0.1951  0.1211
  183DOPC  H18R22505   7.912   5.371   3.810 -0.0424  0.3716 -0.1441
  183DOPC  H18S22506   8.009   5.224   3.838  1.5225  0.8745  0.2262
  183DOPC  H18T22507   8.058   5.376   3.928 -0.6797  0.3208  0.2760
  183DOPC   C3322508   8.048   5.281   3.437 -0.6781  0.8337  0.0308
  183DOPC   H3X22509   8.090   5.217   3.357 -0.7110  0.3343  0.4069
  183DOPC   H3Y22510   8.068   5.232   3.534 -1.2485  2.0672  0.7971
  183DOPC   C3422511   8.121   5.416   3.446 -0.0917 -0.1724 -0.1740
  183DOPC   H4X22512   8.127   5.442   3.554 -0.3250 -1.7798  0.2488
  183DOPC   H4Y22513   8.058   5.493   3.396 -2.5863  0.4047  3.4973
  183DOPC   C3522514   8.266   5.411   3.390 -0.0436 -0.4247  0.3610
  183DOPC   H5X22515   8.290   5.511   3.348  0.9711 -0.8932 -0.2020
  183DOPC   H5Y22516   8.267   5.351   3.296  0.1034  1.7415 -1.0761
  183DOPC   C3622517   8.374   5.360   3.485 -0.2565  0.0212 -0.7146
  183DOPC   H6X22518   8.376   5.408   3.585  0.1781 -2.4509  0.5346
  183DOPC   H6Y22519   8.369   5.250   3.491 -2.1963  0.0287 -1.5868
  183DOPC   C3722520   8.516   5.405   3.433 -0.6107 -0.1870 -0.7108
  183DOPC   H7X22521   8.541   5.382   3.327 -0.7453  1.5052 -1.1351
  183DOPC   H7Y22522   8.529   5.514   3.449 -1.2082 -0.0672 -0.9912
  183DOPC   C3822523   8.626   5.342   3.522 -0.1418  0.3865 -0.0148
  183DOPC   H8X22524   8.644   5.241   3.480 -1.6646  0.6239 -1.3419
  183DOPC   H8Y22525   8.575   5.331   3.620 -2.3878  1.6403 -0.9528
  183DOPC   C3922526   8.755   5.430   3.539  0.3874 -0.1204 -0.4551
  183DOPC   H9X22527   8.821   5.426   3.451 -0.6292 -0.4254 -1.2266
  183DOPC  C31022528   8.802   5.500   3.646 -0.4372 -0.1554  0.4964
  183DOPC  H10X22529   8.901   5.548   3.644 -0.4533 -0.1348  0.2250
  183DOPC  C31122530   8.724   5.509   3.774 -0.3821 -0.6834 -1.2765
  183DOPC  H11X22531   8.614   5.520   3.759 -0.4038  0.9633 -0.1769
  183DOPC  H11Y22532   8.760   5.607   3.813 -0.3976 -0.9250 -0.6381
  183DOPC  C31222533   8.764   5.400   3.877  0.4363 -1.0571 -0.3310
  183DOPC  H12X22534   8.872   5.418   3.899  0.5631 -0.9755 -0.9827
  183DOPC  H12Y22535   8.751   5.301   3.828 -0.3691 -0.8549 -0.5378
  183DOPC  C31322536   8.694   5.409   4.010  0.4571  0.2559 -0.1062
  183DOPC  H13X22537   8.698   5.511   4.054 -3.0753 -0.3913  2.1966
  183DOPC  H13Y22538   8.588   5.378   4.000  1.3213 -2.1799 -2.9186
  183DOPC  C31422539   8.755   5.295   4.101 -0.8941 -0.7836  0.2544
  183DOPC  H14X22540   8.751   5.201   4.042  3.8931 -0.4494 -0.9593
  183DOPC  H14Y22541   8.865   5.303   4.109 -0.5722 -4.1963  0.7161
  183DOPC  C31522542   8.695   5.294   4.238 -0.1371  0.2931  0.2806
  183DOPC  H15X22543   8.696   5.189   4.276 -1.2187  0.4065  0.6496
  183DOPC  H15Y22544   8.593   5.336   4.234 -0.4948 -0.6687 -2.4859
  183DOPC  C31622545   8.769   5.384   4.344  0.7708  0.4885  0.0714
  183DOPC  H16X22546   8.868   5.407   4.300  0.4961 -0.6067 -1.1803
  183DOPC  H16Y22547   8.710   5.476   4.363 -0.5337 -0.2074 -0.4609
  183DOPC  C31722548   8.801   5.320   4.484 -0.6899 -0.1212  1.0303
  183DOPC  H17X22549   8.861   5.226   4.491 -0.8247 -0.1345  2.3405
  183DOPC  H17Y22550   8.868   5.402   4.518 -0.6133  0.6575 -0.9051
  183DOPC  C31822551   8.679   5.304   4.579 -0.5101 -0.1975  0.2407
  183DOPC  H18X22552   8.714   5.259   4.674  0.5998 -0.6235 -0.3404
  183DOPC  H18Y22553   8.648   5.410   4.591  0.6610  0.3984 -1.5463
  183DOPC  H18Z22554   8.608   5.234   4.531 -0.6554  0.4744 -0.5661
  184DOPC     N22555   7.036   1.519   2.967 -0.7689  0.2438  0.8158
  184DOPC   C1222556   6.911   1.604   2.965  0.6908  0.2626 -0.3890
  184DOPC  H12A22557   6.869   1.581   2.868 -0.4247 -1.0584  0.3752
  184DOPC  H12B22558   6.950   1.705   2.958  0.7537  0.1462 -2.3902
  184DOPC   C1322559   7.129   1.548   3.083 -0.0430  0.9039 -0.3624
  184DOPC  H13A22560   7.208   1.475   3.078 -0.4038  0.4734  0.1363
  184DOPC  H13B22561   7.175   1.644   3.066 -0.4823  1.1461 -0.1986
  184DOPC  H13C22562   7.086   1.532   3.181  1.3715  3.1640  0.7018
  184DOPC   C1422563   7.122   1.543   2.842 -0.6420  0.0596  0.2233
  184DOPC  H14A22564   7.059   1.549   2.754 -0.4448 -0.0632  0.0726
  184DOPC  H14B22565   7.176   1.637   2.839 -0.5256 -0.0009  0.4405
  184DOPC  H14C22566   7.186   1.457   2.830 -1.2226 -0.2351 -0.9635
  184DOPC   C1522567   6.989   1.374   2.965 -0.2824  0.3899 -0.2051
  184DOPC  H15A22568   6.917   1.367   2.885  0.5821 -1.5697 -0.8624
  184DOPC  H15B22569   6.937   1.352   3.057 -0.8571 -0.4287 -0.7156
  184DOPC  H15C22570   7.062   1.297   2.947 -2.0457 -1.4369  0.1545
  184DOPC   C1122571   6.810   1.577   3.084 -0.3333  0.0850  0.1615
  184DOPC  H11A22572   6.861   1.585   3.182  2.1562 -0.1238 -1.0441
  184DOPC  H11B22573   6.747   1.668   3.090  0.1166  0.3556  0.9361
  184DOPC     P22574   6.629   1.435   2.942 -0.0554 -0.2461  0.1951
  184DOPC   O1322575   6.526   1.329   2.977 -0.0279 -0.7414 -0.3236
  184DOPC   O1422576   6.710   1.411   2.819  0.5037  0.1321 -0.0301
  184DOPC   O1222577   6.733   1.461   3.070  0.6775  0.2301  0.3493
  184DOPC   O1122578   6.562   1.572   2.925  0.0601 -0.0328  0.0183
  184DOPC    C122579   6.446   1.615   3.001  0.7599 -0.6649 -0.1075
  184DOPC    HA22580   6.484   1.650   3.100 -0.1108 -1.6973  0.6134
  184DOPC    HB22581   6.373   1.534   3.023 -0.0718 -0.1052 -0.7468
  184DOPC    C222582   6.372   1.741   2.941 -0.1793 -0.5848  0.2542
  184DOPC    HS22583   6.353   1.732   2.832 -1.5008  2.0095  0.1833
  184DOPC   O2122584   6.458   1.851   2.962 -0.5551 -0.3859  0.0055
  184DOPC   C2122585   6.446   1.957   2.881  0.3205  0.3975 -0.5509
  184DOPC   O2222586   6.362   1.977   2.794  0.1056  0.3180 -0.8787
  184DOPC   C2222587   6.558   2.052   2.916 -0.3295  0.3104  0.0594
  184DOPC   H2R22588   6.655   2.023   2.871 -0.4092  0.0199  0.0729
  184DOPC   H2S22589   6.570   2.060   3.027  0.7202  2.4747 -0.1543
  184DOPC    C322590   6.238   1.771   3.006  0.5121 -0.3464 -0.1581
  184DOPC    HX22591   6.164   1.698   2.967  0.0570  0.3513 -0.6206
  184DOPC    HY22592   6.205   1.874   2.979  0.7118 -0.4909 -0.9650
  184DOPC   O3122593   6.250   1.755   3.150  0.1143  0.2277 -0.9566
  184DOPC   C3122594   6.261   1.867   3.224  0.2968 -0.2209  0.3383
  184DOPC   O3222595   6.284   1.978   3.187 -0.1253 -0.4838  0.1941
  184DOPC   C3222596   6.266   1.820   3.372  0.0880 -0.1239 -0.7457
  184DOPC   H2X22597   6.206   1.727   3.380  1.9423 -1.3657 -0.6087
  184DOPC   H2Y22598   6.373   1.801   3.396  0.5563  3.8717  1.1116
  184DOPC   C2322599   6.532   2.196   2.866  0.3927  0.3488 -0.2246
  184DOPC   H3R22600   6.532   2.198   2.755 -2.9682  0.3535 -0.3015
  184DOPC   H3S22601   6.614   2.267   2.890  1.2434 -0.5026 -0.5289
  184DOPC   C2422602   6.413   2.268   2.932 -0.9014  0.3859  0.3680
  184DOPC   H4R22603   6.325   2.203   2.917  0.5107 -2.0395  1.8645
  184DOPC   H4S22604   6.402   2.362   2.873  1.7944  1.1140  0.8620
  184DOPC   C2522605   6.444   2.293   3.082  0.2439  0.0901 -0.6499
  184DOPC   H5R22606   6.549   2.328   3.091  1.3680 -3.0128 -0.6780
  184DOPC   H5S22607   6.438   2.200   3.142  2.1995  0.5542  0.3378
  184DOPC   C2622608   6.344   2.384   3.138  0.5609  0.3627 -0.6708
  184DOPC   H6R22609   6.249   2.329   3.121  0.3095 -0.0373  1.7298
  184DOPC   H6S22610   6.342   2.482   3.086  0.6608  0.6220 -0.1909
  184DOPC   C2722611   6.341   2.411   3.288  0.6979 -0.6614  0.3511
  184DOPC   H7R22612   6.435   2.456   3.326  0.1245  0.6268  0.2936
  184DOPC   H7S22613   6.330   2.312   3.337 -1.6620 -0.9512 -0.6437
  184DOPC   C2822614   6.210   2.495   3.324 -1.1296  0.2482  0.2496
  184DOPC   H8R22615   6.208   2.589   3.265 -0.9613  0.3107  0.3431
  184DOPC   H8S22616   6.223   2.508   3.434 -0.7321  1.5107  0.0703
  184DOPC   C2922617   6.083   2.418   3.293 -0.5805  0.0862 -0.1835
  184DOPC   H9R22618   6.063   2.417   3.185 -1.5744  0.2216 -0.0175
  184DOPC  C21022619   5.998   2.360   3.389 -0.5903 -0.4587  0.4361
  184DOPC  H10R22620   5.904   2.319   3.348  0.0517 -1.5754  0.0246
  184DOPC  C21122621   6.014   2.361   3.541  0.4004  0.4636  0.5830
  184DOPC  H11R22622   6.117   2.322   3.555  0.1618 -0.8068 -0.8282
  184DOPC  H11S22623   5.954   2.284   3.595  0.1339  0.0387 -0.2948
  184DOPC  C21222624   5.998   2.485   3.631 -0.4534  0.7621  0.0612
  184DOPC  H12R22625   5.895   2.518   3.606 -0.9517  1.1510  2.4097
  184DOPC  H12S22626   6.072   2.565   3.608 -0.3154  0.5396 -0.2813
  184DOPC  C21322627   6.022   2.452   3.778  0.2231 -0.2162 -1.3330
  184DOPC  H13R22628   6.131   2.435   3.791  0.2502 -0.8098 -2.2619
  184DOPC  H13S22629   5.969   2.364   3.822 -1.1532  0.4417 -1.6031
  184DOPC  C21422630   5.975   2.566   3.864  0.3380 -0.3972  0.1841
  184DOPC  H14R22631   5.865   2.551   3.864 -0.0578  1.8561  2.0969
  184DOPC  H14S22632   5.989   2.663   3.812  0.4729  0.2225  1.3222
  184DOPC  C21522633   6.035   2.566   4.008 -0.0843 -0.0104  0.2611
  184DOPC  H15R22634   6.144   2.585   3.998 -0.1585  0.4706  0.3417
  184DOPC  H15S22635   6.017   2.469   4.058 -1.5102 -0.0835 -0.3437
  184DOPC  C21622636   5.956   2.669   4.087  0.0690  0.0197  0.4803
  184DOPC  H16R22637   5.848   2.644   4.081 -0.3339  1.7941 -0.6105
  184DOPC  H16S22638   5.970   2.767   4.037  2.6518 -1.0861 -1.1841
  184DOPC  C21722639   6.003   2.683   4.234  0.4790  0.9997  0.3277
  184DOPC  H17R22640   6.096   2.743   4.226  1.7832 -1.1290 -1.9893
  184DOPC  H17S22641   6.034   2.584   4.276 -0.4126 -0.5675 -2.4448
  184DOPC  C21822642   5.898   2.749   4.324  0.3843 -0.0421 -0.2228
  184DOPC  H18R22643   5.949   2.767   4.421  1.8676 -1.9813 -0.5868
  184DOPC  H18S22644   5.802   2.693   4.320 -0.2861  1.1114 -0.7760
  184DOPC  H18T22645   5.867   2.852   4.294 -1.4816 -0.4172  0.3032
  184DOPC   C3322646   6.210   1.942   3.455  0.0957  0.1158  0.1032
  184DOPC   H3X22647   6.126   1.992   3.403  0.5915  0.2850 -0.5533
  184DOPC   H3Y22648   6.291   2.018   3.453  0.0983  0.0935 -1.1373
  184DOPC   C3422649   6.169   1.911   3.597 -0.0278 -0.0739 -0.1283
  184DOPC   H4X22650   6.075   1.851   3.599 -1.3922  1.9927  0.2378
  184DOPC   H4Y22651   6.151   2.011   3.642  0.3561  0.3487 -0.8926
  184DOPC   C3522652   6.274   1.838   3.678 -0.1969 -0.8401  1.0390
  184DOPC   H5X22653   6.365   1.901   3.675 -1.1789  0.5775 -0.2561
  184DOPC   H5Y22654   6.303   1.736   3.644  0.1471  0.9853 -5.3908
  184DOPC   C3622655   6.242   1.830   3.823  0.8013 -0.7726  0.3317
  184DOPC   H6X22656   6.158   1.902   3.833  1.4442  0.1582 -0.7691
  184DOPC   H6Y22657   6.205   1.728   3.848  2.4958 -1.2656  0.9924
  184DOPC   C3722658   6.357   1.871   3.916  0.2953  0.3467 -0.3788
  184DOPC   H7X22659   6.451   1.816   3.893 -0.4615 -1.6076  0.9386
  184DOPC   H7Y22660   6.382   1.979   3.912 -1.1830  0.6760 -1.7966
  184DOPC   C3822661   6.322   1.862   4.069  0.1072  0.6127 -0.4381
  184DOPC   H8X22662   6.417   1.871   4.125  0.0314  0.1437 -0.2329
  184DOPC   H8Y22663   6.261   1.773   4.096 -0.3826  0.6586 -1.3348
  184DOPC   C3922664   6.237   1.980   4.111  0.9859  0.7465  0.1823
  184DOPC   H9X22665   6.208   2.042   4.024  0.8847  0.0385 -0.3013
  184DOPC  C31022666   6.204   2.021   4.236 -0.1672  0.1938 -0.0406
  184DOPC  H10X22667   6.140   2.110   4.249 -1.3370 -0.7029  0.3991
  184DOPC  C31122668   6.261   1.951   4.358  0.3004  0.2985  0.4006
  184DOPC  H11X22669   6.338   1.879   4.323  0.1052 -0.0537  0.6994
  184DOPC  H11Y22670   6.181   1.893   4.408  0.6698  0.7664  1.5709
  184DOPC  C31222671   6.327   2.042   4.461 -0.4335  0.2559 -0.4706
  184DOPC  H12X22672   6.245   2.104   4.503  0.1624  0.1782  0.8753
  184DOPC  H12Y22673   6.398   2.110   4.410  0.6463  1.2798  2.2212
  184DOPC  C31322674   6.407   1.968   4.572 -0.1851  0.6820  0.3081
  184DOPC  H13X22675   6.342   1.905   4.637  1.2741  0.0110  1.1645
  184DOPC  H13Y22676   6.479   1.898   4.524 -0.0561  0.9441  0.1147
  184DOPC  C31422677   6.491   2.068   4.656  0.4579  0.3564  0.7688
  184DOPC  H14X22678   6.538   2.150   4.598  0.7120  1.5388  2.5598
  184DOPC  H14Y22679   6.420   2.113   4.729 -1.0683 -2.8495  1.4789
  184DOPC  C31522680   6.594   2.006   4.746 -0.4536 -0.4221 -0.4444
  184DOPC  H15X22681   6.689   1.987   4.693  1.9346 -2.8896  4.0478
  184DOPC  H15Y22682   6.558   1.918   4.804 -0.5241 -0.1580 -0.0816
  184DOPC  C31622683   6.636   2.113   4.853 -0.0827  0.1702  0.3077
  184DOPC  H16X22684   6.645   2.214   4.807 -1.6579 -0.1304 -0.7601
  184DOPC  H16Y22685   6.568   2.125   4.940  2.3551  2.8305  2.0164
  184DOPC  C31722686   6.775   2.075   4.909  0.1586  0.7343  0.0128
  184DOPC  H17X22687   6.775   1.970   4.943  0.9950  1.1440  1.3409
  184DOPC  H17Y22688   6.851   2.080   4.828  0.1314 -2.4948 -0.3134
  184DOPC  C31822689   6.832   2.155   5.024  0.1091 -0.4232  0.6173
  184DOPC  H18X22690   6.762   2.133   5.108 -0.6935 -0.0957  0.0449
  184DOPC  H18Y22691   6.934   2.117   5.047  0.8230  0.8651 -0.2445
  184DOPC  H18Z22692   6.831   2.263   4.998  1.5078 -0.6637 -0.5551
  185DOPC     N22693   6.208   5.420   2.539  0.6176 -0.4134  0.0333
  185DOPC   C1222694   6.200   5.288   2.612 -0.6336  0.1150  0.3344
  185DOPC  H12A22695   6.282   5.223   2.584 -1.4547 -0.3943 -0.9928
  185DOPC  H12B22696   6.110   5.242   2.573 -1.3938  1.9628 -0.2167
  185DOPC   C1322697   6.339   5.485   2.564  0.2972 -0.1008 -0.1498
  185DOPC  H13A22698   6.421   5.414   2.554 -0.4203 -1.1621  1.1405
  185DOPC  H13B22699   6.349   5.569   2.498  0.7886 -0.1281 -0.1182
  185DOPC  H13C22700   6.332   5.527   2.663 -0.4700  1.8351 -0.9762
  185DOPC   C1422701   6.091   5.507   2.578  0.9026  0.8883 -0.1766
  185DOPC  H14A22702   6.094   5.552   2.676 -0.1683  0.6185 -0.0061
  185DOPC  H14B22703   6.090   5.594   2.514 -0.3875  1.1092  0.1001
  185DOPC  H14C22704   6.001   5.449   2.562  0.6478  1.5276 -1.1615
  185DOPC   C1522705   6.199   5.398   2.391  0.0884 -0.1848  0.1747
  185DOPC  H15A22706   6.223   5.486   2.334 -0.1165  0.4585  1.0511
  185DOPC  H15B22707   6.107   5.351   2.360  0.2479 -1.8341  2.0178
  185DOPC  H15C22708   6.278   5.329   2.368 -0.4015 -0.2573 -1.3702
  185DOPC   C1122709   6.202   5.288   2.764  0.0325 -0.2572 -0.4614
  185DOPC  H11A22710   6.126   5.366   2.786  1.3391  0.7827  0.6011
  185DOPC  H11B22711   6.164   5.189   2.795 -1.6978  0.7486  0.8123
  185DOPC     P22712   6.426   5.225   2.863  0.3876 -0.0570 -0.3039
  185DOPC   O1322713   6.558   5.289   2.889 -0.7526 -0.4947 -0.0111
  185DOPC   O1422714   6.433   5.120   2.761 -0.4340  0.1578  0.3661
  185DOPC   O1222715   6.322   5.334   2.819  0.8803  0.2005  0.9238
  185DOPC   O1122716   6.374   5.179   3.004 -0.1957  0.4903  0.3108
  185DOPC    C122717   6.287   5.251   3.083  0.2983 -0.1532  0.6109
  185DOPC    HA22718   6.226   5.178   3.140  0.0799 -1.3278 -1.0652
  185DOPC    HB22719   6.207   5.301   3.025  0.0706 -0.3426  0.7595
  185DOPC    C222720   6.364   5.362   3.164  0.1367 -0.6545  0.7660
  185DOPC    HS22721   6.388   5.442   3.090  0.5304 -1.1564  0.3455
  185DOPC   O2122722   6.486   5.311   3.232  0.2000 -0.5426  0.9664
  185DOPC   C2122723   6.588   5.389   3.227  0.1216 -0.1585  0.1768
  185DOPC   O2222724   6.592   5.496   3.171 -0.9658  0.2365 -0.2053
  185DOPC   C2222725   6.700   5.326   3.311  0.3655  0.8008 -0.4218
  185DOPC   H2R22726   6.796   5.318   3.256  1.2920 -1.2662  1.3273
  185DOPC   H2S22727   6.666   5.224   3.341  0.9026  0.3926 -1.1677
  185DOPC    C322728   6.274   5.432   3.266  0.0191 -0.6089 -0.1656
  185DOPC    HX22729   6.252   5.371   3.356 -0.5788  2.8539  2.2460
  185DOPC    HY22730   6.183   5.470   3.216  0.0127  3.8013  2.6574
  185DOPC   O3122731   6.337   5.560   3.313  0.0658  0.0046 -0.0184
  185DOPC   C3122732   6.256   5.629   3.395  0.3508  0.2239 -0.4507
  185DOPC   O3222733   6.145   5.589   3.436  0.0958 -0.0327 -0.6434
  185DOPC   C3222734   6.313   5.760   3.446 -0.1077 -0.8574  0.2831
  185DOPC   H2X22735   6.324   5.817   3.351  0.6075 -0.5975  0.5125
  185DOPC   H2Y22736   6.228   5.808   3.500 -0.8439 -2.4959  0.6575
  185DOPC   C2322737   6.732   5.409   3.432 -0.2417  0.2318 -0.2226
  185DOPC   H3R22738   6.645   5.443   3.492 -0.4687 -0.1855 -0.3066
  185DOPC   H3S22739   6.791   5.500   3.408 -0.3471  0.5054  0.5440
  185DOPC   C2422740   6.824   5.329   3.531 -0.1015 -0.4133 -0.3069
  185DOPC   H4R22741   6.904   5.267   3.485  0.0054 -0.9871  0.6291
  185DOPC   H4S22742   6.750   5.254   3.567  0.2590 -0.8989 -0.5576
  185DOPC   C2522743   6.881   5.412   3.645  0.1697 -0.3354 -0.2283
  185DOPC   H5R22744   6.800   5.468   3.696  2.2484 -0.0649  3.0699
  185DOPC   H5S22745   6.948   5.487   3.596 -1.0917  1.5411  0.7755
  185DOPC   C2622746   6.961   5.335   3.753 -0.9643  0.1024  0.0038
  185DOPC   H6R22747   7.050   5.284   3.709 -0.6693  1.7419 -1.3945
  185DOPC   H6S22748   6.899   5.265   3.813 -1.4854  0.1714 -0.4450
  185DOPC   C2722749   7.027   5.429   3.859  0.2078  0.2495 -0.4263
  185DOPC   H7R22750   6.961   5.518   3.865  1.1122  0.9260 -0.2926
  185DOPC   H7S22751   7.131   5.449   3.826  0.5245  1.2488  1.0588
  185DOPC   C2822752   7.032   5.354   3.993 -0.0748 -0.1300 -0.1485
  185DOPC   H8R22753   6.934   5.302   4.003 -1.3432  1.7411 -2.0122
  185DOPC   H8S22754   7.020   5.424   4.079 -1.8276 -2.3912  1.6095
  185DOPC   C2922755   7.141   5.258   4.000  0.0960  0.4287 -0.5356
  185DOPC   H9R22756   7.143   5.206   3.903  0.7499  2.2201 -1.5308
  185DOPC  C21022757   7.224   5.215   4.094 -0.2145 -0.1631 -0.6009
  185DOPC  H10R22758   7.288   5.127   4.079 -0.3512 -0.7943  2.0216
  185DOPC  C21122759   7.228   5.258   4.240 -0.2909  0.3826  0.4079
  185DOPC  H11R22760   7.244   5.367   4.251  0.2071  0.4765 -0.9518
  185DOPC  H11S22761   7.319   5.217   4.289 -0.8805 -0.2043  1.0371
  185DOPC  C21222762   7.106   5.211   4.330 -0.4001  0.3112  0.1282
  185DOPC  H12R22763   7.108   5.101   4.339 -0.8176 -0.0418 -2.9980
  185DOPC  H12S22764   7.005   5.222   4.284 -1.2657 -2.4222  1.1939
  185DOPC  C21322765   7.112   5.287   4.468  0.3613 -0.4808 -0.1045
  185DOPC  H13R22766   7.074   5.390   4.454  2.6731  0.2077 -1.7788
  185DOPC  H13S22767   7.220   5.298   4.490 -0.0473 -0.1293  1.9731
  185DOPC  C21422768   7.041   5.224   4.593  0.3880  0.0735 -0.0067
  185DOPC  H14R22769   7.097   5.134   4.627 -1.9166 -0.4504  2.7257
  185DOPC  H14S22770   6.949   5.183   4.546  0.7009  1.1062 -1.6314
  185DOPC  C21522771   7.022   5.321   4.709 -0.2076  0.1196  0.4361
  185DOPC  H15R22772   6.923   5.367   4.689  0.0747 -0.0138 -1.4619
  185DOPC  H15S22773   7.097   5.403   4.705  0.5790 -0.6332 -1.1542
  185DOPC  C21622774   7.018   5.257   4.851  0.7934  0.5862  0.8327
  185DOPC  H16R22775   7.117   5.248   4.901  0.4392  0.6896  1.5640
  185DOPC  H16S22776   6.961   5.162   4.837 -0.7033  1.5588  0.0722
  185DOPC  C21722777   6.953   5.358   4.940  0.3917 -0.2339  0.0781
  185DOPC  H17R22778   6.849   5.363   4.902  0.5390  1.7474 -0.1524
  185DOPC  H17S22779   7.000   5.458   4.929 -3.0699  1.8710  2.5296
  185DOPC  C21822780   6.955   5.323   5.089  0.4939  0.2869 -0.1036
  185DOPC  H18R22781   6.881   5.240   5.096  1.6279 -0.6958  0.5821
  185DOPC  H18S22782   6.893   5.404   5.134 -0.6653  0.8543 -2.5912
  185DOPC  H18T22783   7.052   5.297   5.137  0.2515 -0.0021  0.2430
  185DOPC   C3322784   6.442   5.763   3.534  0.0715 -0.1358  1.0088
  185DOPC   H3X22785   6.528   5.742   3.467  0.4633  1.0835  1.1067
  185DOPC   H3Y22786   6.446   5.693   3.620  0.1914 -0.9895  0.3178
  185DOPC   C3422787   6.471   5.904   3.586 -0.5602  0.2027  0.2639
  185DOPC   H4X22788   6.380   5.942   3.638 -1.1211 -0.7810  0.0225
  185DOPC   H4Y22789   6.496   5.962   3.495  2.0610 -1.0378  0.1207
  185DOPC   C3522790   6.597   5.899   3.677 -0.0721 -0.4026  0.4287
  185DOPC   H5X22791   6.689   5.889   3.615  0.1320 -0.1445  0.6901
  185DOPC   H5Y22792   6.597   5.818   3.753  1.2887 -0.6463  0.1977
  185DOPC   C3622793   6.612   6.038   3.750  0.1915  0.3877 -0.3896
  185DOPC   H6X22794   6.614   6.122   3.679  0.2272  1.1953  0.5478
  185DOPC   H6Y22795   6.517   6.058   3.806  0.5520  2.9086 -0.5959
  185DOPC   C3722796   6.727   6.035   3.850  0.4938 -0.1891 -0.4039
  185DOPC   H7X22797   6.690   5.996   3.947 -0.4088 -1.4083 -1.2114
  185DOPC   H7Y22798   6.806   5.964   3.817  0.6316 -0.4776  0.5109
  185DOPC   C3822799   6.789   6.166   3.878 -0.0466  0.5029  1.2146
  185DOPC   H8X22800   6.712   6.238   3.915 -0.6364 -0.1054  1.1882
  185DOPC   H8Y22801   6.829   6.214   3.787  3.1467  0.2425  2.3632
  185DOPC   C3922802   6.901   6.151   3.975  0.5141  0.5122  0.2735
  185DOPC   H9X22803   6.998   6.144   3.925 -0.9120 -1.7569 -2.4390
  185DOPC  C31022804   6.908   6.154   4.109  0.2248 -0.3427 -0.7399
  185DOPC  H10X22805   7.010   6.139   4.146 -0.5139  0.4851  1.9349
  185DOPC  C31122806   6.798   6.178   4.213 -0.1985  0.3973  0.4438
  185DOPC  H11X22807   6.730   6.248   4.160  1.3076  2.2534  0.8400
  185DOPC  H11Y22808   6.833   6.242   4.297  0.1174 -0.2907  0.8408
  185DOPC  C31222809   6.718   6.064   4.272 -0.3101 -0.3658  0.1386
  185DOPC  H12X22810   6.780   5.982   4.314 -0.8118 -0.5830  0.4661
  185DOPC  H12Y22811   6.647   6.013   4.204 -1.6017 -1.6922  2.3344
  185DOPC  C31322812   6.637   6.111   4.393 -0.3867  0.4124 -0.3225
  185DOPC  H13X22813   6.585   6.021   4.432  0.5018 -0.3541 -0.8698
  185DOPC  H13Y22814   6.705   6.141   4.476 -1.2738 -0.9961  0.9615
  185DOPC  C31422815   6.534   6.213   4.348 -0.6096  0.2586 -0.3234
  185DOPC  H14X22816   6.594   6.302   4.317  1.0443 -0.4160  0.8278
  185DOPC  H14Y22817   6.488   6.166   4.258  2.4910 -4.4922  0.2160
  185DOPC  C31522818   6.428   6.248   4.455  0.1595  0.9478 -0.2879
  185DOPC  H15X22819   6.367   6.161   4.486  2.1280 -1.4080 -2.5383
  185DOPC  H15Y22820   6.356   6.314   4.402 -1.6932 -2.8206 -2.8936
  185DOPC  C31622821   6.489   6.318   4.581 -0.1030  0.4497 -0.0020
  185DOPC  H16X22822   6.552   6.246   4.637 -2.0280 -1.3035  0.0048
  185DOPC  H16Y22823   6.544   6.407   4.544 -0.3695  0.7969  0.4344
  185DOPC  C31722824   6.386   6.365   4.680 -0.1772 -0.0745 -0.3140
  185DOPC  H17X22825   6.336   6.448   4.626  0.7415  0.9759  0.3787
  185DOPC  H17Y22826   6.305   6.290   4.691  0.6036 -1.0519 -1.0657
  185DOPC  C31822827   6.445   6.414   4.811 -0.7420  0.4102 -0.1387
  185DOPC  H18X22828   6.499   6.509   4.791  0.3334 -0.5375 -1.9110
  185DOPC  H18Y22829   6.366   6.435   4.887  1.9694  0.8479  2.8150
  185DOPC  H18Z22830   6.510   6.330   4.844 -1.6471 -1.0936 -2.0169
  186DOPC     N22831   1.171   3.813   3.144  0.0651  0.0477  0.1309
  186DOPC   C1222832   1.022   3.828   3.147  0.5993  0.0090 -0.0323
  186DOPC  H12A22833   0.998   3.802   3.045 -1.2663  0.4594  0.2399
  186DOPC  H12B22834   0.993   3.931   3.163 -0.7142 -0.6115  2.0142
  186DOPC   C1322835   1.221   3.814   3.287  0.3344 -0.8261  0.9116
  186DOPC  H13A22836   1.327   3.795   3.285  0.3688 -0.6013 -0.2883
  186DOPC  H13B22837   1.213   3.915   3.325 -2.3240 -0.7674  0.3873
  186DOPC  H13C22838   1.167   3.738   3.342  0.2659 -2.1996 -0.9629
  186DOPC   C1422839   1.234   3.919   3.068 -0.5609  0.1147  0.2432
  186DOPC  H14A22840   1.340   3.905   3.052 -0.5544 -0.7529  1.0014
  186DOPC  H14B22841   1.202   3.927   2.965 -0.7787  2.6403  0.4407
  186DOPC  H14C22842   1.231   4.013   3.121 -1.7314 -0.8518  1.9657
  186DOPC   C1522843   1.191   3.680   3.082 -0.2456 -0.6461  0.1884
  186DOPC  H15A22844   1.130   3.602   3.125 -3.4463  2.5083  1.8446
  186DOPC  H15B22845   1.296   3.657   3.095 -0.1884  0.8786  3.2870
  186DOPC  H15C22846   1.166   3.682   2.977 -0.7895 -0.7492  0.3125
  186DOPC   C1122847   0.944   3.738   3.244  0.8168 -0.2743  0.6579
  186DOPC  H11A22848   0.988   3.636   3.250 -1.1185 -1.3570 -1.6301
  186DOPC  H11B22849   0.954   3.782   3.345 -1.2389  1.9666 -0.0262
  186DOPC     P22850   0.748   3.679   3.078 -0.0834  0.4247  0.0757
  186DOPC   O1322851   0.805   3.544   3.051 -0.0540  0.0261 -0.0436
  186DOPC   O1422852   0.767   3.780   2.973  0.2479  0.2416  0.1859
  186DOPC   O1222853   0.799   3.730   3.218 -0.2936  0.6423 -0.4846
  186DOPC   O1122854   0.594   3.656   3.099  0.4227 -0.0756 -0.2500
  186DOPC    C122855   0.509   3.754   3.153 -0.1454 -0.1491  0.4526
  186DOPC    HA22856   0.410   3.723   3.112  0.6498 -0.3800 -1.3675
  186DOPC    HB22857   0.537   3.860   3.137 -0.3897 -0.1641 -0.0746
  186DOPC    C222858   0.491   3.742   3.305  0.0264  0.3811 -0.2336
  186DOPC    HS22859   0.581   3.794   3.343  0.1299  0.1028 -0.1007
  186DOPC   O2122860   0.489   3.606   3.338 -0.4631  0.8047  0.0044
  186DOPC   C2122861   0.532   3.570   3.459  0.0388 -0.2945 -1.0743
  186DOPC   O2222862   0.590   3.651   3.533 -0.6167 -0.2198  0.5520
  186DOPC   C2222863   0.512   3.420   3.479 -0.0788  0.0976 -0.7221
  186DOPC   H2R22864   0.606   3.368   3.452  0.7668  0.4513  1.3329
  186DOPC   H2S22865   0.432   3.384   3.410 -1.1505  2.0155 -0.5547
  186DOPC    C322866   0.361   3.819   3.345  0.3104 -0.1113 -0.4241
  186DOPC    HX22867   0.277   3.753   3.314 -0.1036  1.0210 -1.7983
  186DOPC    HY22868   0.365   3.915   3.290 -0.2412  0.4892  0.5716
  186DOPC   O3122869   0.366   3.825   3.490 -0.3229 -0.5696 -0.0411
  186DOPC   C3122870   0.422   3.924   3.551 -0.2721 -0.2623 -0.3368
  186DOPC   O3222871   0.492   4.007   3.492  0.5083  0.8100 -0.3506
  186DOPC   C3222872   0.408   3.910   3.702  0.0057 -0.0395 -0.4022
  186DOPC   H2X22873   0.308   3.865   3.717  0.3193 -0.1130  1.7386
  186DOPC   H2Y22874   0.486   3.845   3.747  0.5621  1.1307  0.3760
  186DOPC   C2322875   0.472   3.393   3.628  0.1229 -0.2729 -0.0134
  186DOPC   H3R22876   0.366   3.417   3.649  0.3208  0.2273  0.4624
  186DOPC   H3S22877   0.538   3.459   3.689  1.1024 -0.7761 -0.5000
  186DOPC   C2422878   0.493   3.244   3.663  0.2478 -0.1510 -0.1385
  186DOPC   H4R22879   0.603   3.234   3.672  0.1710  0.0179  1.1259
  186DOPC   H4S22880   0.460   3.170   3.586  0.6920  0.2842 -0.7545
  186DOPC   C2522881   0.444   3.207   3.803 -0.1014  0.4052  0.1679
  186DOPC   H5R22882   0.463   3.285   3.880 -1.8514  0.0912  0.9519
  186DOPC   H5S22883   0.496   3.113   3.829 -3.1052 -1.5565 -0.4752
  186DOPC   C2622884   0.289   3.189   3.808  0.5987 -1.1900 -0.2329
  186DOPC   H6R22885   0.239   3.269   3.748  0.3012  0.0344  1.5846
  186DOPC   H6S22886   0.265   3.200   3.916  1.8837  0.4793 -0.0787
  186DOPC   C2722887   0.235   3.057   3.744 -0.0128 -0.1624 -0.0978
  186DOPC   H7R22888   0.289   2.976   3.797 -0.2328 -0.3717 -0.1899
  186DOPC   H7S22889   0.260   3.051   3.636 -2.1249  1.4672 -0.7434
  186DOPC   C2822890   0.084   3.033   3.777  0.0278 -0.0169  0.4995
  186DOPC   H8R22891   0.070   3.034   3.888 -1.7875 -0.6831  0.3126
  186DOPC   H8S22892   0.068   2.928   3.743  0.0535  0.1049  0.1186
  186DOPC   C2922893  -0.012   3.127   3.703 -0.4293 -0.5777 -0.3438
  186DOPC   H9R22894  -0.005   3.140   3.594 -1.9158  1.2736 -0.2750
  186DOPC  C21022895  -0.127   3.179   3.758 -0.5953 -0.9971 -0.3973
  186DOPC  H10R22896  -0.185   3.250   3.698  0.1191  0.1386  0.2297
  186DOPC  C21122897  -0.185   3.158   3.904  0.1430 -0.8361 -0.0768
  186DOPC  H11R22898  -0.128   3.077   3.955 -0.0092  0.2344  1.9024
  186DOPC  H11S22899  -0.292   3.129   3.902 -0.9467  2.3641  2.6366
  186DOPC  C21222900  -0.175   3.284   3.995  0.7215  0.3950  1.5910
  186DOPC  H12R22901  -0.241   3.263   4.083 -2.2111 -4.1433 -1.2547
  186DOPC  H12S22902  -0.211   3.370   3.935 -0.4345  0.1578  1.9240
  186DOPC  C21322903  -0.036   3.319   4.049  0.2342 -0.0886 -0.0271
  186DOPC  H13R22904   0.009   3.397   3.984 -2.2179  0.5733 -1.0066
  186DOPC  H13S22905   0.033   3.233   4.036  0.3300  0.0420 -0.4044
  186DOPC  C21422906  -0.030   3.359   4.199  0.1607  0.8501 -0.8670
  186DOPC  H14R22907   0.073   3.384   4.235  0.5284 -0.2865 -1.1042
  186DOPC  H14S22908  -0.077   3.289   4.270  0.1507  1.3248 -0.3960
  186DOPC  C21522909  -0.108   3.485   4.234 -0.0593 -0.6970  0.5471
  186DOPC  H15R22910  -0.217   3.464   4.224  0.1262 -0.9915 -1.2752
  186DOPC  H15S22911  -0.085   3.563   4.158 -2.4702 -0.4239 -0.0049
  186DOPC  C21622912  -0.079   3.543   4.372 -0.1632  1.1113 -0.2764
  186DOPC  H16R22913   0.024   3.582   4.384  0.5628 -0.9516  0.6693
  186DOPC  H16S22914  -0.082   3.459   4.445 -4.6730  0.1119 -1.2925
  186DOPC  C21722915  -0.180   3.652   4.402  0.2236  0.1787  0.4368
  186DOPC  H17R22916  -0.278   3.609   4.371  0.4650  0.3073 -0.5510
  186DOPC  H17S22917  -0.146   3.727   4.327 -0.2175  0.7916  0.8385
  186DOPC  C21822918  -0.169   3.713   4.546  0.5819 -0.3017 -0.0831
  186DOPC  H18R22919  -0.064   3.749   4.551  0.4018  0.0930  2.5967
  186DOPC  H18S22920  -0.188   3.638   4.626  0.5114  0.5094  0.6815
  186DOPC  H18T22921  -0.234   3.801   4.567 -0.7944 -1.7807  2.3493
  186DOPC   C3322922   0.416   4.046   3.766  0.4687  0.1239  0.2433
  186DOPC   H3X22923   0.320   4.099   3.749 -0.4688 -0.9641  1.8370
  186DOPC   H3Y22924   0.503   4.104   3.729 -0.9991  1.6494 -0.9791
  186DOPC   C3422925   0.431   4.038   3.920 -0.7027 -0.6011 -0.1688
  186DOPC   H4X22926   0.531   3.995   3.943 -1.2935 -0.2334  3.7629
  186DOPC   H4Y22927   0.361   3.967   3.969 -1.3390  0.0461 -0.1269
  186DOPC   C3522928   0.444   4.175   3.988  0.1162  0.1151  0.5111
  186DOPC   H5X22929   0.346   4.228   3.986  0.6168  1.0435 -0.1474
  186DOPC   H5Y22930   0.517   4.235   3.929 -1.4711 -0.5087 -2.2899
  186DOPC   C3622931   0.471   4.146   4.133  0.2512  0.0361 -1.1393
  186DOPC   H6X22932   0.385   4.085   4.168  0.0368  1.4245  0.8757
  186DOPC   H6Y22933   0.571   4.096   4.140 -0.2111 -0.8281 -0.4843
  186DOPC   C3722934   0.490   4.271   4.217  0.2324  0.0416 -0.3077
  186DOPC   H7X22935   0.575   4.334   4.185  1.3170 -1.4589 -0.4775
  186DOPC   H7Y22936   0.396   4.329   4.207 -0.3388 -1.0555 -1.6411
  186DOPC   C3822937   0.511   4.230   4.368  0.7831 -0.5606  0.3344
  186DOPC   H8X22938   0.428   4.159   4.389 -1.9793  2.2634 -0.2655
  186DOPC   H8Y22939   0.500   4.318   4.435 -1.1553 -0.5266  0.0070
  186DOPC   C3922940   0.651   4.179   4.401 -0.4939  0.0707 -0.6270
  186DOPC   H9X22941   0.739   4.232   4.363 -0.0379 -0.7936 -0.8126
  186DOPC  C31022942   0.683   4.071   4.473  0.5205  0.0116  1.0523
  186DOPC  H10X22943   0.791   4.050   4.486  1.8044  2.9501 -2.9531
  186DOPC  C31122944   0.590   3.977   4.536 -0.1648 -0.1004  0.8954
  186DOPC  H11X22945   0.508   4.033   4.585 -3.9325 -2.6425 -1.9164
  186DOPC  H11Y22946   0.636   3.909   4.611 -1.7581 -2.7657 -0.3873
  186DOPC  C31222947   0.531   3.881   4.424  0.0923 -0.3124 -0.3386
  186DOPC  H12X22948   0.481   3.939   4.343  0.8113  3.7238  1.8373
  186DOPC  H12Y22949   0.455   3.806   4.454  0.2954 -1.3586 -2.2715
  186DOPC  C31322950   0.638   3.780   4.374  0.5055 -0.0900  0.2639
  186DOPC  H13X22951   0.736   3.829   4.358  0.6585 -0.5322 -0.1767
  186DOPC  H13Y22952   0.668   3.712   4.457  0.3274  0.5580  0.8645
  186DOPC  C31422953   0.606   3.711   4.238 -0.0607  0.0519 -0.1903
  186DOPC  H14X22954   0.628   3.791   4.165 -0.5841 -2.2065 -2.9753
  186DOPC  H14Y22955   0.689   3.638   4.223  1.0458  1.0123  1.0460
  186DOPC  C31522956   0.469   3.667   4.202  0.1722 -0.9829 -0.2947
  186DOPC  H15X22957   0.395   3.747   4.224 -0.8460 -0.8718 -3.4985
  186DOPC  H15Y22958   0.431   3.581   4.261  0.5826  0.2685  1.9100
  186DOPC  C31622959   0.460   3.637   4.053  0.0326 -0.1133  0.1418
  186DOPC  H16X22960   0.476   3.734   4.002  0.1582 -1.1342 -1.8542
  186DOPC  H16Y22961   0.545   3.567   4.041 -0.2675 -0.2876 -1.0389
  186DOPC  C31722962   0.337   3.570   4.000  0.4087 -0.1436 -0.3186
  186DOPC  H17X22963   0.359   3.552   3.892  2.6670  0.6695 -0.0427
  186DOPC  H17Y22964   0.326   3.474   4.055 -0.5615 -0.0284 -0.2891
  186DOPC  C31822965   0.215   3.654   4.014  0.0493  0.4145 -0.2239
  186DOPC  H18X22966   0.216   3.730   3.933 -0.1417 -0.9050 -1.5231
  186DOPC  H18Y22967   0.118   3.600   4.004  1.5642 -2.7458  0.9599
  186DOPC  H18Z22968   0.211   3.720   4.103 -1.2572  0.6163 -0.4140
  187DOPC     N22969   0.404   1.658   2.943 -0.1645  0.3162 -0.0608
  187DOPC   C1222970   0.372   1.566   3.065  0.6819  0.0920  0.9212
  187DOPC  H12A22971   0.417   1.616   3.150 -1.7347 -1.2139  3.1329
  187DOPC  H12B22972   0.410   1.468   3.046 -1.4311 -0.6031 -0.0477
  187DOPC   C1322973   0.348   1.600   2.820  0.2626 -0.9599  0.2647
  187DOPC  H13A22974   0.383   1.663   2.740  0.0906 -0.0760  0.8654
  187DOPC  H13B22975   0.375   1.496   2.810 -0.2732 -1.0434 -0.3686
  187DOPC  H13C22976   0.240   1.608   2.824  0.2546 -0.7602 -0.3789
  187DOPC   C1422977   0.557   1.665   2.937  0.5162 -0.3209  0.0449
  187DOPC  H14A22978   0.605   1.576   2.899  0.9065  0.2622 -0.8764
  187DOPC  H14B22979   0.575   1.745   2.867 -1.3931 -1.1845 -1.5736
  187DOPC  H14C22980   0.595   1.694   3.033 -1.2028 -2.5384  1.5165
  187DOPC   C1522981   0.358   1.801   2.962 -0.6927  0.2513 -0.4831
  187DOPC  H15A22982   0.395   1.841   3.056 -1.0503 -2.8654  1.1144
  187DOPC  H15B22983   0.251   1.816   2.960 -0.4346  2.6657 -0.0824
  187DOPC  H15C22984   0.387   1.850   2.870 -0.3174  1.1465  0.0962
  187DOPC   C1122985   0.219   1.555   3.098 -0.7074 -0.6345 -0.9282
  187DOPC  H11A22986   0.208   1.515   3.201 -0.0070  0.3890 -0.4325
  187DOPC  H11B22987   0.179   1.659   3.100  1.1385  0.1036  0.8766
  187DOPC     P22988   0.005   1.504   2.948  0.1479 -0.3351  0.0155
  187DOPC   O1322989  -0.031   1.396   2.851 -0.2243  0.3217 -0.1752
  187DOPC   O1422990  -0.003   1.647   2.902  0.2253 -0.3356 -0.1031
  187DOPC   O1222991   0.152   1.479   2.997  0.3671  0.1345 -0.5570
  187DOPC   O1122992  -0.087   1.489   3.077 -0.4315  0.3973  0.1106
  187DOPC    C122993  -0.092   1.366   3.159 -1.0123 -0.1337  0.1445
  187DOPC    HA22994   0.012   1.330   3.177 -0.0206  3.6624  3.8833
  187DOPC    HB22995  -0.155   1.286   3.114  1.1427 -2.6473  1.3458
  187DOPC    C222996  -0.126   1.397   3.304  0.8258  0.5567 -0.5896
  187DOPC    HS22997  -0.231   1.435   3.307  1.1350  1.6452 -2.0525
  187DOPC   O2122998  -0.035   1.487   3.362  0.2703 -0.4454  0.1284
  187DOPC   C2122999  -0.067   1.609   3.354 -0.1944 -0.8419 -0.2917
  187DOPC   O2223000  -0.168   1.657   3.308 -0.2093 -0.0091  0.0500
  187DOPC   C2223001   0.045   1.698   3.401 -0.1128  0.0597 -0.3937
  187DOPC   H2R23002   0.088   1.729   3.303 -0.8102  4.1664  0.4310
  187DOPC   H2S23003   0.110   1.639   3.469 -0.7842  1.0831  1.1912
  187DOPC    C323004  -0.121   1.267   3.379  0.1735  0.4703 -0.9785
  187DOPC    HX23005  -0.015   1.232   3.373  0.6181  1.3973  0.7542
  187DOPC    HY23006  -0.183   1.182   3.345  1.4904 -2.2523  2.7682
  187DOPC   O3123007  -0.140   1.287   3.529  0.4486  0.2283  0.0240
  187DOPC   C3123008  -0.269   1.278   3.566  0.1123 -0.2446  0.5899
  187DOPC   O3223009  -0.362   1.250   3.494 -0.6321  0.0303 -0.4208
  187DOPC   C3223010  -0.287   1.309   3.712 -0.0466  0.1163  0.4377
  187DOPC   H2X23011  -0.201   1.268   3.770 -0.5280  0.2602  1.2788
  187DOPC   H2Y23012  -0.285   1.419   3.727  1.9864  0.0321  1.0892
  187DOPC   C2323013  -0.007   1.821   3.487  0.0079  0.4395 -0.0954
  187DOPC   H3R23014  -0.060   1.899   3.428  0.2891  0.5557 -0.1992
  187DOPC   H3S23015   0.086   1.871   3.520 -0.7062  2.3552 -0.8500
  187DOPC   C2423016  -0.086   1.776   3.616  0.2799  0.5324  0.3400
  187DOPC   H4R23017  -0.058   1.674   3.647 -1.0378 -0.1204 -0.5216
  187DOPC   H4S23018  -0.186   1.776   3.567  0.0108  2.3645  0.7868
  187DOPC   C2523019  -0.096   1.869   3.741 -0.3442  0.3524  0.0141
  187DOPC   H5R23020  -0.009   1.855   3.808  0.3657 -0.0910 -0.9623
  187DOPC   H5S23021  -0.197   1.851   3.784 -1.5411  1.1581 -2.2437
  187DOPC   C2623022  -0.088   2.023   3.723 -0.3377  0.7411  0.6456
  187DOPC   H6R23023  -0.168   2.059   3.655  0.6541  0.5233 -0.6867
  187DOPC   H6S23024   0.004   2.050   3.666 -0.4256 -1.9790 -0.9594
  187DOPC   C2723025  -0.091   2.101   3.851  0.1026  0.8298  0.5352
  187DOPC   H7R23026  -0.112   2.203   3.811 -0.4117 -0.3088 -2.2883
  187DOPC   H7S23027   0.002   2.106   3.912 -0.0669 -0.4319  0.9230
  187DOPC   C2823028  -0.210   2.065   3.944  0.0308 -0.3153 -0.2032
  187DOPC   H8R23029  -0.180   1.977   4.005  0.9330  0.9073  1.1647
  187DOPC   H8S23030  -0.297   2.057   3.875  0.2177  2.9420 -0.9950
  187DOPC   C2923031  -0.240   2.178   4.045 -0.2927 -0.9077 -0.0150
  187DOPC   H9R23032  -0.319   2.247   4.013  2.2380  1.0089 -2.6848
  187DOPC  C21023033  -0.176   2.200   4.163 -0.5864 -0.0982 -0.4798
  187DOPC  H10R23034  -0.206   2.292   4.217 -1.6931 -1.3924  1.1940
  187DOPC  C21123035  -0.064   2.125   4.231 -0.2795 -0.8180 -0.4624
  187DOPC  H11R23036   0.018   2.197   4.248 -1.2594 -0.0318  1.1701
  187DOPC  H11S23037  -0.028   2.058   4.150  3.7268  1.6846 -1.0319
  187DOPC  C21223038  -0.112   2.060   4.366 -0.1182  0.0206 -0.0966
  187DOPC  H12R23039  -0.030   1.988   4.387  0.1161 -0.1255 -1.3829
  187DOPC  H12S23040  -0.209   2.007   4.353  0.8070 -1.5606 -0.7953
  187DOPC  C21323041  -0.125   2.164   4.474  0.1848  0.3858 -0.1767
  187DOPC  H13R23042  -0.227   2.208   4.463  0.0699  0.5061  1.2007
  187DOPC  H13S23043  -0.050   2.246   4.466  0.7073 -0.0513  0.2099
  187DOPC  C21423044  -0.109   2.091   4.609 -0.2951 -0.7707 -0.1318
  187DOPC  H14R23045  -0.001   2.082   4.633 -0.4203  1.5481  1.6836
  187DOPC  H14S23046  -0.156   1.990   4.602 -1.9454 -0.1277  0.9970
  187DOPC  C21523047  -0.177   2.163   4.727  0.3017 -0.8438  0.1603
  187DOPC  H15R23048  -0.126   2.261   4.744  1.5541 -1.2059 -1.2930
  187DOPC  H15S23049  -0.149   2.104   4.817 -1.0517  1.7268  2.4494
  187DOPC  C21623050  -0.325   2.191   4.712 -0.0655 -0.1718 -0.7717
  187DOPC  H16R23051  -0.352   2.271   4.639 -1.4630 -0.3817 -0.5135
  187DOPC  H16S23052  -0.354   2.225   4.814 -0.0376  1.2447 -1.2155
  187DOPC  C21723053  -0.397   2.070   4.661  0.8875  0.9156  1.2654
  187DOPC  H17R23054  -0.356   2.036   4.563  1.0193  2.9958  0.5524
  187DOPC  H17S23055  -0.501   2.105   4.648  0.5183 -0.1682  1.1871
  187DOPC  C21823056  -0.398   1.959   4.764  0.3993  0.4228  0.1699
  187DOPC  H18R23057  -0.298   1.917   4.789 -0.4316 -0.0766  2.9915
  187DOPC  H18S23058  -0.468   1.882   4.727  0.5335  1.3649 -2.1913
  187DOPC  H18T23059  -0.438   1.991   4.863  0.2974 -1.7222  0.8727
  187DOPC   C3323060  -0.426   1.266   3.766  0.5386  0.4705  0.1750
  187DOPC   H3X23061  -0.440   1.158   3.746 -1.1879  0.3326  1.8511
  187DOPC   H3Y23062  -0.511   1.315   3.714  0.1702 -1.9166 -1.6273
  187DOPC   C3423063  -0.431   1.278   3.919  0.0513 -0.2083 -0.2338
  187DOPC   H4X23064  -0.441   1.384   3.951 -0.1900 -0.7865  1.7411
  187DOPC   H4Y23065  -0.337   1.238   3.962  1.7011  2.4179 -1.1399
  187DOPC   C3523066  -0.558   1.224   3.982 -1.1017 -0.8292 -0.4934
  187DOPC   H5X23067  -0.558   1.115   3.959  1.7944 -1.2117  0.8055
  187DOPC   H5Y23068  -0.653   1.267   3.946 -1.9431  0.5422  2.9509
  187DOPC   C3623069  -0.572   1.254   4.131 -1.1677  0.1964  0.3756
  187DOPC   H6X23070  -0.659   1.197   4.172 -1.2155  0.0905  0.1291
  187DOPC   H6Y23071  -0.474   1.222   4.172 -0.2994  1.6416 -0.4841
  187DOPC   C3723072  -0.600   1.401   4.175 -0.2312 -0.0215 -0.2883
  187DOPC   H7X23073  -0.520   1.470   4.140 -0.0844 -0.2043 -0.3176
  187DOPC   H7Y23074  -0.702   1.423   4.137 -1.0491 -1.1928  1.1020
  187DOPC   C3823075  -0.603   1.411   4.326  0.0297  0.2547 -0.5201
  187DOPC   H8X23076  -0.629   1.516   4.352 -0.4703 -0.1026  0.4906
  187DOPC   H8Y23077  -0.505   1.384   4.371  0.1905 -1.1129 -1.6256
  187DOPC   C3923078  -0.710   1.328   4.392 -0.3009 -1.0363 -1.1119
  187DOPC   H9X23079  -0.813   1.353   4.362 -0.0839  0.0610 -0.9644
  187DOPC  C31023080  -0.693   1.226   4.480 -0.4462 -0.1694 -1.5475
  187DOPC  H10X23081  -0.789   1.183   4.515 -0.6539  1.8241  0.5348
  187DOPC  C31123082  -0.562   1.167   4.536  0.0907 -0.1370  0.6346
  187DOPC  H11X23083  -0.527   1.224   4.625  0.9775 -0.6908  0.6530
  187DOPC  H11Y23084  -0.479   1.176   4.462 -0.4714  1.9424  0.1879
  187DOPC  C31223085  -0.572   1.020   4.567  0.3163  0.6288 -0.2201
  187DOPC  H12X23086  -0.661   1.009   4.633  0.3300  0.6049 -0.2059
  187DOPC  H12Y23087  -0.484   0.975   4.617 -1.6388 -1.3729  1.6486
  187DOPC  C31323088  -0.603   0.941   4.435 -0.1456  0.3607  0.1732
  187DOPC  H13X23089  -0.621   0.835   4.461  2.5317 -0.0350  0.6916
  187DOPC  H13Y23090  -0.693   0.984   4.386 -0.7199  0.5007  1.2990
  187DOPC  C31423091  -0.484   0.936   4.339 -0.0342 -0.9291  0.1183
  187DOPC  H14X23092  -0.455   1.042   4.319 -1.0349 -0.3685  1.4339
  187DOPC  H14Y23093  -0.398   0.881   4.381  0.5029 -0.6268 -0.5829
  187DOPC  C31523094  -0.526   0.881   4.204 -0.2860  0.7536  0.0290
  187DOPC  H15X23095  -0.616   0.925   4.156  0.0597  0.7780 -0.6106
  187DOPC  H15Y23096  -0.561   0.775   4.212  0.7725  0.2717 -1.3493
  187DOPC  C31623097  -0.414   0.893   4.095  0.6235  0.0751  0.0514
  187DOPC  H16X23098  -0.383   0.999   4.082  0.0293  0.4008  1.1500
  187DOPC  H16Y23099  -0.315   0.860   4.132  0.1684 -0.5742  0.7104
  187DOPC  C31723100  -0.463   0.830   3.963 -0.6609  0.3614  0.0380
  187DOPC  H17X23101  -0.469   0.720   3.975  3.0989  0.2614  3.1076
  187DOPC  H17Y23102  -0.564   0.870   3.942 -0.8576  0.0337  0.3488
  187DOPC  C31823103  -0.364   0.839   3.849 -0.0143 -0.1393  0.7892
  187DOPC  H18X23104  -0.259   0.829   3.882  0.4014 -3.2100 -1.0198
  187DOPC  H18Y23105  -0.391   0.766   3.769 -2.0207  2.2404 -0.8834
  187DOPC  H18Z23106  -0.368   0.941   3.804  0.7063 -0.4693 -0.0557
  188DOPC     N23107   2.081   0.824   3.519 -0.5152 -0.0791 -0.3886
  188DOPC   C1223108   1.928   0.839   3.534 -0.0251  0.1522  0.4735
  188DOPC  H12A23109   1.889   0.845   3.433  0.1475 -1.8296  0.2637
  188DOPC  H12B23110   1.899   0.933   3.579 -2.0821  1.0884 -2.4847
  188DOPC   C1323111   2.140   0.950   3.463 -0.3681 -0.2133 -0.9343
  188DOPC  H13A23112   2.247   0.940   3.451  0.0793  1.2783  1.2677
  188DOPC  H13B23113   2.101   0.987   3.369  0.3936  1.1591 -0.7290
  188DOPC  H13C23114   2.127   1.027   3.537 -2.0048 -2.3200  1.1362
  188DOPC   C1423115   2.122   0.715   3.423  0.2769 -0.3072  0.2961
  188DOPC  H14A23116   2.078   0.623   3.458  0.8214 -0.5478  0.3518
  188DOPC  H14B23117   2.080   0.728   3.324  0.6640  1.5858  0.3468
  188DOPC  H14C23118   2.230   0.705   3.419  0.3635  0.5886  0.0986
  188DOPC   C1523119   2.149   0.802   3.651  0.5452 -0.7472  0.1252
  188DOPC  H15A23120   2.100   0.723   3.705 -1.1744  0.0037 -0.2899
  188DOPC  H15B23121   2.148   0.889   3.715  1.1065  0.0606 -0.9270
  188DOPC  H15C23122   2.254   0.777   3.651  0.9854  0.7968  1.8311
  188DOPC   C1123123   1.858   0.712   3.588 -0.1786  0.0983  0.0800
  188DOPC  H11A23124   1.887   0.701   3.695  0.5201  2.1511  0.1498
  188DOPC  H11B23125   1.749   0.732   3.590  0.1318  1.9257  0.5720
  188DOPC     P23126   1.796   0.543   3.400 -0.4544 -0.1010 -0.3850
  188DOPC   O1323127   1.871   0.436   3.320 -0.2507 -0.8019  0.4362
  188DOPC   O1423128   1.741   0.663   3.328 -0.2408  0.3302  0.0277
  188DOPC   O1223129   1.892   0.592   3.509  0.2594 -0.1982  0.0074
  188DOPC   O1123130   1.678   0.467   3.481 -0.3816 -0.0862  0.0663
  188DOPC    C123131   1.700   0.400   3.602  0.1408 -0.1946 -0.3767
  188DOPC    HA23132   1.808   0.386   3.622  0.0343 -2.9309 -1.2749
  188DOPC    HB23133   1.652   0.300   3.590  0.4059 -0.3815  0.0974
  188DOPC    C223134   1.636   0.466   3.724 -0.4485 -0.4178  0.2463
  188DOPC    HS23135   1.708   0.548   3.746 -0.9149  0.9166 -2.6752
  188DOPC   O2123136   1.634   0.372   3.830 -0.2104  0.2270  0.0395
  188DOPC   C2123137   1.752   0.335   3.888  0.3192  0.1158  0.1993
  188DOPC   O2223138   1.853   0.394   3.882 -0.6671  0.0651 -0.6977
  188DOPC   C2223139   1.733   0.211   3.980 -0.0168 -0.2187 -0.5558
  188DOPC   H2R23140   1.836   0.196   4.018  0.5734  0.0795 -1.9984
  188DOPC   H2S23141   1.706   0.131   3.907 -2.5483  2.5875 -2.9743
  188DOPC    C323142   1.500   0.526   3.704  0.6588  0.4672  0.2527
  188DOPC    HX23143   1.445   0.437   3.667 -0.5049  1.2302  0.1021
  188DOPC    HY23144   1.506   0.596   3.618  0.1453 -0.0331 -0.1907
  188DOPC   O3123145   1.440   0.584   3.823  0.0172 -0.0521  0.0209
  188DOPC   C3123146   1.500   0.690   3.879  0.4976  0.2981  0.2970
  188DOPC   O3223147   1.571   0.772   3.824  0.3808  0.4447 -0.5453
  188DOPC   C3223148   1.445   0.695   4.018  0.0082 -0.0282  0.0842
  188DOPC   H2X23149   1.359   0.764   4.006  1.2298  1.7169  0.9721
  188DOPC   H2Y23150   1.404   0.597   4.051  0.2002  0.6984  2.7203
  188DOPC   C2323151   1.636   0.227   4.107 -0.0731  0.4153  0.3799
  188DOPC   H3R23152   1.606   0.123   4.136 -0.2212  0.3736  0.0757
  188DOPC   H3S23153   1.537   0.268   4.078 -1.3523 -2.3414  0.5414
  188DOPC   C2423154   1.697   0.315   4.222  0.9180 -0.6651  0.0657
  188DOPC   H4R23155   1.739   0.406   4.174 -0.5833 -1.1312 -2.3150
  188DOPC   H4S23156   1.786   0.259   4.256  0.5619 -0.6919  0.9687
  188DOPC   C2523157   1.606   0.338   4.337 -0.2458 -0.7177  0.1578
  188DOPC   H5R23158   1.579   0.238   4.378  1.4201 -1.5870 -0.7506
  188DOPC   H5S23159   1.518   0.383   4.288  1.6570 -0.9926 -4.0083
  188DOPC   C2623160   1.652   0.433   4.453  0.0256 -0.5112  0.1429
  188DOPC   H6R23161   1.671   0.529   4.400  2.7418 -1.3354 -0.5458
  188DOPC   H6S23162   1.752   0.405   4.492  0.6025  0.6603 -0.4305
  188DOPC   C2723163   1.554   0.440   4.572 -0.5095 -0.4933 -0.2678
  188DOPC   H7R23164   1.455   0.469   4.533 -0.4694  0.0336  0.0129
  188DOPC   H7S23165   1.579   0.519   4.647 -1.6883 -1.6822  1.4722
  188DOPC   C2823166   1.530   0.307   4.654 -0.2022  0.0931 -0.0053
  188DOPC   H8R23167   1.631   0.271   4.681  0.0972  1.8257  1.3418
  188DOPC   H8S23168   1.469   0.235   4.595 -0.6268 -1.4791  2.2503
  188DOPC   C2923169   1.450   0.347   4.780 -0.4532 -0.3489  0.1077
  188DOPC   H9R23170   1.348   0.386   4.762 -0.1172  0.3044 -0.4172
  188DOPC  C21023171   1.494   0.343   4.905 -0.0258 -0.0326  0.0537
  188DOPC  H10R23172   1.432   0.394   4.979 -0.3021  1.8119 -1.3733
  188DOPC  C21123173   1.638   0.299   4.949  0.7497 -0.3205 -0.9384
  188DOPC  H11R23174   1.665   0.334   5.051 -0.5396 -2.7354  0.3178
  188DOPC  H11S23175   1.704   0.340   4.870  1.8768  1.1192  0.6680
  188DOPC  C21223176   1.668   0.150   4.937 -0.0203 -0.7117 -0.0870
  188DOPC  H12R23177   1.774   0.153   4.969 -0.2750  0.9405  0.6856
  188DOPC  H12S23178   1.658   0.105   4.836 -0.8302  0.1898 -0.4247
  188DOPC  C21323179   1.598   0.064   5.042 -0.5630 -0.4984  0.2705
  188DOPC  H13R23180   1.491   0.090   5.031 -0.1216  0.2459 -3.4724
  188DOPC  H13S23181   1.645   0.086   5.141  0.4722 -0.1460 -0.2761
  188DOPC  C21423182   1.610  -0.081   5.006  0.2701  0.3067 -0.3232
  188DOPC  H14R23183   1.714  -0.118   4.992  0.3795 -0.2610  1.7387
  188DOPC  H14S23184   1.556  -0.100   4.910  1.4369  0.3542 -1.0135
  188DOPC  C21523185   1.536  -0.151   5.123  0.1802  0.3936  0.3667
  188DOPC  H15R23186   1.436  -0.102   5.118  0.1536  0.1808 -1.9723
  188DOPC  H15S23187   1.594  -0.134   5.216  1.5903  0.9018 -0.5787
  188DOPC  C21623188   1.514  -0.304   5.115 -0.0016  0.0802  0.7922
  188DOPC  H16R23189   1.439  -0.323   5.036  2.7270  0.3341 -2.0299
  188DOPC  H16S23190   1.480  -0.342   5.214  2.9855 -1.3741  1.4028
  188DOPC  C21723191   1.640  -0.389   5.067 -0.0587  0.5827  0.1119
  188DOPC  H17R23192   1.718  -0.385   5.147  1.9837 -3.0465 -1.4566
  188DOPC  H17S23193   1.679  -0.353   4.970 -0.1162 -2.5584 -1.1918
  188DOPC  C21823194   1.589  -0.531   5.039  0.7162  0.0856  0.6792
  188DOPC  H18R23195   1.545  -0.573   5.132  1.7998  1.9494  2.0963
  188DOPC  H18S23196   1.662  -0.599   4.990  0.8846  0.6954  0.0688
  188DOPC  H18T23197   1.508  -0.526   4.963  1.5890  1.4369 -0.1996
  188DOPC   C3323198   1.548   0.742   4.127  0.5384  0.1527 -0.0939
  188DOPC   H3X23199   1.598   0.826   4.075 -1.5511  0.9352 -0.9074
  188DOPC   H3Y23200   1.614   0.654   4.149 -0.7221 -0.9577 -0.6237
  188DOPC   C3423201   1.484   0.796   4.257 -0.1999  0.2848 -0.7960
  188DOPC   H4X23202   1.435   0.894   4.236 -2.9205 -0.6659  0.6020
  188DOPC   H4Y23203   1.574   0.801   4.322 -0.2949 -1.2568 -0.5161
  188DOPC   C3523204   1.371   0.716   4.326  0.0294  0.6080 -0.2548
  188DOPC   H5X23205   1.415   0.615   4.343  0.2189  0.9627  1.5940
  188DOPC   H5Y23206   1.283   0.707   4.259 -0.8767 -2.9504  1.1809
  188DOPC   C3623207   1.314   0.770   4.457 -0.6072 -0.0879 -0.5119
  188DOPC   H6X23208   1.396   0.771   4.531 -1.0023  0.0237 -0.0695
  188DOPC   H6Y23209   1.279   0.875   4.450  0.7542  0.5582  1.5073
  188DOPC   C3723210   1.196   0.699   4.523  0.2533 -0.2558 -0.8090
  188DOPC   H7X23211   1.112   0.691   4.451 -0.3210 -3.5064  0.0586
  188DOPC   H7Y23212   1.231   0.597   4.551 -0.6775 -0.5327 -0.6485
  188DOPC   C3823213   1.149   0.771   4.650  0.0872  0.0111  0.4595
  188DOPC   H8X23214   1.057   0.721   4.689 -0.5322  0.2219 -0.6970
  188DOPC   H8Y23215   1.125   0.872   4.611  1.8470 -0.4720 -2.0962
  188DOPC   C3923216   1.252   0.769   4.755 -0.1442  0.5145 -0.5546
  188DOPC   H9X23217   1.277   0.670   4.797 -0.2382  1.5342  2.1316
  188DOPC  C31023218   1.313   0.875   4.803  0.6379 -0.6317  0.0812
  188DOPC  H10X23219   1.407   0.857   4.859  0.9778  0.0703 -0.2428
  188DOPC  C31123220   1.289   1.019   4.772 -0.0405 -1.0130 -0.1637
  188DOPC  H11X23221   1.256   1.076   4.861 -0.3092  0.2553 -1.0375
  188DOPC  H11Y23222   1.202   1.038   4.704  1.3711  1.5312 -1.4017
  188DOPC  C31223223   1.422   1.084   4.729 -0.5314  0.3016  0.5111
  188DOPC  H12X23224   1.504   1.088   4.804  0.2575  1.9129 -0.3610
  188DOPC  H12Y23225   1.407   1.192   4.708  0.9584  0.3495 -0.4986
  188DOPC  C31323226   1.486   1.043   4.595  0.7761 -0.7047 -0.4325
  188DOPC  H13X23227   1.499   0.933   4.594  1.8309 -0.5859 -0.8895
  188DOPC  H13Y23228   1.411   1.072   4.519  0.9755  1.7773  0.2160
  188DOPC  C31423229   1.616   1.110   4.577 -0.6531 -0.1144  0.4088
  188DOPC  H14X23230   1.594   1.218   4.562 -0.0063  0.2821  2.1104
  188DOPC  H14Y23231   1.684   1.089   4.662 -2.6330  0.1810  2.1558
  188DOPC  C31523232   1.683   1.062   4.453 -0.6719 -0.2472  0.2723
  188DOPC  H15X23233   1.609   1.065   4.371  2.1660  1.2620 -2.4617
  188DOPC  H15Y23234   1.704   0.955   4.472  2.4642  0.3664  0.9403
  188DOPC  C31623235   1.823   1.128   4.433 -0.3890  0.2024  0.1606
  188DOPC  H16X23236   1.889   1.116   4.522 -1.1419 -1.1769  0.5719
  188DOPC  H16Y23237   1.861   1.065   4.350 -1.1358  0.2730 -0.2450
  188DOPC  C31723238   1.822   1.269   4.390 -0.1774  0.3575 -0.7713
  188DOPC  H17X23239   1.726   1.273   4.334 -1.1032 -1.2978  0.6036
  188DOPC  H17Y23240   1.794   1.335   4.475  2.7278 -0.5128  1.0280
  188DOPC  C31823241   1.947   1.313   4.309 -0.4130  0.1989  0.6655
  188DOPC  H18X23242   1.939   1.418   4.273  1.0792 -0.3142 -1.3459
  188DOPC  H18Y23243   2.042   1.296   4.363  0.5358 -2.8966 -1.6812
  188DOPC  H18Z23244   1.955   1.248   4.219  0.0634 -0.1663  0.9693
  189DOPC     N23245   4.403   0.693   2.569  0.2524  0.1576 -0.2219
  189DOPC   C1223246   4.256   0.662   2.602  0.1431 -0.5831  0.1076
  189DOPC  H12A23247   4.227   0.611   2.512  0.6015 -2.7388  1.1249
  189DOPC  H12B23248   4.202   0.755   2.613  1.6571  0.3764 -0.2427
  189DOPC   C1323249   4.421   0.799   2.463  0.0399  0.6013  0.8741
  189DOPC  H13A23250   4.528   0.810   2.453  0.2922 -1.4123  0.9970
  189DOPC  H13B23251   4.370   0.775   2.370  0.8428  0.0742  0.5581
  189DOPC  H13C23252   4.372   0.894   2.484  1.1372  1.3582  0.1401
  189DOPC   C1423253   4.473   0.571   2.528  0.6315 -0.3869 -0.1089
  189DOPC  H14A23254   4.489   0.505   2.612  1.2281 -2.6224 -1.8674
  189DOPC  H14B23255   4.418   0.516   2.453  1.4912 -0.8434 -0.4242
  189DOPC  H14C23256   4.567   0.595   2.479 -0.6761  2.5089 -1.4190
  189DOPC   C1523257   4.461   0.755   2.692 -0.2940  0.2570  0.2867
  189DOPC  H15A23258   4.438   0.688   2.774  0.0660 -1.9950 -1.3495
  189DOPC  H15B23259   4.428   0.856   2.707 -1.8203  0.0612 -1.3777
  189DOPC  H15C23260   4.569   0.761   2.684 -0.2223  0.0557  0.9969
  189DOPC   C1123261   4.228   0.553   2.718  0.2931 -0.2265 -0.1101
  189DOPC  H11A23262   4.120   0.526   2.726  0.3354 -1.6929 -3.0354
  189DOPC  H11B23263   4.271   0.457   2.682  0.8897  0.3215 -0.8977
  189DOPC     P23264   4.213   0.624   2.969 -0.4535 -0.3865 -0.0583
  189DOPC   O1323265   4.114   0.520   2.993  0.2270  0.4225 -0.0453
  189DOPC   O1423266   4.167   0.765   2.950  0.1366  0.1620  0.1483
  189DOPC   O1223267   4.297   0.584   2.840  0.1726 -0.1064  0.2241
  189DOPC   O1123268   4.326   0.614   3.081 -0.1834 -0.3463 -0.2201
  189DOPC    C123269   4.366   0.475   3.119 -0.0419 -0.1985  0.3605
  189DOPC    HA23270   4.471   0.486   3.154  0.0724  2.1113 -0.4730
  189DOPC    HB23271   4.368   0.404   3.033  0.7665  0.2045  0.0272
  189DOPC    C223272   4.285   0.425   3.246 -0.5789  0.2224 -0.5560
  189DOPC    HS23273   4.175   0.434   3.234 -0.8460 -1.0477  0.6367
  189DOPC   O2123274   4.324   0.509   3.360  0.2513  0.5844 -0.3740
  189DOPC   C2123275   4.242   0.594   3.412  0.6375 -0.1055 -0.4169
  189DOPC   O2223276   4.132   0.620   3.368  0.5929  0.2601 -0.4028
  189DOPC   C2223277   4.301   0.656   3.542  0.0158  0.3787 -0.2328
  189DOPC   H2R23278   4.372   0.737   3.515  0.9708 -0.2789  0.2678
  189DOPC   H2S23279   4.355   0.572   3.590 -1.0203  1.2665  2.6693
  189DOPC    C323280   4.323   0.276   3.284  0.2896  1.3186 -0.0755
  189DOPC    HX23281   4.429   0.249   3.264 -0.0090 -2.8989  2.7577
  189DOPC    HY23282   4.269   0.207   3.216  0.9008  0.6206  0.1243
  189DOPC   O3123283   4.291   0.243   3.426 -0.5768 -0.5063  0.2606
  189DOPC   C3123284   4.159   0.229   3.446 -0.3431  0.0370  0.2015
  189DOPC   O3223285   4.080   0.216   3.355 -0.3463  0.0665 -0.0348
  189DOPC   C3223286   4.140   0.187   3.594  0.4180 -0.0873  0.2738
  189DOPC   H2X23287   4.033   0.161   3.607  0.3099  0.2640  0.0822
  189DOPC   H2Y23288   4.200   0.093   3.602  0.6084 -0.0993 -1.0270
  189DOPC   C2323289   4.201   0.711   3.637  0.3591  0.1491 -0.0947
  189DOPC   H3R23290   4.111   0.646   3.632  1.1104 -0.9974  0.7078
  189DOPC   H3S23291   4.164   0.809   3.600 -1.6839 -0.8930 -0.9831
  189DOPC   C2423292   4.247   0.721   3.781  0.2996  0.0437 -0.5088
  189DOPC   H4R23293   4.348   0.766   3.793 -0.2084  0.5372  2.6989
  189DOPC   H4S23294   4.257   0.621   3.829 -1.5065  0.7813  1.5457
  189DOPC   C2523295   4.161   0.811   3.869 -0.0127  0.2183 -0.2407
  189DOPC   H5R23296   4.054   0.784   3.852 -1.1562  2.1460  2.9073
  189DOPC   H5S23297   4.167   0.914   3.829  1.8861 -0.6654 -2.4428
  189DOPC   C2623298   4.197   0.811   4.015  0.9752 -0.3787 -0.0611
  189DOPC   H6R23299   4.177   0.705   4.043  0.7156 -0.9400 -2.2241
  189DOPC   H6S23300   4.132   0.875   4.078  0.5060 -1.2053  0.3179
  189DOPC   C2723301   4.344   0.848   4.044 -0.1429  0.2508  0.1004
  189DOPC   H7R23302   4.375   0.937   3.986  1.3015  0.2521  0.8446
  189DOPC   H7S23303   4.414   0.768   4.009 -1.2644 -0.6360 -0.2100
  189DOPC   C2823304   4.390   0.869   4.191  0.2756 -0.0467 -1.0657
  189DOPC   H8R23305   4.350   0.967   4.225 -0.4803 -0.8341  0.4219
  189DOPC   H8S23306   4.499   0.893   4.190  1.1032 -2.6643  3.2645
  189DOPC   C2923307   4.361   0.756   4.287  0.2491  0.8650 -0.8359
  189DOPC   H9R23308   4.270   0.697   4.270  1.5274 -0.7948 -2.4619
  189DOPC  C21023309   4.433   0.714   4.392  0.7014  0.0358  0.0217
  189DOPC  H10R23310   4.404   0.626   4.450  3.4910 -1.0092  0.0011
  189DOPC  C21123311   4.560   0.781   4.425 -0.1242 -0.6771  0.2151
  189DOPC  H11R23312   4.566   0.888   4.394 -2.1230 -0.0221  1.8827
  189DOPC  H11S23313   4.645   0.728   4.378  0.5949  1.2580 -0.7979
  189DOPC  C21223314   4.576   0.783   4.583 -0.7643 -0.2216 -0.1288
  189DOPC  H12R23315   4.563   0.679   4.620 -2.1950 -0.5042 -1.3184
  189DOPC  H12S23316   4.503   0.860   4.616  1.8582  2.4970 -0.2635
  189DOPC  C21323317   4.711   0.844   4.621 -0.6735  0.1609 -0.2773
  189DOPC  H13R23318   4.732   0.928   4.551 -0.1572  0.0921 -0.2042
  189DOPC  H13S23319   4.784   0.763   4.600 -1.5443 -0.5227 -0.7428
  189DOPC  C21423320   4.722   0.890   4.769  0.4460  0.1755  0.8857
  189DOPC  H14R23321   4.716   0.808   4.845 -1.1537  0.9269  1.6159
  189DOPC  H14S23322   4.640   0.963   4.783 -0.0603 -0.2389  0.0980
  189DOPC  C21523323   4.850   0.969   4.785 -0.0181 -0.2767 -0.5319
  189DOPC  H15R23324   4.857   1.055   4.715 -0.5017  0.6342  0.5161
  189DOPC  H15S23325   4.943   0.908   4.775  0.2989 -0.1794  1.3993
  189DOPC  C21623326   4.855   1.028   4.928  0.1249 -0.3832  0.2716
  189DOPC  H16R23327   4.872   0.948   5.004  1.7379 -0.9001 -0.5751
  189DOPC  H16S23328   4.763   1.083   4.957 -0.5547 -1.4421  0.1848
  189DOPC  C21723329   4.960   1.142   4.946  0.1951 -0.2419 -0.4977
  189DOPC  H17R23330   4.936   1.240   4.901  2.0472  0.4261 -0.0955
  189DOPC  H17S23331   5.055   1.106   4.900  0.3049  0.1301 -0.5595
  189DOPC  C21823332   4.989   1.171   5.094  0.6181  0.0863 -0.0961
  189DOPC  H18R23333   4.894   1.206   5.140 -0.5017 -2.7445 -0.0960
  189DOPC  H18S23334   5.071   1.245   5.105 -1.5853  3.2327 -2.5901
  189DOPC  H18T23335   5.005   1.076   5.148  0.9784  0.2423  0.0756
  189DOPC   C3323336   4.196   0.293   3.698 -0.5916 -0.1781 -0.4137
  189DOPC   H3X23337   4.162   0.392   3.659 -1.9840 -0.6787 -0.5319
  189DOPC   H3Y23338   4.307   0.289   3.695 -0.5776 -3.2177  0.9313
  189DOPC   C3423339   4.174   0.263   3.851 -0.2160 -0.0298  0.3008
  189DOPC   H4X23340   4.174   0.155   3.876 -0.3657  0.0246  0.5425
  189DOPC   H4Y23341   4.070   0.290   3.879 -1.5990 -1.5761 -2.8647
  189DOPC   C3523342   4.262   0.338   3.950  0.0960 -0.3593  0.5450
  189DOPC   H5X23343   4.265   0.448   3.930 -0.2070 -0.4314  0.0923
  189DOPC   H5Y23344   4.368   0.306   3.939 -0.1085 -1.6962  2.0774
  189DOPC   C3623345   4.225   0.311   4.092 -0.1711 -0.0674 -0.4223
  189DOPC   H6X23346   4.119   0.330   4.120 -0.0596  1.2633 -0.8426
  189DOPC   H6Y23347   4.244   0.206   4.122  2.4834  0.1799 -1.0335
  189DOPC   C3723348   4.310   0.407   4.180 -0.3969  0.3846 -0.5036
  189DOPC   H7X23349   4.414   0.397   4.144 -0.0963 -1.4340  0.7263
  189DOPC   H7Y23350   4.279   0.514   4.178  1.5705  0.9760 -1.2169
  189DOPC   C3823351   4.309   0.379   4.329  0.6004  0.4438 -0.5107
  189DOPC   H8X23352   4.388   0.441   4.375  0.2434  0.7075 -0.2478
  189DOPC   H8Y23353   4.331   0.271   4.345 -0.5717  0.0210 -1.4920
  189DOPC   C3923354   4.187   0.408   4.419 -0.3110  0.3899  0.2167
  189DOPC   H9X23355   4.089   0.406   4.371 -0.5411 -1.2342  0.7015
  189DOPC  C31023356   4.194   0.430   4.554  0.1338 -0.1309  0.0785
  189DOPC  H10X23357   4.103   0.455   4.610  1.3264 -0.7384  2.4178
  189DOPC  C31123358   4.324   0.431   4.633  0.8200 -0.3338  0.5517
  189DOPC  H11X23359   4.385   0.518   4.602 -1.0601 -0.1384 -3.2037
  189DOPC  H11Y23360   4.385   0.339   4.617  1.6116 -0.0479  1.7690
  189DOPC  C31223361   4.289   0.438   4.783 -0.2346 -0.4099 -0.0229
  189DOPC  H12X23362   4.236   0.344   4.810 -0.3940 -0.6463 -1.1214
  189DOPC  H12Y23363   4.227   0.527   4.808 -0.7986 -1.2001  1.5198
  189DOPC  C31323364   4.404   0.456   4.878 -0.3250 -0.6009  0.6765
  189DOPC  H13X23365   4.447   0.353   4.880  2.5383  0.4796  0.1951
  189DOPC  H13Y23366   4.483   0.531   4.858 -2.4805  1.6206  0.0589
  189DOPC  C31423367   4.358   0.493   5.018  0.6759 -0.1421  0.1551
  189DOPC  H14X23368   4.297   0.586   5.016 -0.6929 -1.0137 -0.4415
  189DOPC  H14Y23369   4.292   0.412   5.055 -0.8333  0.8700 -0.2485
  189DOPC  C31523370   4.468   0.512   5.121 -0.4603  0.0537 -0.0312
  189DOPC  H15X23371   4.552   0.440   5.115  0.0368  0.6973 -0.9424
  189DOPC  H15Y23372   4.422   0.504   5.222  1.6216  0.4589  1.0162
  189DOPC  C31623373   4.536   0.653   5.115  0.7043  0.7207 -0.5976
  189DOPC  H16X23374   4.557   0.665   5.006 -0.8261 -0.3022 -1.0505
  189DOPC  H16Y23375   4.458   0.729   5.139  1.1014  1.1829 -0.7673
  189DOPC  C31723376   4.656   0.669   5.201  0.2098  0.3751 -0.4615
  189DOPC  H17X23377   4.733   0.590   5.187 -0.5342 -0.6663  1.0920
  189DOPC  H17Y23378   4.700   0.767   5.174  2.4090 -0.5109 -0.2778
  189DOPC  C31823379   4.620   0.665   5.349 -0.3026 -0.1796 -0.5449
  189DOPC  H18X23380   4.524   0.717   5.368  0.0925  0.0631  0.8513
  189DOPC  H18Y23381   4.612   0.561   5.387  0.4455 -0.1794 -0.3787
  189DOPC  H18Z23382   4.712   0.690   5.406 -0.5050 -2.5803  1.0022
  190DOPC     N23383   3.805   1.170   2.887  0.6669  0.6901  0.3130
  190DOPC   C1223384   3.797   1.321   2.895 -0.2847  0.3802 -0.6358
  190DOPC  H12A23385   3.714   1.343   2.961  0.0003  1.2221 -0.5538
  190DOPC  H12B23386   3.770   1.361   2.798 -0.5454 -0.3122 -0.8526
  190DOPC   C1323387   3.666   1.120   2.867 -0.4270 -0.1868  0.2173
  190DOPC  H13A23388   3.610   1.149   2.954 -0.5050 -0.4328  0.2491
  190DOPC  H13B23389   3.611   1.165   2.786 -0.1116 -0.0488  0.0763
  190DOPC  H13C23390   3.658   1.013   2.858 -0.9945 -0.0942 -0.3980
  190DOPC   C1423391   3.850   1.108   3.012 -0.4704 -0.0233  0.4589
  190DOPC  H14A23392   3.926   1.174   3.051  1.2562 -1.6203 -0.0890
  190DOPC  H14B23393   3.784   1.123   3.097  0.8345 -1.1373  1.7149
  190DOPC  H14C23394   3.884   1.007   3.001 -0.9904  0.0292 -2.4466
  190DOPC   C1523395   3.899   1.128   2.779  0.0161  0.4031 -0.1604
  190DOPC  H15A23396   3.919   1.022   2.788  0.7575  0.7206  3.3206
  190DOPC  H15B23397   3.998   1.170   2.785  1.0206 -1.4918 -2.0907
  190DOPC  H15C23398   3.858   1.145   2.681 -0.9983  0.6930  0.2999
  190DOPC   C1123399   3.917   1.404   2.947 -0.3743 -0.0910 -0.2778
  190DOPC  H11A23400   4.010   1.383   2.889 -0.5101  0.5493 -0.7428
  190DOPC  H11B23401   3.885   1.510   2.936  1.2284  0.4467 -0.0398
  190DOPC     P23402   3.855   1.429   3.200 -0.3009  0.1349  0.0308
  190DOPC   O1323403   3.724   1.378   3.183  0.1427  0.3535  0.0045
  190DOPC   O1423404   3.872   1.576   3.218  0.3335  0.4249  0.5391
  190DOPC   O1223405   3.940   1.369   3.084 -0.2461  0.2199  0.4009
  190DOPC   O1123406   3.912   1.366   3.329  0.5467 -0.0689  0.9582
  190DOPC    C123407   4.046   1.400   3.381  0.1547  0.9318  0.3204
  190DOPC    HA23408   4.038   1.491   3.445 -0.7680  0.5927  0.6980
  190DOPC    HB23409   4.117   1.414   3.297 -1.8429  0.2711 -1.5818
  190DOPC    C223410   4.095   1.284   3.476  0.0379 -0.2570 -0.5978
  190DOPC    HS23411   4.091   1.189   3.419 -1.8299  0.6854 -2.1566
  190DOPC   O2123412   4.007   1.279   3.586 -0.0381 -0.6610  0.0657
  190DOPC   C2123413   4.006   1.162   3.653  0.2682 -0.1936 -0.5664
  190DOPC   O2223414   4.067   1.064   3.623  0.8626  0.3393  0.5614
  190DOPC   C2223415   3.899   1.175   3.757  0.2298  0.9388  0.3200
  190DOPC   H2R23416   3.804   1.175   3.698  2.4301  0.2512 -3.5966
  190DOPC   H2S23417   3.906   1.275   3.805 -1.9585  0.7482  1.1784
  190DOPC    C323418   4.237   1.327   3.526 -0.5508  0.3363  0.8998
  190DOPC    HX23419   4.218   1.430   3.564 -0.9311  0.5652  0.1052
  190DOPC    HY23420   4.309   1.345   3.443 -1.8339 -0.6855 -0.4967
  190DOPC   O3123421   4.290   1.240   3.624  0.0143  0.0368 -0.2158
  190DOPC   C3123422   4.373   1.138   3.587 -0.4638 -0.2110 -0.1682
  190DOPC   O3223423   4.391   1.090   3.483  0.0248  0.3003  0.4623
  190DOPC   C3223424   4.437   1.084   3.717  0.3326 -0.2859  0.4445
  190DOPC   H2X23425   4.357   1.044   3.783 -2.6689  0.1920 -2.5801
  190DOPC   H2Y23426   4.504   1.003   3.680  0.5899  0.3998 -0.6341
  190DOPC   C2323427   3.915   1.051   3.863 -0.0208  0.5623  0.6222
  190DOPC   H3R23428   4.007   1.059   3.925  0.8153 -1.3853 -0.2811
  190DOPC   H3S23429   3.928   0.956   3.805  1.3885  0.6331  0.8019
  190DOPC   C2423430   3.783   1.030   3.947 -0.8450  0.1173  0.3439
  190DOPC   H4R23431   3.693   1.038   3.882 -0.6853  1.8586  0.2897
  190DOPC   H4S23432   3.775   1.123   4.006 -1.1094 -0.5037  1.3007
  190DOPC   C2523433   3.801   0.901   4.025  1.1942  0.2697  0.2305
  190DOPC   H5R23434   3.894   0.909   4.085  1.4990  4.0944 -0.4954
  190DOPC   H5S23435   3.816   0.810   3.962  1.2881  1.5500 -1.6598
  190DOPC   C2623436   3.680   0.880   4.114  0.0812 -0.8247 -1.0073
  190DOPC   H6R23437   3.686   0.782   4.166  0.1552  0.4013  1.4471
  190DOPC   H6S23438   3.589   0.879   4.050  0.2007 -2.1745 -1.1843
  190DOPC   C2723439   3.664   0.982   4.226 -0.0152  0.6765  1.0700
  190DOPC   H7R23440   3.688   1.087   4.200  1.3516  0.0068 -0.5752
  190DOPC   H7S23441   3.738   0.960   4.306 -0.7298 -0.5916  1.4158
  190DOPC   C2823442   3.526   0.989   4.296 -0.1785  0.3854 -0.0057
  190DOPC   H8R23443   3.538   1.076   4.364 -1.1168  0.6155 -0.1105
  190DOPC   H8S23444   3.519   0.895   4.356 -1.6448 -0.5560 -1.5502
  190DOPC   C2923445   3.415   1.015   4.206  0.6352 -0.1913  0.3116
  190DOPC   H9R23446   3.436   1.054   4.106 -2.3114 -3.0139 -1.6228
  190DOPC  C21023447   3.280   0.994   4.251  0.3775  0.1109 -0.1041
  190DOPC  H10R23448   3.195   1.007   4.182 -1.4634 -0.9693  1.8153
  190DOPC  C21123449   3.236   0.936   4.384 -0.2507 -0.2739  1.4099
  190DOPC  H11R23450   3.321   0.903   4.448  1.4461  0.7630 -0.2244
  190DOPC  H11S23451   3.172   0.850   4.357  0.9328 -0.8704  0.4154
  190DOPC  C21223452   3.155   1.043   4.455 -0.0127 -0.6010  0.3684
  190DOPC  H12R23453   3.102   1.101   4.377 -1.0199 -2.2823 -0.2420
  190DOPC  H12S23454   3.223   1.114   4.507 -0.3065 -0.8316  1.0886
  190DOPC  C21323455   3.062   0.976   4.562 -0.4485  0.1354 -0.0554
  190DOPC  H13R23456   3.115   0.910   4.634 -0.1932  0.7517  0.3368
  190DOPC  H13S23457   2.987   0.910   4.515  1.2620 -2.1819  0.3041
  190DOPC  C21423458   2.989   1.084   4.634  0.1110 -0.0353 -0.0409
  190DOPC  H14R23459   2.937   1.139   4.553  0.3475  0.4467  0.1307
  190DOPC  H14S23460   3.065   1.147   4.686  0.4927  0.3963 -1.0973
  190DOPC  C21523461   2.895   1.024   4.738 -0.3220 -0.5938  0.0667
  190DOPC  H15R23462   2.854   1.107   4.799 -1.9820 -1.3963  0.1071
  190DOPC  H15S23463   2.951   0.951   4.802 -0.8877 -2.4717 -1.4763
  190DOPC  C21623464   2.775   0.950   4.680 -0.3700 -0.4821 -0.0559
  190DOPC  H16R23465   2.817   0.867   4.619  1.3997 -0.2642  0.7852
  190DOPC  H16S23466   2.718   1.017   4.612 -0.9015 -0.4460  0.4212
  190DOPC  C21723467   2.677   0.882   4.776 -0.1547  0.1907  0.2468
  190DOPC  H17R23468   2.590   0.843   4.718 -1.3139 -0.0435  2.0785
  190DOPC  H17S23469   2.638   0.967   4.836  1.7637 -0.8989  3.2173
  190DOPC  C21823470   2.728   0.776   4.873  0.1376  0.3275 -0.3203
  190DOPC  H18R23471   2.815   0.807   4.934 -0.5342  1.0211  0.2942
  190DOPC  H18S23472   2.765   0.692   4.810 -1.2027 -1.8396  1.6268
  190DOPC  H18T23473   2.651   0.731   4.939  0.0185  0.3808 -0.4224
  190DOPC   C3323474   4.532   1.191   3.785 -0.3639  1.0077  0.3455
  190DOPC   H3X23475   4.467   1.258   3.846 -0.2418  0.3752  1.1912
  190DOPC   H3Y23476   4.579   1.261   3.714  1.5712  1.5275  2.0591
  190DOPC   C3423477   4.654   1.121   3.856  0.1685 -0.0911 -0.5457
  190DOPC   H4X23478   4.745   1.107   3.794 -0.7406  2.1726 -2.5226
  190DOPC   H4Y23479   4.609   1.026   3.893 -0.6347 -0.0084 -1.2965
  190DOPC   C3523480   4.704   1.183   3.993 -0.1698  0.0826 -0.6080
  190DOPC   H5X23481   4.743   1.284   3.964 -0.4384  0.2090 -0.5335
  190DOPC   H5Y23482   4.787   1.119   4.030  0.2569  0.1053 -1.4871
  190DOPC   C3623483   4.589   1.201   4.098  0.6677 -0.0894 -0.0247
  190DOPC   H6X23484   4.514   1.278   4.068  1.9161  1.7616  1.3185
  190DOPC   H6Y23485   4.545   1.100   4.107  4.9478 -2.0415  1.7707
  190DOPC   C3723486   4.642   1.249   4.235  0.1448  0.4911 -0.6873
  190DOPC   H7X23487   4.685   1.168   4.298 -1.4531  0.2674  0.1509
  190DOPC   H7Y23488   4.723   1.323   4.218  2.0357 -0.8061  1.9340
  190DOPC   C3823489   4.539   1.316   4.334  0.4863  0.1733  0.8543
  190DOPC   H8X23490   4.485   1.392   4.274  0.6462  0.5663  1.2050
  190DOPC   H8Y23491   4.597   1.359   4.418  2.0147 -0.0138 -0.0627
  190DOPC   C3923492   4.447   1.211   4.394 -0.3215 -0.2789 -0.3762
  190DOPC   H9X23493   4.378   1.153   4.330 -0.1216 -1.3346  0.3424
  190DOPC  C31023494   4.453   1.169   4.522 -0.1448  0.1047 -1.0200
  190DOPC  H10X23495   4.390   1.083   4.551 -0.1395  0.8851  1.5818
  190DOPC  C31123496   4.544   1.212   4.628 -0.0430  0.3088 -0.3162
  190DOPC  H11X23497   4.640   1.258   4.594  0.7892 -1.4131 -0.3685
  190DOPC  H11Y23498   4.565   1.125   4.693 -1.8240 -0.3549 -0.5795
  190DOPC  C31223499   4.493   1.327   4.722 -1.0031  0.2251  0.0864
  190DOPC  H12X23500   4.566   1.342   4.804  1.5726  0.1505 -2.0670
  190DOPC  H12Y23501   4.395   1.297   4.766 -0.7998  1.0546  1.1504
  190DOPC  C31323502   4.471   1.468   4.665 -0.1474 -0.2821  0.2546
  190DOPC  H13X23503   4.509   1.545   4.736 -1.4301 -1.4524  2.2977
  190DOPC  H13Y23504   4.529   1.485   4.571 -2.1466  0.8099 -0.8722
  190DOPC  C31423505   4.329   1.502   4.632 -0.0611  0.2652  0.4104
  190DOPC  H14X23506   4.283   1.410   4.589  1.4758 -0.1422 -0.4417
  190DOPC  H14Y23507   4.275   1.521   4.728 -0.1081  1.2377  0.2044
  190DOPC  C31523508   4.303   1.628   4.553 -0.0168  0.4344 -0.2953
  190DOPC  H15X23509   4.354   1.612   4.455  0.5616  0.0955  0.0551
  190DOPC  H15Y23510   4.340   1.722   4.599  2.0377 -0.3900 -0.1839
  190DOPC  C31623511   4.154   1.651   4.517 -0.0112 -1.0310 -0.2119
  190DOPC  H16X23512   4.101   1.563   4.475  1.9278 -0.8032 -3.4449
  190DOPC  H16Y23513   4.110   1.689   4.612 -0.2832 -0.2708 -0.6363
  190DOPC  C31723514   4.133   1.764   4.416 -0.0201  0.0486 -0.6676
  190DOPC  H17X23515   4.171   1.853   4.471 -1.7529 -0.4322  1.4552
  190DOPC  H17Y23516   4.205   1.749   4.333  0.8823 -1.1600  0.2797
  190DOPC  C31823517   3.997   1.786   4.350 -0.0538  0.2486 -0.0220
  190DOPC  H18X23518   3.985   1.889   4.311 -0.2801 -0.0910 -0.8612
  190DOPC  H18Y23519   3.980   1.707   4.275 -2.0413  0.2611  0.3778
  190DOPC  H18Z23520   3.916   1.766   4.423 -0.5080  0.6233 -0.4173
  191DOPC     N23521   5.592   0.648   2.717  0.0912  0.5590 -0.4107
  191DOPC   C1223522   5.560   0.616   2.861 -0.4544  0.1842  0.3757
  191DOPC  H12A23523   5.482   0.540   2.853 -0.9091  0.8612 -2.4225
  191DOPC  H12B23524   5.522   0.708   2.903  2.0235  1.6584 -0.4210
  191DOPC   C1323525   5.460   0.662   2.645  0.8670  0.2473 -0.2277
  191DOPC  H13A23526   5.469   0.672   2.538 -0.3585 -2.3588 -0.6724
  191DOPC  H13B23527   5.405   0.570   2.659  1.0489  0.3162  1.0738
  191DOPC  H13C23528   5.405   0.744   2.690 -0.0723 -1.7140  2.4943
  191DOPC   C1423529   5.676   0.541   2.658  0.4930 -0.2438 -0.4130
  191DOPC  H14A23530   5.778   0.549   2.693 -0.2494  0.8825  1.6374
  191DOPC  H14B23531   5.649   0.438   2.678  5.5443 -1.6905  0.4259
  191DOPC  H14C23532   5.683   0.557   2.551 -0.7385 -0.5228 -0.5439
  191DOPC   C1523533   5.667   0.783   2.716 -0.4381 -0.1606  0.3171
  191DOPC  H15A23534   5.601   0.864   2.744 -0.5470  0.7196 -2.1778
  191DOPC  H15B23535   5.701   0.807   2.616 -0.9725  0.4580  0.2781
  191DOPC  H15C23536   5.745   0.779   2.790  0.6748  2.1244 -0.6577
  191DOPC   C1123537   5.662   0.551   2.958 -0.1024  0.0913  0.0579
  191DOPC  H11A23538   5.602   0.527   3.048 -1.9076 -1.7500 -1.5366
  191DOPC  H11B23539   5.709   0.455   2.927  0.6045  0.0335  1.2533
  191DOPC     P23540   5.756   0.764   3.062  0.1667  0.3053 -0.5996
  191DOPC   O1323541   5.630   0.837   3.036  0.3443 -0.6277  0.3784
  191DOPC   O1423542   5.883   0.850   3.051 -0.2641 -0.4549  0.4231
  191DOPC   O1223543   5.769   0.637   2.975 -0.1572  0.1784 -0.0330
  191DOPC   O1123544   5.742   0.697   3.204  0.0511 -0.0910  0.0798
  191DOPC    C123545   5.656   0.742   3.309 -0.3619  0.1796  0.7528
  191DOPC    HA23546   5.588   0.663   3.347 -1.5169  0.0361 -1.4663
  191DOPC    HB23547   5.599   0.833   3.279  1.7930  1.8778  1.5567
  191DOPC    C223548   5.731   0.772   3.439 -0.3282 -0.8754  0.0138
  191DOPC    HS23549   5.656   0.808   3.511  1.1525 -0.4147  1.3868
  191DOPC   O2123550   5.830   0.871   3.405 -0.4759 -0.0644 -0.5448
  191DOPC   C2123551   5.869   0.938   3.511 -0.8280  0.0925  0.2786
  191DOPC   O2223552   5.838   0.922   3.625 -0.9165  0.1521  0.1871
  191DOPC   C2223553   5.971   1.047   3.461  0.8099  0.1390  0.6896
  191DOPC   H2R23554   5.923   1.145   3.441  1.9438  0.2469 -1.8578
  191DOPC   H2S23555   6.023   1.007   3.372 -0.1792 -2.8537  1.3624
  191DOPC    C323556   5.795   0.644   3.484  0.5728 -0.4766 -0.1145
  191DOPC    HX23557   5.879   0.620   3.416  1.9948  2.0203  0.6521
  191DOPC    HY23558   5.731   0.553   3.478  1.0480 -0.8081 -0.1648
  191DOPC   O3123559   5.860   0.652   3.611  0.4425  0.1018 -0.2113
  191DOPC   C3123560   5.789   0.633   3.715  0.5020 -0.7493  0.1679
  191DOPC   O3223561   5.666   0.635   3.718  0.4188  0.4186  0.0362
  191DOPC   C3223562   5.887   0.613   3.833  0.0967  0.2949  0.0949
  191DOPC   H2X23563   5.862   0.513   3.872 -2.0359  0.2149 -1.2714
  191DOPC   H2Y23564   5.990   0.606   3.793  0.2650  1.9269  0.1671
  191DOPC   C2323565   6.083   1.075   3.566  0.8729 -0.4118 -0.5203
  191DOPC   H3R23566   6.184   1.095   3.524  0.7417  0.7336 -0.3090
  191DOPC   H3S23567   6.084   0.986   3.633 -1.8958  0.7180  1.1846
  191DOPC   C2423568   6.069   1.207   3.653 -0.7235  0.1708 -0.6855
  191DOPC   H4R23569   5.974   1.195   3.709 -0.5861 -0.7932 -0.6430
  191DOPC   H4S23570   6.056   1.296   3.588 -1.9346 -0.2458 -1.0409
  191DOPC   C2523571   6.188   1.218   3.742  0.5737 -0.2610 -0.9115
  191DOPC   H5R23572   6.279   1.221   3.679  3.2031 -0.0911  2.6051
  191DOPC   H5S23573   6.191   1.142   3.823  1.3997  1.5213  0.8240
  191DOPC   C2623574   6.192   1.345   3.819  0.0071 -0.3474  0.1954
  191DOPC   H6R23575   6.105   1.350   3.888  0.6769  2.4980  0.9634
  191DOPC   H6S23576   6.187   1.430   3.747  0.5054 -1.4635 -1.2063
  191DOPC   C2723577   6.326   1.351   3.896  0.3573  0.1551  0.2100
  191DOPC   H7R23578   6.411   1.333   3.826  0.3880 -1.3616  0.5986
  191DOPC   H7S23579   6.327   1.276   3.977 -0.4409 -1.1549 -0.9440
  191DOPC   C2823580   6.355   1.483   3.975  0.2256 -0.5984 -0.1512
  191DOPC   H8R23581   6.270   1.506   4.043  0.2312 -1.9055  0.3422
  191DOPC   H8S23582   6.379   1.570   3.911 -2.5119 -0.8509 -1.6465
  191DOPC   C2923583   6.482   1.467   4.055 -0.4199  0.2085  0.3265
  191DOPC   H9R23584   6.563   1.435   3.987 -1.0872  2.6051 -1.7369
  191DOPC  C21023585   6.510   1.494   4.181  0.4519 -0.0472 -0.2060
  191DOPC  H10R23586   6.615   1.479   4.211  1.1869 -1.9937 -3.3260
  191DOPC  C21123587   6.405   1.551   4.270  0.1996 -0.0673  0.1532
  191DOPC  H11R23588   6.334   1.473   4.306 -1.6236  1.4219 -0.0948
  191DOPC  H11S23589   6.350   1.634   4.220  0.8197 -1.1807 -2.5772
  191DOPC  C21223590   6.473   1.615   4.395  0.6060  0.0552 -0.5132
  191DOPC  H12R23591   6.408   1.700   4.426 -1.9294 -2.0085  0.1690
  191DOPC  H12S23592   6.568   1.670   4.376  0.4229  0.8222  0.6389
  191DOPC  C21323593   6.501   1.524   4.518  0.0634 -0.2576  0.1549
  191DOPC  H13R23594   6.556   1.439   4.473 -1.9843 -1.6567  0.1509
  191DOPC  H13S23595   6.401   1.487   4.547  0.5372 -0.6373  1.3629
  191DOPC  C21423596   6.557   1.593   4.643 -0.2902 -0.2731  0.5566
  191DOPC  H14R23597   6.507   1.559   4.736  1.4676  0.0223  1.6487
  191DOPC  H14S23598   6.542   1.703   4.640  1.4548  0.0213  1.1803
  191DOPC  C21523599   6.704   1.566   4.641  0.2600  0.1629  0.2349
  191DOPC  H15R23600   6.748   1.597   4.544 -1.3756 -0.0900 -0.6258
  191DOPC  H15S23601   6.719   1.456   4.651  1.9724  0.1544 -1.7871
  191DOPC  C21623602   6.786   1.633   4.753 -0.4268  0.3851 -0.0766
  191DOPC  H16R23603   6.803   1.743   4.743  1.5916  0.2660  1.3827
  191DOPC  H16S23604   6.889   1.594   4.750 -0.1670  0.9287  1.0526
  191DOPC  C21723605   6.736   1.609   4.896 -0.1603  0.1262  0.1794
  191DOPC  H17R23606   6.729   1.500   4.916 -3.2971  0.1061 -0.4772
  191DOPC  H17S23607   6.634   1.655   4.905 -0.6765 -1.0554  0.5579
  191DOPC  C21823608   6.832   1.662   5.001  0.8644  0.4249  0.3605
  191DOPC  H18R23609   6.791   1.649   5.103  2.0509  1.6400  1.0346
  191DOPC  H18S23610   6.861   1.769   4.992  0.8308  0.3571 -0.7094
  191DOPC  H18T23611   6.928   1.606   4.997  0.1703 -0.7443 -0.7347
  191DOPC   C3323612   5.878   0.725   3.932 -0.8352 -0.1291  0.1240
  191DOPC   H3X23613   5.869   0.667   4.027 -0.6528 -2.3885 -1.1643
  191DOPC   H3Y23614   5.791   0.794   3.929 -2.0479 -1.6288 -0.7525
  191DOPC   C3423615   6.004   0.815   3.928 -0.3166  0.1219 -0.5093
  191DOPC   H4X23616   6.020   0.861   3.828 -0.3463  1.7750  0.2212
  191DOPC   H4Y23617   6.094   0.762   3.965 -0.7401  1.7356  3.2814
  191DOPC   C3523618   5.995   0.934   4.027 -0.5243 -0.1126 -0.4837
  191DOPC   H5X23619   6.088   0.993   4.018 -0.0990 -0.6510  0.2444
  191DOPC   H5Y23620   5.998   0.902   4.133  0.3355  0.8624 -0.1982
  191DOPC   C3623621   5.873   1.017   4.002  0.2328 -0.3267 -0.0938
  191DOPC   H6X23622   5.849   1.007   3.894  0.3381  0.6500 -0.2135
  191DOPC   H6Y23623   5.789   0.972   4.059 -2.9240  3.3108 -1.4480
  191DOPC   C3723624   5.890   1.171   4.027 -0.2285  0.5412  0.6574
  191DOPC   H7X23625   5.960   1.212   3.951 -2.3255  2.1810 -0.5190
  191DOPC   H7Y23626   5.796   1.222   3.997 -0.6476 -0.1834  0.7254
  191DOPC   C3823627   5.944   1.203   4.167  0.0481 -0.4538 -0.2161
  191DOPC   H8X23628   5.961   1.312   4.176 -0.2169 -0.5411  1.6013
  191DOPC   H8Y23629   6.042   1.153   4.178  0.6716  0.2642 -2.0858
  191DOPC   C3923630   5.851   1.166   4.276  0.3110 -0.1191 -0.2764
  191DOPC   H9X23631   5.748   1.207   4.277  0.2850 -0.1724  1.0527
  191DOPC  C31023632   5.875   1.082   4.387 -0.3917 -0.1162 -0.2070
  191DOPC  H10X23633   5.796   1.059   4.460  0.2973 -0.1019  0.5604
  191DOPC  C31123634   6.003   1.014   4.424 -0.7671  0.2388 -0.2948
  191DOPC  H11X23635   6.090   1.077   4.394  0.8468 -0.2689  2.9125
  191DOPC  H11Y23636   6.006   0.910   4.386  2.4904 -0.1039  0.6047
  191DOPC  C31223637   6.023   1.004   4.577 -0.4873  0.5905  0.0569
  191DOPC  H12X23638   6.121   0.952   4.589 -1.0729 -0.0353  2.6717
  191DOPC  H12Y23639   5.937   0.952   4.625  2.3381 -1.2457  3.6783
  191DOPC  C31323640   6.023   1.125   4.659  0.3521  0.8042  0.3702
  191DOPC  H13X23641   6.111   1.190   4.638 -0.6413  2.2454  0.5065
  191DOPC  H13Y23642   5.938   1.187   4.623  0.2828  0.6997  0.3515
  191DOPC  C31423643   6.003   1.101   4.810  0.3756  0.0231  0.3804
  191DOPC  H14X23644   5.973   1.199   4.852  1.4570  0.3292  0.4798
  191DOPC  H14Y23645   5.923   1.025   4.820  0.0247  0.5651  2.0016
  191DOPC  C31523646   6.133   1.055   4.881  0.0291 -0.1058 -0.6254
  191DOPC  H15X23647   6.211   1.133   4.866 -1.8357  1.5397 -2.3592
  191DOPC  H15Y23648   6.174   0.972   4.821  1.8063  0.8022 -0.7392
  191DOPC  C31623649   6.117   1.036   5.030  0.2494  0.5178  0.2329
  191DOPC  H16X23650   6.095   1.133   5.079 -2.2566 -1.4687  3.4662
  191DOPC  H16Y23651   6.030   0.971   5.053 -0.1156  1.0395  0.3575
  191DOPC  C31723652   6.240   0.971   5.109  1.0041 -0.4265  0.3238
  191DOPC  H17X23653   6.326   1.033   5.077  0.3930  0.1768 -0.1833
  191DOPC  H17Y23654   6.219   0.990   5.216 -2.2866  2.7305 -0.6491
  191DOPC  C31823655   6.275   0.835   5.068 -0.4115 -0.3565  0.3534
  191DOPC  H18X23656   6.263   0.836   4.958  2.5406  0.7881 -0.0574
  191DOPC  H18Y23657   6.383   0.818   5.086  1.0622  3.5278 -3.2147
  191DOPC  H18Z23658   6.198   0.765   5.108 -3.6746  2.5482 -0.3928
  192DOPC     N23659   1.084   6.783   3.123 -0.2027 -0.6488 -0.3988
  192DOPC   C1223660   1.096   6.700   3.250 -1.1606  0.0270 -0.3068
  192DOPC  H12A23661   1.014   6.631   3.245 -1.9015  0.9339 -1.2166
  192DOPC  H12B23662   1.069   6.766   3.331 -0.0781 -1.4256  1.2907
  192DOPC   C1323663   0.938   6.830   3.112 -0.5722  0.3740 -0.3318
  192DOPC  H13A23664   0.878   6.794   3.195 -0.9702  0.9732 -0.3469
  192DOPC  H13B23665   0.937   6.938   3.112  0.8418  0.5660  3.5820
  192DOPC  H13C23666   0.899   6.795   3.018 -1.1167 -0.2714  0.1215
  192DOPC   C1423667   1.130   6.697   3.005  0.3165  0.1978 -0.1692
  192DOPC  H14A23668   1.057   6.619   2.989 -1.4489  1.4486  1.3852
  192DOPC  H14B23669   1.140   6.760   2.919 -2.2537  0.0720 -0.6305
  192DOPC  H14C23670   1.226   6.652   3.027  0.3016 -0.1072 -0.7026
  192DOPC   C1523671   1.168   6.906   3.123  0.7460 -0.2671 -0.2082
  192DOPC  H15A23672   1.149   6.973   3.040 -1.3521  0.8565  1.1134
  192DOPC  H15B23673   1.273   6.879   3.111  1.1935  2.3795 -4.5297
  192DOPC  H15C23674   1.161   6.968   3.210 -0.5250  0.7851 -1.0267
  192DOPC   C1123675   1.231   6.626   3.280 -0.0931 -0.0536 -0.4876
  192DOPC  H11A23676   1.313   6.699   3.263  0.0483  0.3950  1.7384
  192DOPC  H11B23677   1.227   6.590   3.385 -0.5849  1.1891 -0.0616
  192DOPC     P23678   1.201   6.378   3.205 -0.0280  0.0179 -0.0012
  192DOPC   O1323679   1.259   6.305   3.094 -0.4157 -0.2066 -0.2804
  192DOPC   O1423680   1.048   6.377   3.219 -0.5019  0.5517 -0.2999
  192DOPC   O1223681   1.261   6.521   3.193  0.0508 -0.1985  0.7930
  192DOPC   O1123682   1.259   6.322   3.335 -0.0026 -0.7904  0.3465
  192DOPC    C123683   1.180   6.243   3.428 -0.5515  0.1869 -0.4346
  192DOPC    HA23684   1.242   6.162   3.473 -0.8609  0.0852 -0.1864
  192DOPC    HB23685   1.102   6.187   3.373  0.7187  0.2834 -2.4350
  192DOPC    C223686   1.105   6.325   3.536  0.3470 -0.5362  0.0039
  192DOPC    HS23687   1.033   6.397   3.491 -3.2690 -3.9088 -0.1015
  192DOPC   O2123688   1.196   6.393   3.632  0.3144 -0.1259  0.0794
  192DOPC   C2123689   1.145   6.499   3.691  0.1442 -0.2309 -0.4790
  192DOPC   O2223690   1.039   6.555   3.659 -0.1151 -0.4917 -0.5100
  192DOPC   C2223691   1.236   6.547   3.802  0.0712 -0.1924 -0.1212
  192DOPC   H2R23692   1.272   6.648   3.775  1.8733 -0.7835 -0.0551
  192DOPC   H2S23693   1.327   6.485   3.817  1.1411  1.2970 -0.2190
  192DOPC    C323694   1.012   6.223   3.612 -0.5789 -0.1018  0.3809
  192DOPC    HX23695   1.090   6.163   3.664 -0.3930 -1.4893 -1.4079
  192DOPC    HY23696   0.957   6.157   3.543  0.4498  0.2129 -0.7917
  192DOPC   O3123697   0.927   6.280   3.711  0.0014  0.3881 -0.0902
  192DOPC   C3123698   0.806   6.309   3.679  0.2351  0.7141  0.3465
  192DOPC   O3223699   0.758   6.304   3.565  0.7209 -0.7174 -0.2000
  192DOPC   C3223700   0.732   6.337   3.808  1.2124  0.0352  0.5688
  192DOPC   H2X23701   0.765   6.258   3.879 -1.1008 -1.9777 -0.4421
  192DOPC   H2Y23702   0.748   6.445   3.829 -2.7768  1.0394 -0.6794
  192DOPC   C2323703   1.160   6.557   3.933 -0.0315  0.3749 -0.8258
  192DOPC   H3R23704   1.079   6.632   3.924 -1.2608 -0.2134  3.3248
  192DOPC   H3S23705   1.227   6.577   4.020 -1.3917 -1.3828  0.6889
  192DOPC   C2423706   1.077   6.429   3.955  0.4215 -0.4703 -0.4053
  192DOPC   H4R23707   1.138   6.343   3.922  0.8646 -0.0356 -0.7276
  192DOPC   H4S23708   0.979   6.429   3.903  0.4173 -3.2875 -0.5444
  192DOPC   C2523709   1.059   6.406   4.105 -0.3289  0.1746  0.0132
  192DOPC   H5R23710   1.157   6.409   4.156 -0.3378  0.9764  0.0023
  192DOPC   H5S23711   1.014   6.304   4.103 -0.5131  0.2403  0.7222
  192DOPC   C2623712   0.966   6.501   4.178  0.4115 -0.2949  0.6155
  192DOPC   H6R23713   1.018   6.599   4.173  0.8819 -0.5638  0.1002
  192DOPC   H6S23714   0.950   6.474   4.284 -0.4173 -1.0100  0.3223
  192DOPC   C2723715   0.817   6.522   4.123 -0.4031 -0.2539 -0.9290
  192DOPC   H7R23716   0.779   6.421   4.097  1.7961 -1.9078  1.6837
  192DOPC   H7S23717   0.825   6.579   4.028 -0.4935  0.9619 -0.2233
  192DOPC   C2823718   0.740   6.606   4.226  0.0971 -0.0343 -0.3860
  192DOPC   H8R23719   0.805   6.696   4.216  0.3160 -0.3743 -2.4751
  192DOPC   H8S23720   0.747   6.551   4.323  0.8494  0.8359  0.0708
  192DOPC   C2923721   0.603   6.629   4.174  0.6706 -0.0344  0.7553
  192DOPC   H9R23722   0.590   6.590   4.072  1.9141  1.9816 -0.2359
  192DOPC  C21023723   0.508   6.710   4.209  0.7433  0.6172 -0.2016
  192DOPC  H10R23724   0.419   6.721   4.145  0.5501 -1.4033 -0.3373
  192DOPC  C21123725   0.512   6.804   4.327 -0.0847 -0.5732  0.2970
  192DOPC  H11R23726   0.598   6.776   4.391  1.4100  1.7352 -0.5730
  192DOPC  H11S23727   0.425   6.798   4.396 -1.0301  0.0382 -0.8236
  192DOPC  C21223728   0.528   6.954   4.288 -0.0303 -0.6078  0.6823
  192DOPC  H12R23729   0.429   6.993   4.255 -0.4330 -3.2900 -1.6203
  192DOPC  H12S23730   0.595   6.966   4.200 -1.9437  2.4429 -0.5443
  192DOPC  C21323731   0.578   7.043   4.403 -0.5319  0.1179 -0.0324
  192DOPC  H13R23732   0.606   7.143   4.363 -0.6140  0.1529 -0.0016
  192DOPC  H13S23733   0.667   6.994   4.448 -0.4187  0.1733 -0.1937
  192DOPC  C21423734   0.478   7.092   4.511 -0.2749  0.1142  0.1926
  192DOPC  H14R23735   0.526   7.130   4.604 -0.0426  1.6242 -0.5216
  192DOPC  H14S23736   0.413   7.007   4.540  0.6148  0.4298  3.6314
  192DOPC  C21523737   0.388   7.193   4.449  0.3233 -0.6994  0.5646
  192DOPC  H15R23738   0.316   7.142   4.383 -1.2392 -0.0987  1.7434
  192DOPC  H15S23739   0.440   7.279   4.401  0.4562 -0.5100  1.0411
  192DOPC  C21623740   0.297   7.248   4.554 -0.0710  0.2218 -0.3182
  192DOPC  H16R23741   0.356   7.293   4.636  1.3374 -0.6377 -0.8295
  192DOPC  H16S23742   0.229   7.171   4.597  2.1256 -1.3326  0.5299
  192DOPC  C21723743   0.201   7.354   4.502  0.1181  0.1141 -0.1188
  192DOPC  H17R23744   0.154   7.320   4.407 -1.2234  0.5745  0.3573
  192DOPC  H17S23745   0.259   7.442   4.468  0.5033  0.1212  0.5311
  192DOPC  C21823746   0.100   7.401   4.601  0.5181  0.0371  0.3990
  192DOPC  H18R23747   0.041   7.485   4.558 -0.1237 -1.8500 -2.6815
  192DOPC  H18S23748   0.156   7.438   4.689  1.6761 -0.7675  0.0260
  192DOPC  H18T23749   0.021   7.324   4.615 -1.2739  1.3103 -2.0216
  192DOPC   C3323750   0.577   6.312   3.800 -0.7472 -0.1575 -0.0196
  192DOPC   H3X23751   0.535   6.385   3.728 -1.3762  0.2508  0.7352
  192DOPC   H3Y23752   0.529   6.329   3.899 -1.7344  2.8976 -0.9060
  192DOPC   C3423753   0.542   6.166   3.750  0.1573 -0.2510 -0.0992
  192DOPC   H4X23754   0.569   6.087   3.823 -1.2335  0.6296  1.4221
  192DOPC   H4Y23755   0.588   6.155   3.649 -1.4462  3.7261 -1.4753
  192DOPC   C3523756   0.390   6.169   3.736 -0.3302  0.4727 -0.2451
  192DOPC   H5X23757   0.363   6.228   3.645 -0.1505 -0.5454 -0.9789
  192DOPC   H5Y23758   0.347   6.202   3.833 -0.5178 -2.2716  0.6882
  192DOPC   C3623759   0.340   6.025   3.703 -0.3984 -0.1022 -0.0213
  192DOPC   H6X23760   0.394   5.991   3.612  0.7762  0.6091  0.3820
  192DOPC   H6Y23761   0.375   5.956   3.782  1.6880  1.3693  0.4349
  192DOPC   C3723762   0.185   6.014   3.696  0.6630  0.1842 -0.3196
  192DOPC   H7X23763   0.141   6.070   3.781  1.2693 -0.3580  0.3681
  192DOPC   H7Y23764   0.149   6.070   3.607 -0.0286  1.0936  0.5191
  192DOPC   C3823765   0.128   5.867   3.706  0.2921 -0.1353 -0.2003
  192DOPC   H8X23766   0.018   5.881   3.715  0.3671  0.2553  0.1501
  192DOPC   H8Y23767   0.154   5.815   3.801  0.9179 -0.0406 -0.3182
  192DOPC   C3923768   0.150   5.788   3.580  0.2880 -0.5199  0.0158
  192DOPC   H9X23769   0.140   5.836   3.481  1.4378  1.2108  0.6902
  192DOPC  C31023770   0.192   5.664   3.569 -0.7089  0.6961  0.7622
  192DOPC  H10X23771   0.206   5.620   3.470  1.3709 -0.7190  1.6182
  192DOPC  C31123772   0.228   5.581   3.684  0.1900  0.9080 -0.3912
  192DOPC  H11X23773   0.268   5.641   3.769  1.1111 -1.0810  0.6497
  192DOPC  H11Y23774   0.304   5.504   3.659 -0.9744  0.8248 -4.3560
  192DOPC  C31223775   0.102   5.506   3.737  0.6523  0.3113 -0.3112
  192DOPC  H12X23776   0.023   5.580   3.764  1.2421  1.0981 -0.6952
  192DOPC  H12Y23777   0.122   5.467   3.839 -4.3499  1.0639  1.2619
  192DOPC  C31323778   0.054   5.389   3.651  0.2069  1.0214  0.1228
  192DOPC  H13X23779   0.025   5.431   3.553 -1.9787 -2.4093 -0.8765
  192DOPC  H13Y23780   0.131   5.315   3.622 -0.9229 -0.0174 -0.3376
  192DOPC  C31423781  -0.063   5.305   3.708 -0.6038  0.4324 -0.1161
  192DOPC  H14X23782  -0.035   5.263   3.806 -1.5550 -0.1068 -0.0657
  192DOPC  H14Y23783  -0.162   5.356   3.716 -1.6276 -1.5163  0.3517
  192DOPC  C31523784  -0.080   5.180   3.619  0.4246 -0.3365 -0.5844
  192DOPC  H15X23785   0.015   5.125   3.601  2.6491  1.6725  3.5384
  192DOPC  H15Y23786  -0.108   5.225   3.522 -2.1976 -0.2529  0.1324
  192DOPC  C31623787  -0.205   5.092   3.660  0.0096  0.1364  0.3436
  192DOPC  H16X23788  -0.194   5.056   3.765 -0.7059  1.2010  0.7943
  192DOPC  H16Y23789  -0.296   5.155   3.667  0.0915  0.1303  1.8713
  192DOPC  C31723790  -0.251   4.975   3.571  0.1957  0.0009  0.0148
  192DOPC  H17X23791  -0.163   4.914   3.544  0.0667  0.0333 -0.4859
  192DOPC  H17Y23792  -0.317   4.916   3.638 -0.1985  1.2786  0.7926
  192DOPC  C31823793  -0.336   5.015   3.453  0.1019  0.0331 -0.4872
  192DOPC  H18X23794  -0.287   5.079   3.377 -2.2520  1.7597 -0.6472
  192DOPC  H18Y23795  -0.367   4.917   3.410 -2.5051 -0.7893  2.8513
  192DOPC  H18Z23796  -0.424   5.072   3.491  1.4320  1.1894  0.9528
  193DOPC     N23797   0.520   2.546   2.579 -0.1054 -0.6031 -0.4730
  193DOPC   C1223798   0.631   2.463   2.650 -0.0101  0.1731  0.1254
  193DOPC  H12A23799   0.727   2.505   2.625 -1.5713  3.1210 -1.3789
  193DOPC  H12B23800   0.639   2.365   2.606 -2.3238  1.0103 -2.4063
  193DOPC   C1323801   0.472   2.669   2.651 -0.7763  0.7207  0.0163
  193DOPC  H13A23802   0.558   2.725   2.686 -0.7972 -0.4800  2.1912
  193DOPC  H13B23803   0.427   2.738   2.581  0.3078 -1.0247 -2.5049
  193DOPC  H13C23804   0.413   2.646   2.739 -0.3734  0.7856  0.3100
  193DOPC   C1423805   0.397   2.461   2.565  0.2500 -0.1736  0.6244
  193DOPC  H14A23806   0.409   2.371   2.507  1.3054  1.1032 -1.2199
  193DOPC  H14B23807   0.356   2.440   2.663 -0.6261 -1.7629 -0.0394
  193DOPC  H14C23808   0.319   2.517   2.516  0.9627  2.6290  2.4683
  193DOPC   C1523809   0.571   2.585   2.442  0.3246  0.7576 -0.1876
  193DOPC  H15A23810   0.656   2.651   2.456  0.2191  0.6332  1.1782
  193DOPC  H15B23811   0.493   2.643   2.396 -0.3585 -0.6009 -0.7843
  193DOPC  H15C23812   0.608   2.505   2.381  1.6499  2.0242 -1.1210
  193DOPC   C1123813   0.619   2.452   2.808  0.0519 -0.2304  0.6189
  193DOPC  H11A23814   0.522   2.401   2.822 -0.9145  0.9601 -1.3097
  193DOPC  H11B23815   0.688   2.370   2.838  0.3315 -0.9252 -1.7092
  193DOPC     P23816   0.776   2.614   2.936  0.1646 -0.2706  0.0810
  193DOPC   O1323817   0.765   2.743   3.007  0.0863 -0.0133 -0.0086
  193DOPC   O1423818   0.877   2.603   2.824  0.1417 -0.6754  0.0168
  193DOPC   O1223819   0.636   2.572   2.876 -0.0630  0.3799 -0.3614
  193DOPC   O1123820   0.802   2.495   3.036 -0.0686  0.6655 -0.4554
  193DOPC    C123821   0.693   2.439   3.121 -0.3536 -1.0749 -0.2633
  193DOPC    HA23822   0.649   2.347   3.076  0.0350 -0.5049 -1.8770
  193DOPC    HB23823   0.608   2.510   3.116 -1.2334 -1.7547  2.8205
  193DOPC    C223824   0.732   2.424   3.268  0.1389 -0.5721  0.2307
  193DOPC    HS23825   0.803   2.339   3.280  1.2248  0.2743 -0.1302
  193DOPC   O2123826   0.612   2.399   3.343 -0.4271  0.0905 -0.3956
  193DOPC   C2123827   0.552   2.289   3.340  0.3734  0.6145  0.5072
  193DOPC   O2223828   0.586   2.189   3.278 -0.1233  0.4867  0.5467
  193DOPC   C2223829   0.439   2.298   3.444 -0.5568 -0.0838 -0.3842
  193DOPC   H2R23830   0.418   2.402   3.477 -1.7402 -0.2485 -0.5869
  193DOPC   H2S23831   0.482   2.249   3.534  0.1573  1.4849  0.1729
  193DOPC    C323832   0.801   2.561   3.317 -0.1494  0.0449 -0.8934
  193DOPC    HX23833   0.724   2.641   3.321  0.4257  0.5473  1.3784
  193DOPC    HY23834   0.884   2.580   3.246 -0.5853  0.3676 -1.3278
  193DOPC   O3123835   0.848   2.549   3.447  0.2185  0.6038 -0.1725
  193DOPC   C3123836   0.911   2.661   3.494 -0.2238 -0.1440 -0.3790
  193DOPC   O3223837   0.916   2.762   3.428  0.4018 -0.0503  0.0457
  193DOPC   C3223838   0.971   2.639   3.637 -0.0802 -0.2774 -0.1490
  193DOPC   H2X23839   0.887   2.605   3.701  1.3066 -0.8670  1.4029
  193DOPC   H2Y23840   1.042   2.554   3.636  0.3517  0.0593  1.0271
  193DOPC   C2323841   0.317   2.224   3.412 -0.0301  0.1206  0.4623
  193DOPC   H3R23842   0.320   2.114   3.395  0.4609  0.1065  0.6415
  193DOPC   H3S23843   0.271   2.249   3.314  1.1794  0.8123  0.0513
  193DOPC   C2423844   0.208   2.242   3.510  0.1456 -0.2786 -0.0275
  193DOPC   H4R23845   0.225   2.188   3.605 -0.5318 -0.9971 -0.3019
  193DOPC   H4S23846   0.121   2.183   3.473  0.4054 -0.3388 -0.5468
  193DOPC   C2523847   0.150   2.382   3.526  0.2902  1.0884  0.1118
  193DOPC   H5R23848   0.104   2.425   3.434  0.4532 -1.4886 -1.2541
  193DOPC   H5S23849   0.233   2.441   3.569  1.2124 -1.0200  1.3961
  193DOPC   C2623850   0.038   2.395   3.636 -0.2465  0.4163  0.0239
  193DOPC   H6R23851   0.061   2.342   3.730 -0.5745  0.9180  0.3940
  193DOPC   H6S23852  -0.045   2.338   3.589  1.4139  0.2363 -2.9668
  193DOPC   C2723853  -0.021   2.536   3.652  0.4147 -0.8860  0.2155
  193DOPC   H7R23854  -0.095   2.552   3.571  1.2666  0.5833 -0.3099
  193DOPC   H7S23855   0.069   2.600   3.647  0.6958 -1.2816  0.1831
  193DOPC   C2823856  -0.090   2.554   3.786 -0.4419 -0.1503  0.6012
  193DOPC   H8R23857  -0.029   2.557   3.879 -2.2855  0.7534  1.8518
  193DOPC   H8S23858  -0.144   2.459   3.810 -0.3621 -0.9726 -2.1136
  193DOPC   C2923859  -0.199   2.657   3.805 -0.7642 -0.2325  0.3826
  193DOPC   H9R23860  -0.240   2.689   3.708  0.0644  0.7191  0.3280
  193DOPC  C21023861  -0.238   2.721   3.917  0.7760  0.1790 -0.1507
  193DOPC  H10R23862  -0.327   2.786   3.917  0.7354  0.1263 -0.3634
  193DOPC  C21123863  -0.181   2.715   4.055  0.3028  0.0338 -0.4437
  193DOPC  H11R23864  -0.072   2.734   4.042  0.3542 -0.9470 -1.5672
  193DOPC  H11S23865  -0.200   2.618   4.105 -0.6485  1.1652  1.5128
  193DOPC  C21223866  -0.246   2.829   4.142  0.3009  0.3635  0.5075
  193DOPC  H12R23867  -0.225   2.924   4.090 -1.4466  1.2743  1.3841
  193DOPC  H12S23868  -0.192   2.848   4.237  0.0979 -0.3775  0.7777
  193DOPC  C21323869  -0.396   2.821   4.170  0.0679 -0.2071  0.8176
  193DOPC  H13R23870  -0.396   2.713   4.200  2.0382 -0.3767  0.3798
  193DOPC  H13S23871  -0.444   2.848   4.074  0.6582 -0.5129  0.4282
  193DOPC  C21423872  -0.440   2.900   4.294 -0.1323 -0.2446  0.5032
  193DOPC  H14R23873  -0.383   2.882   4.388 -0.2437 -1.2796  0.3855
  193DOPC  H14S23874  -0.547   2.873   4.311 -0.9618  0.9745 -2.1944
  193DOPC  C21523875  -0.418   3.052   4.282  0.0661 -0.4817  0.2567
  193DOPC  H15R23876  -0.458   3.100   4.190 -0.0465 -1.1198 -0.0347
  193DOPC  H15S23877  -0.308   3.056   4.271  0.2058 -0.5801  1.5554
  193DOPC  C21623878  -0.461   3.133   4.399 -0.0273  0.5579 -0.1469
  193DOPC  H16R23879  -0.418   3.083   4.488 -1.0216  0.1039  0.0901
  193DOPC  H16S23880  -0.571   3.124   4.418  0.3286 -3.7456  0.8159
  193DOPC  C21723881  -0.421   3.277   4.383  0.7383 -0.0220  0.0581
  193DOPC  H17R23882  -0.487   3.334   4.314 -0.1498 -0.8574  0.1843
  193DOPC  H17S23883  -0.317   3.288   4.347  1.3608  1.4517  2.1001
  193DOPC  C21823884  -0.422   3.338   4.522  0.0184 -0.9798 -0.3407
  193DOPC  H18R23885  -0.368   3.273   4.594  1.0202  0.2180  0.0259
  193DOPC  H18S23886  -0.523   3.372   4.555 -0.0348  2.1763 -3.1912
  193DOPC  H18T23887  -0.350   3.422   4.521  1.1094 -1.8669  0.6397
  193DOPC   C3323888   1.026   2.765   3.706 -0.2646  0.4285 -0.3965
  193DOPC   H3X23889   1.093   2.820   3.637  0.6987 -0.8498 -0.5363
  193DOPC   H3Y23890   1.086   2.737   3.796 -0.2796 -0.1576 -0.5648
  193DOPC   C3423891   0.907   2.843   3.749 -0.3584  0.2015 -0.2713
  193DOPC   H4X23892   0.849   2.776   3.817 -0.6314 -0.5479 -1.2193
  193DOPC   H4Y23893   0.846   2.876   3.663  0.3725  0.4673 -0.6868
  193DOPC   C3523894   0.935   2.962   3.844  1.3728 -0.3719  0.0545
  193DOPC   H5X23895   1.016   3.019   3.794  0.6635  1.6506  1.1012
  193DOPC   H5Y23896   0.978   2.927   3.940  0.4750 -0.8468  0.2971
  193DOPC   C3623897   0.805   3.051   3.869  0.7746  0.9306 -0.2154
  193DOPC   H6X23898   0.791   3.117   3.781 -0.3599  1.0657  0.0451
  193DOPC   H6Y23899   0.711   2.993   3.878  0.3765  1.4834 -0.6943
  193DOPC   C3723900   0.842   3.148   3.987  0.1099  0.2086 -0.4735
  193DOPC   H7X23901   0.849   3.092   4.083  2.8105  2.1171  0.5661
  193DOPC   H7Y23902   0.944   3.188   3.968  0.8777 -0.8045  1.2365
  193DOPC   C3823903   0.732   3.257   4.008 -0.5433 -0.6634 -0.3691
  193DOPC   H8X23904   0.634   3.213   4.037  0.6107 -0.8644  3.9763
  193DOPC   H8Y23905   0.733   3.320   3.917  2.4718  0.2111  0.1667
  193DOPC   C3923906   0.771   3.348   4.122  0.7689 -0.5653 -0.0170
  193DOPC   H9X23907   0.810   3.441   4.079  2.5490 -1.1853  0.1530
  193DOPC  C31023908   0.746   3.335   4.254  0.4236 -0.2739 -0.2426
  193DOPC  H10X23909   0.762   3.416   4.326 -0.6111 -0.4466  0.2026
  193DOPC  C31123910   0.674   3.225   4.326  0.2641 -0.1580 -0.9352
  193DOPC  H11X23911   0.713   3.227   4.430 -0.7703  0.5492 -0.5352
  193DOPC  H11Y23912   0.690   3.126   4.280  0.5326  0.0784 -1.3576
  193DOPC  C31223913   0.525   3.254   4.344  0.0270  0.3755  0.0795
  193DOPC  H12X23914   0.469   3.161   4.367  3.5926 -2.0573 -0.3754
  193DOPC  H12Y23915   0.486   3.295   4.248  0.3886  1.8687  0.5457
  193DOPC  C31323916   0.485   3.363   4.442  0.1271 -0.0396  0.0734
  193DOPC  H13X23917   0.524   3.334   4.541 -3.4894 -0.6599  1.4940
  193DOPC  H13Y23918   0.530   3.457   4.405  2.7158 -1.7893 -1.5605
  193DOPC  C31423919   0.327   3.379   4.456 -0.2210  0.0287  0.4894
  193DOPC  H14X23920   0.268   3.441   4.385 -2.0291 -1.6705  0.4432
  193DOPC  H14Y23921   0.285   3.277   4.464 -0.8243  0.2612  0.2937
  193DOPC  C31523922   0.288   3.441   4.592 -0.1815 -0.9232  0.9406
  193DOPC  H15X23923   0.351   3.385   4.664  3.5271 -0.7182 -1.8982
  193DOPC  H15Y23924   0.177   3.427   4.593 -0.4702  0.0756 -3.0274
  193DOPC  C31623925   0.317   3.591   4.601 -0.3227 -0.2366 -0.0238
  193DOPC  H16X23926   0.425   3.614   4.590  0.2856 -2.0153  1.6297
  193DOPC  H16Y23927   0.256   3.633   4.519  0.5308 -1.3640 -1.2818
  193DOPC  C31723928   0.269   3.655   4.724 -0.1871  0.4261 -0.8611
  193DOPC  H17X23929   0.158   3.647   4.724 -0.1852  0.4016 -1.2523
  193DOPC  H17Y23930   0.305   3.602   4.815 -0.2291 -1.2111 -1.7644
  193DOPC  C31823931   0.300   3.797   4.740  0.1021 -0.0471  0.0274
  193DOPC  H18X23932   0.265   3.830   4.840  1.3533  0.5429  0.2876
  193DOPC  H18Y23933   0.410   3.802   4.752  0.3392 -2.1350 -0.8059
  193DOPC  H18Z23934   0.256   3.852   4.654 -1.5612 -3.6262 -1.6221
  194DOPC     N23935   2.566   0.498   2.970 -0.0415 -0.0257 -0.1120
  194DOPC   C1223936   2.654   0.535   3.085  0.1439 -1.1167  0.2440
  194DOPC  H12A23937   2.720   0.616   3.056  0.3992 -0.2894  2.8261
  194DOPC  H12B23938   2.714   0.449   3.109 -0.2999 -1.6580 -0.5406
  194DOPC   C1323939   2.480   0.616   2.943  0.3271  0.1948 -0.1762
  194DOPC  H13A23940   2.543   0.700   2.917  3.2298 -1.8727 -0.4037
  194DOPC  H13B23941   2.410   0.602   2.862 -0.2764  0.2512  0.3351
  194DOPC  H13C23942   2.410   0.638   3.021 -1.9672 -0.3595 -1.9767
  194DOPC   C1423943   2.482   0.383   3.023  0.1617 -0.3980  0.2725
  194DOPC  H14A23944   2.413   0.353   2.946  1.8184  1.5126 -2.1091
  194DOPC  H14B23945   2.540   0.296   3.047 -0.1008 -0.2184  1.6452
  194DOPC  H14C23946   2.414   0.410   3.103  1.0742 -1.1015  1.3219
  194DOPC   C1523947   2.635   0.454   2.838 -0.6049  0.0666 -0.3840
  194DOPC  H15A23948   2.711   0.527   2.816  1.1606 -2.0241 -1.5644
  194DOPC  H15B23949   2.564   0.462   2.757  0.6204 -0.7904 -1.5750
  194DOPC  H15C23950   2.686   0.359   2.837  0.6461  0.7292 -0.6115
  194DOPC   C1123951   2.577   0.574   3.221 -0.7738  0.1361  0.1414
  194DOPC  H11A23952   2.511   0.488   3.245 -0.4227 -0.0515  0.4343
  194DOPC  H11B23953   2.660   0.577   3.294 -1.2002  1.3821  0.6006
  194DOPC     P23954   2.574   0.831   3.234 -0.3444  0.3062  0.0472
  194DOPC   O1323955   2.474   0.934   3.230  0.5365  0.1309 -0.4591
  194DOPC   O1423956   2.689   0.839   3.136  0.1073  0.0269 -0.4733
  194DOPC   O1223957   2.508   0.695   3.218  1.2901  0.9353  0.4104
  194DOPC   O1123958   2.639   0.825   3.378  0.7428  0.5199  0.3308
  194DOPC    C123959   2.715   0.942   3.419  0.1232 -0.6924  0.2896
  194DOPC    HA23960   2.642   1.017   3.457 -0.3078 -1.5845  1.2542
  194DOPC    HB23961   2.778   0.989   3.339 -2.2075  2.3291  0.0450
  194DOPC    C223962   2.818   0.924   3.531  0.2269 -0.1898 -0.6320
  194DOPC    HS23963   2.896   0.862   3.481  0.5475 -0.1708 -0.1599
  194DOPC   O2123964   2.754   0.855   3.648  0.5623 -0.2274 -0.4362
  194DOPC   C2123965   2.836   0.764   3.706  0.4943  0.2111 -0.2209
  194DOPC   O2223966   2.952   0.749   3.668  0.4428  0.1447 -0.1204
  194DOPC   C2223967   2.757   0.694   3.817 -0.2823 -0.2548  0.6569
  194DOPC   H2R23968   2.649   0.695   3.793  0.1586 -1.8697 -1.8715
  194DOPC   H2S23969   2.771   0.767   3.899  0.8715  0.3864 -0.0761
  194DOPC    C323970   2.878   1.062   3.579 -0.1951 -0.3789 -0.1651
  194DOPC    HX23971   2.789   1.123   3.607 -0.0978 -0.3551  0.0954
  194DOPC    HY23972   2.935   1.096   3.490 -1.3635 -0.0734 -0.8309
  194DOPC   O3123973   2.963   1.037   3.685 -0.2846  0.2948  0.0937
  194DOPC   C3123974   2.967   1.117   3.794 -0.2611 -0.1548  0.5097
  194DOPC   O3223975   2.912   1.223   3.808  0.3234  0.3930  0.4146
  194DOPC   C3223976   3.059   1.059   3.898 -0.4079 -0.3200 -0.0996
  194DOPC   H2X23977   3.147   1.014   3.848  0.5915  0.0381  1.2831
  194DOPC   H2Y23978   3.093   1.144   3.960  0.4507 -0.3468 -0.5289
  194DOPC   C2323979   2.794   0.553   3.855  0.0869 -0.9166  0.1696
  194DOPC   H3R23980   2.885   0.527   3.796  0.9060  1.7451  0.1235
  194DOPC   H3S23981   2.720   0.476   3.824  1.2506 -1.6966 -0.8083
  194DOPC   C2423982   2.829   0.520   4.002 -0.2593 -0.5104 -0.1155
  194DOPC   H4R23983   2.743   0.561   4.059 -0.6242  1.0239 -1.6744
  194DOPC   H4S23984   2.921   0.575   4.029 -1.5510  1.0389  1.3740
  194DOPC   C2523985   2.856   0.370   4.024 -0.6020 -0.2502 -1.0160
  194DOPC   H5R23986   2.935   0.346   3.950 -0.4210  1.1325 -1.2815
  194DOPC   H5S23987   2.759   0.322   3.997 -1.1579 -0.9714  1.8845
  194DOPC   C2623988   2.900   0.334   4.170  0.4078  0.2807 -0.0137
  194DOPC   H6R23989   2.828   0.350   4.253  1.7208 -1.1016  1.4761
  194DOPC   H6S23990   2.995   0.386   4.195  0.7555  0.1327 -0.9649
  194DOPC   C2723991   2.947   0.189   4.168  0.1917 -0.3218 -0.6743
  194DOPC   H7R23992   3.005   0.167   4.075  0.8120  2.1010 -0.9221
  194DOPC   H7S23993   2.861   0.121   4.156 -2.5350  2.8460 -0.4669
  194DOPC   C2823994   3.013   0.137   4.301 -0.0966  0.2937  0.0089
  194DOPC   H8R23995   2.934   0.104   4.373  0.3991 -0.5195  0.1904
  194DOPC   H8S23996   3.071   0.219   4.349 -0.3365 -0.6122  1.9337
  194DOPC   C2923997   3.099   0.017   4.281 -0.2014  0.1614  0.4567
  194DOPC   H9R23998   3.127  -0.003   4.176  0.1909  1.6191  0.2684
  194DOPC  C21023999   3.140  -0.074   4.377 -0.0243 -0.8203  0.0140
  194DOPC  H10R24000   3.206  -0.158   4.351  3.4649  0.9790  2.3194
  194DOPC  C21124001   3.092  -0.054   4.521 -0.4091 -0.4834 -0.2224
  194DOPC  H11R24002   3.055   0.048   4.543  0.7555  0.4490 -2.3609
  194DOPC  H11S24003   3.181  -0.069   4.587  2.1613 -0.3708 -3.4076
  194DOPC  C21224004   2.976  -0.149   4.569 -0.7379 -0.6572  0.7372
  194DOPC  H12R24005   2.911  -0.160   4.479  2.0204  0.4111 -1.5297
  194DOPC  H12S24006   2.907  -0.102   4.642  0.0670  1.6293  0.0955
  194DOPC  C21324007   3.019  -0.293   4.606  0.4381 -0.7010  0.0724
  194DOPC  H13R24008   3.104  -0.339   4.552  1.1411  0.2622  0.3172
  194DOPC  H13S24009   2.927  -0.351   4.587 -1.6957  1.7410  2.0806
  194DOPC  C21424010   3.059  -0.294   4.753  0.5188 -0.7594 -0.0092
  194DOPC  H14R24011   2.984  -0.254   4.825  1.5410  0.0201  0.6526
  194DOPC  H14S24012   3.150  -0.231   4.766 -1.2554  1.3919  3.4200
  194DOPC  C21524013   3.094  -0.435   4.802  0.3224  0.1257 -1.0494
  194DOPC  H15R24014   3.133  -0.502   4.722  0.0664 -1.2313 -0.0741
  194DOPC  H15S24015   2.999  -0.484   4.834  1.1860  0.2422  2.0134
  194DOPC  C21624016   3.188  -0.444   4.929 -0.6029  0.0876  0.3537
  194DOPC  H16R24017   3.207  -0.548   4.964  1.6181  0.8971  1.7581
  194DOPC  H16S24018   3.137  -0.400   5.018 -2.0774 -1.6015  0.4127
  194DOPC  C21724019   3.327  -0.381   4.904 -0.4437  0.5320 -0.6538
  194DOPC  H17R24020   3.396  -0.389   4.990 -1.4804  1.7427  0.3250
  194DOPC  H17S24021   3.318  -0.270   4.896  0.5549  0.6617 -0.1308
  194DOPC  C21824022   3.400  -0.439   4.778  0.5590 -0.0621 -1.0760
  194DOPC  H18R24023   3.344  -0.444   4.682 -0.2260 -0.4512 -0.6024
  194DOPC  H18S24024   3.439  -0.540   4.802  1.2266  0.4238 -0.0812
  194DOPC  H18T24025   3.490  -0.378   4.756  1.6242 -1.5249 -0.8864
  194DOPC   C3324026   2.993   0.950   3.980  0.1752  0.2473 -0.5086
  194DOPC   H3X24027   3.078   0.909   4.038  0.7078  0.7736 -0.8976
  194DOPC   H3Y24028   2.943   0.866   3.928  0.0208 -1.1542  1.7871
  194DOPC   C3424029   2.880   1.005   4.081 -0.7082  0.1494  0.6614
  194DOPC   H4X24030   2.781   1.016   4.032 -0.5020 -0.2714  0.1443
  194DOPC   H4Y24031   2.923   1.106   4.101 -1.0129  0.3987  0.0669
  194DOPC   C3524032   2.864   0.930   4.220 -0.1079 -0.2968 -0.0249
  194DOPC   H5X24033   2.786   0.986   4.277  0.5293 -0.1904  0.7572
  194DOPC   H5Y24034   2.959   0.946   4.274 -0.4972 -0.3176  0.6881
  194DOPC   C3624035   2.825   0.781   4.216  0.2906 -0.4592  0.2542
  194DOPC   H6X24036   2.759   0.773   4.127 -1.9345  0.5292  1.7411
  194DOPC   H6Y24037   2.917   0.722   4.193 -0.4358 -0.5359 -2.8607
  194DOPC   C3724038   2.772   0.728   4.351  0.6485  0.7503 -0.1936
  194DOPC   H7X24039   2.834   0.785   4.423  0.3926  0.5897  0.1554
  194DOPC   H7Y24040   2.669   0.762   4.374  1.2717  1.3741  1.8598
  194DOPC   C3824041   2.769   0.578   4.364 -0.4259  1.0598 -0.5680
  194DOPC   H8X24042   2.878   0.554   4.360 -0.5051  0.8836 -1.9792
  194DOPC   H8Y24043   2.717   0.547   4.271 -1.8206 -1.0857  0.8399
  194DOPC   C3924044   2.709   0.525   4.489  0.1920  0.6067  0.0756
  194DOPC   H9X24045   2.631   0.588   4.536  0.4563  0.6321  0.4874
  194DOPC  C31024046   2.755   0.423   4.565  0.5986  0.2804 -0.4858
  194DOPC  H10X24047   2.709   0.401   4.663 -1.9590 -0.2644 -1.7410
  194DOPC  C31124048   2.877   0.340   4.520  0.3906 -0.3225  0.0821
  194DOPC  H11X24049   2.940   0.380   4.439 -0.9024 -1.0181 -1.3273
  194DOPC  H11Y24050   2.841   0.241   4.482  0.0204 -0.3426  0.4727
  194DOPC  C31224051   2.977   0.318   4.637  0.4137  0.1733  0.0229
  194DOPC  H12X24052   3.003   0.420   4.671 -0.7210  0.8394 -1.0291
  194DOPC  H12Y24053   3.057   0.271   4.576 -0.9864 -1.6473 -0.5091
  194DOPC  C31324054   2.929   0.228   4.747 -0.2065  0.8865  0.0600
  194DOPC  H13X24055   2.859   0.282   4.814 -1.8310 -0.0284 -0.8229
  194DOPC  H13Y24056   2.870   0.144   4.703 -0.1276 -1.0048  3.2551
  194DOPC  C31424057   3.041   0.169   4.833 -0.0986  0.8062 -0.1694
  194DOPC  H14X24058   3.132   0.147   4.775 -0.6056  0.6334 -0.9068
  194DOPC  H14Y24059   3.075   0.249   4.903  1.7994  0.6165 -0.8298
  194DOPC  C31524060   3.010   0.040   4.904 -0.0159  0.8537 -0.1691
  194DOPC  H15X24061   3.095  -0.007   4.957 -1.1340  1.3155  2.1747
  194DOPC  H15Y24062   2.985  -0.043   4.834 -0.7825  1.8101 -1.0682
  194DOPC  C31624063   2.893   0.046   5.010  0.1053  0.1283  0.4291
  194DOPC  H16X24064   2.917   0.129   5.080 -1.8315 -0.6149  2.0814
  194DOPC  H16Y24065   2.798   0.068   4.956  0.9509  0.4860 -0.9700
  194DOPC  C31724066   2.896  -0.085   5.093 -0.3913  0.1783 -0.2327
  194DOPC  H17X24067   2.794  -0.100   5.136  0.6911 -0.0471  2.4165
  194DOPC  H17Y24068   2.913  -0.163   5.016  0.8630  1.0430 -0.8648
  194DOPC  C31824069   2.993  -0.091   5.209 -0.4718 -0.5302  0.5324
  194DOPC  H18X24070   2.976   0.007   5.259  1.5226 -0.5351  1.3188
  194DOPC  H18Y24071   2.965  -0.172   5.280  1.9810 -1.2335  0.7723
  194DOPC  H18Z24072   3.098  -0.094   5.172 -0.5282  1.8162 -0.0011
  195DOPC     N24073   5.474   7.360   2.544  0.3733  0.1012 -0.4410
  195DOPC   C1224074   5.370   7.259   2.497  0.2548  0.0032 -0.8606
  195DOPC  H12A24075   5.402   7.166   2.542 -2.0466  0.6825  2.5989
  195DOPC  H12B24076   5.370   7.246   2.390  1.2013 -0.8390 -0.7791
  195DOPC   C1324077   5.477   7.384   2.691  0.4203  0.8234  0.4852
  195DOPC  H13A24078   5.523   7.300   2.742  0.1095 -0.6406 -1.5531
  195DOPC  H13B24079   5.537   7.471   2.712 -0.8235  1.3351  2.1432
  195DOPC  H13C24080   5.375   7.396   2.726  0.0228 -1.2998  0.1797
  195DOPC   C1424081   5.452   7.489   2.467 -0.3814  0.2905  0.2330
  195DOPC  H14A24082   5.537   7.556   2.476 -1.2868  1.6446 -0.9543
  195DOPC  H14B24083   5.430   7.469   2.363 -0.4285 -1.3565  0.5238
  195DOPC  H14C24084   5.371   7.542   2.515 -0.2625 -0.0012  0.7706
  195DOPC   C1524085   5.614   7.294   2.513  0.1739 -0.0453 -0.2465
  195DOPC  H15A24086   5.619   7.268   2.409  2.2573 -0.5835 -0.0713
  195DOPC  H15B24087   5.625   7.205   2.574  2.9182  1.1049  1.1698
  195DOPC  H15C24088   5.685   7.373   2.532  2.6645 -1.7927 -1.7114
  195DOPC   C1124089   5.224   7.278   2.550  0.0384 -0.1078  0.6004
  195DOPC  H11A24090   5.186   7.379   2.524  0.0652 -0.4698 -0.9789
  195DOPC  H11B24091   5.163   7.216   2.482 -0.6901 -0.7670  1.8323
  195DOPC     P24092   5.078   7.221   2.739  0.3578  0.0070 -0.2554
  195DOPC   O1324093   5.048   7.078   2.748  0.0645  0.3934  0.3684
  195DOPC   O1424094   4.985   7.305   2.663 -0.4386 -0.2170 -0.1067
  195DOPC   O1224095   5.214   7.243   2.688 -0.1639  0.9414  0.1179
  195DOPC   O1124096   5.082   7.268   2.888  0.0795  0.0471 -0.6442
  195DOPC    C124097   5.207   7.275   2.959  0.3663 -0.7726  0.2565
  195DOPC    HA24098   5.265   7.360   2.919  0.0948 -1.1108 -0.9036
  195DOPC    HB24099   5.268   7.191   2.919  0.3401 -0.9843  0.6618
  195DOPC    C224100   5.180   7.272   3.112  0.6311 -0.4645 -0.2026
  195DOPC    HS24101   5.109   7.352   3.141  1.4679 -0.3292  1.5990
  195DOPC   O2124102   5.309   7.269   3.184  0.3106 -0.1712 -0.3370
  195DOPC   C2124103   5.354   7.392   3.203 -0.6766 -0.6556  0.1206
  195DOPC   O2224104   5.314   7.493   3.153 -0.0049  0.4088  0.6069
  195DOPC   C2224105   5.479   7.379   3.284  0.5685  0.4330  0.2083
  195DOPC   H2R24106   5.558   7.451   3.253 -0.6785  1.1528 -1.4446
  195DOPC   H2S24107   5.520   7.278   3.259 -2.9163 -1.0506 -0.0584
  195DOPC    C324108   5.093   7.138   3.139  0.0944 -0.5268 -0.1884
  195DOPC    HX24109   5.147   7.050   3.100  0.6052  0.0571 -0.8253
  195DOPC    HY24110   4.994   7.152   3.091  0.1225  0.7730  0.0709
  195DOPC   O3124111   5.069   7.114   3.281  0.1807  0.5155 -0.4444
  195DOPC   C3124112   4.990   7.199   3.348  0.0160  0.6745 -0.2578
  195DOPC   O3224113   4.938   7.300   3.301 -0.1238  1.0342  0.2945
  195DOPC   C3224114   4.978   7.156   3.497  0.7248  0.1269  0.4934
  195DOPC   H2X24115   4.892   7.086   3.490 -0.7847  1.8756  0.8605
  195DOPC   H2Y24116   5.074   7.110   3.527  1.0293 -0.2724 -0.9871
  195DOPC   C2324117   5.454   7.395   3.430  0.0491  0.7523 -0.2663
  195DOPC   H3R24118   5.370   7.333   3.470  0.8360  0.5143  1.0890
  195DOPC   H3S24119   5.429   7.502   3.447  1.2827  1.1882 -1.1053
  195DOPC   C2424120   5.583   7.368   3.518 -0.3716 -0.1076  0.1932
  195DOPC   H4R24121   5.675   7.398   3.463  0.3084  0.4039  1.5680
  195DOPC   H4S24122   5.611   7.262   3.536  0.5062  0.0450 -0.1853
  195DOPC   C2524123   5.583   7.445   3.656 -0.2405 -0.1078  0.8670
  195DOPC   H5R24124   5.545   7.550   3.651  1.6208  0.6640  1.7950
  195DOPC   H5S24125   5.691   7.453   3.681  0.3212  1.0833 -1.5480
  195DOPC   C2624126   5.518   7.361   3.766  0.7658  0.0481  0.4404
  195DOPC   H6R24127   5.558   7.258   3.777  2.4819  0.6031 -0.1890
  195DOPC   H6S24128   5.413   7.359   3.730  0.7206  2.2340  0.3427
  195DOPC   C2724129   5.534   7.419   3.903 -0.3444 -0.2310 -0.5028
  195DOPC   H7R24130   5.528   7.530   3.908 -1.3675 -0.3249  1.5722
  195DOPC   H7S24131   5.632   7.385   3.942  0.2963  1.8066 -0.2310
  195DOPC   C2824132   5.437   7.356   4.009  0.5919  0.3046 -0.2448
  195DOPC   H8R24133   5.460   7.249   4.026 -0.4686  0.1020 -0.0500
  195DOPC   H8S24134   5.333   7.360   3.970  1.0037  1.1992 -1.3090
  195DOPC   C2924135   5.427   7.436   4.138  0.3703 -0.8463 -0.8357
  195DOPC   H9R24136   5.372   7.531   4.134 -2.0248 -2.1774 -1.5004
  195DOPC  C21024137   5.478   7.401   4.259 -0.0977  0.0969 -0.6411
  195DOPC  H10R24138   5.461   7.467   4.345  1.0568 -2.1145  1.3710
  195DOPC  C21124139   5.547   7.266   4.290 -0.4420 -0.5135 -0.3403
  195DOPC  H11R24140   5.557   7.204   4.199 -1.6756 -1.1625 -0.0581
  195DOPC  H11S24141   5.479   7.220   4.365  0.4248 -0.1422  0.6963
  195DOPC  C21224142   5.698   7.297   4.336  0.0624  0.0560  0.4302
  195DOPC  H12R24143   5.705   7.368   4.421  0.3277  0.1480  0.3354
  195DOPC  H12S24144   5.738   7.348   4.246  0.1296  0.3754  0.6385
  195DOPC  C21324145   5.778   7.183   4.389 -0.3689  0.6947  0.4266
  195DOPC  H13R24146   5.785   7.098   4.318 -0.7224 -0.2256  1.4525
  195DOPC  H13S24147   5.717   7.141   4.472 -0.3409  0.5104  0.3547
  195DOPC  C21424148   5.921   7.218   4.434  0.0229  0.6174 -0.1592
  195DOPC  H14R24149   5.926   7.289   4.519 -0.4529 -0.2398  0.6085
  195DOPC  H14S24150   5.970   7.271   4.349  1.1308 -0.9042 -0.5113
  195DOPC  C21524151   6.011   7.092   4.458 -0.5697  0.2105 -0.0486
  195DOPC  H15R24152   6.014   7.029   4.367 -1.7370 -0.2338  0.1972
  195DOPC  H15S24153   5.963   7.035   4.541  2.7443  0.2687  2.0806
  195DOPC  C21624154   6.157   7.116   4.485  0.2579  0.2758 -0.0455
  195DOPC  H16R24155   6.182   7.161   4.583  0.5349  0.1890 -0.0726
  195DOPC  H16S24156   6.192   7.181   4.402  2.4577  1.3651  1.6332
  195DOPC  C21724157   6.236   6.979   4.478 -0.0609 -0.6403 -0.7029
  195DOPC  H17R24158   6.345   7.002   4.477 -0.2314  0.2309 -1.1900
  195DOPC  H17S24159   6.205   6.930   4.383 -0.8911  1.1458 -1.4040
  195DOPC  C21824160   6.199   6.884   4.592 -0.6188  0.3365 -0.0217
  195DOPC  H18R24161   6.223   6.925   4.692 -0.6640  0.4727 -0.0667
  195DOPC  H18S24162   6.238   6.780   4.582 -1.9654 -0.2187  0.3078
  195DOPC  H18T24163   6.089   6.872   4.600 -0.8603 -0.2011 -3.0213
  195DOPC   C3324164   4.942   7.273   3.594 -0.0699  0.1504  0.3477
  195DOPC   H3X24165   4.910   7.221   3.687  1.8359  0.9725  1.5084
  195DOPC   H3Y24166   4.850   7.320   3.553  0.0736  1.4023  1.3798
  195DOPC   C3424167   5.049   7.379   3.608  0.5678 -0.9196 -1.0760
  195DOPC   H4X24168   5.063   7.418   3.505  0.2123  1.7966 -0.1834
  195DOPC   H4Y24169   5.140   7.324   3.640  2.9130  2.4689 -1.3846
  195DOPC   C3524170   4.998   7.499   3.700  0.1969  0.3642  0.2666
  195DOPC   H5X24171   4.919   7.559   3.651 -1.0918 -0.7577  0.9137
  195DOPC   H5Y24172   5.097   7.549   3.708  1.0428 -1.3064  1.0311
  195DOPC   C3624173   4.941   7.458   3.832 -0.6482  0.0082  0.3235
  195DOPC   H6X24174   4.916   7.553   3.885 -1.8101  0.6432 -1.2821
  195DOPC   H6Y24175   4.845   7.405   3.816 -0.8162  1.1742 -3.7595
  195DOPC   C3724176   5.038   7.389   3.928  0.0381 -0.1041 -0.1074
  195DOPC   H7X24177   5.072   7.294   3.882 -1.7266 -0.1235 -1.4938
  195DOPC   H7Y24178   5.128   7.452   3.947  0.0379 -0.8455  2.7498
  195DOPC   C3824179   4.978   7.368   4.067 -0.4099  0.6432 -0.1063
  195DOPC   H8X24180   5.043   7.293   4.116 -0.5988  0.9522  0.6356
  195DOPC   H8Y24181   4.877   7.324   4.051 -0.5478  1.0855 -0.4746
  195DOPC   C3924182   4.970   7.494   4.154 -0.5179 -0.1252  0.0612
  195DOPC   H9X24183   4.936   7.587   4.105 -0.6184 -0.4836 -0.5666
  195DOPC  C31024184   5.009   7.508   4.283  0.3113 -0.1092  0.5886
  195DOPC  H10X24185   5.012   7.605   4.335  0.9901 -0.0992  0.5357
  195DOPC  C31124186   5.064   7.394   4.366  0.8979  1.2041 -0.4798
  195DOPC  H11X24187   5.115   7.315   4.307  1.4077  0.2174  1.2228
  195DOPC  H11Y24188   4.984   7.337   4.418  2.3422 -1.0094 -0.5844
  195DOPC  C31224189   5.165   7.430   4.476 -0.2272 -1.0210  0.2250
  195DOPC  H12X24190   5.110   7.485   4.555 -0.3097 -0.6036 -0.1204
  195DOPC  H12Y24191   5.250   7.493   4.441 -0.4405 -0.4610  0.7016
  195DOPC  C31324192   5.216   7.312   4.553  0.0676  1.1146  0.3279
  195DOPC  H13X24193   5.126   7.270   4.602 -0.5494 -0.2998 -1.8965
  195DOPC  H13Y24194   5.245   7.237   4.476  1.6656  1.3988  0.6113
  195DOPC  C31424195   5.335   7.332   4.648  0.1601  0.8660 -0.0092
  195DOPC  H14X24196   5.431   7.344   4.593  0.4837 -1.6771 -0.1368
  195DOPC  H14Y24197   5.317   7.417   4.717 -0.0295 -0.8403  2.1390
  195DOPC  C31524198   5.372   7.206   4.728  0.3277  0.3797 -0.0775
  195DOPC  H15X24199   5.407   7.129   4.657 -0.2046 -0.5391  0.6315
  195DOPC  H15Y24200   5.276   7.172   4.773 -0.4490  1.0773 -1.1422
  195DOPC  C31624201   5.489   7.229   4.840 -0.1612  0.1223  0.4415
  195DOPC  H16X24202   5.457   7.287   4.929  2.7226  0.9964  1.0070
  195DOPC  H16Y24203   5.533   7.130   4.866 -0.0524  0.4175  1.4048
  195DOPC  C31724204   5.614   7.304   4.790  0.2601  0.2351 -0.0306
  195DOPC  H17X24205   5.626   7.272   4.684 -0.0931 -3.5118  0.9470
  195DOPC  H17Y24206   5.584   7.410   4.773  2.0483  0.4074 -2.7954
  195DOPC  C31824207   5.742   7.298   4.869  0.5112  0.2523 -0.0188
  195DOPC  H18X24208   5.768   7.190   4.867  1.0791  0.3931 -0.6125
  195DOPC  H18Y24209   5.820   7.369   4.834 -0.9018  0.5769 -2.8207
  195DOPC  H18Z24210   5.734   7.319   4.978  0.3311 -1.1829  0.2610
  196DOPC     N24211   0.898   0.729   2.954  0.4471 -0.2243  0.2278
  196DOPC   C1224212   0.829   0.852   3.009  0.0178  0.3274 -0.2237
  196DOPC  H12A24213   0.809   0.924   2.931 -0.2278  0.3539 -0.1371
  196DOPC  H12B24214   0.889   0.913   3.075 -1.5411  0.9826  0.6231
  196DOPC   C1324215   0.933   0.627   3.051 -0.2651  0.1373 -0.2643
  196DOPC  H13A24216   0.963   0.542   2.991 -0.6029  1.0430 -1.7662
  196DOPC  H13B24217   1.008   0.662   3.120 -0.8530  1.6803 -0.3558
  196DOPC  H13C24218   0.845   0.611   3.111  0.0476 -0.2063  0.1058
  196DOPC   C1424219   1.015   0.764   2.873 -0.4015 -0.2377  0.7419
  196DOPC  H14A24220   1.072   0.842   2.921 -2.1952  0.7009  1.4395
  196DOPC  H14B24221   1.086   0.687   2.847  1.7126  1.2274  1.8437
  196DOPC  H14C24222   0.992   0.810   2.778  2.2725  0.0329  0.1380
  196DOPC   C1524223   0.806   0.659   2.858 -0.1900  0.4400  0.5084
  196DOPC  H15A24224   0.855   0.571   2.819 -1.9685 -0.9759  1.3332
  196DOPC  H15B24225   0.786   0.721   2.771  0.8364 -1.1049 -0.8965
  196DOPC  H15C24226   0.716   0.625   2.906  0.7033  0.3786  2.2033
  196DOPC   C1124227   0.695   0.834   3.090  0.2200  0.2781  0.1615
  196DOPC  H11A24228   0.637   0.929   3.084  0.5583  0.6152  1.8681
  196DOPC  H11B24229   0.637   0.751   3.043  0.7606  1.0274 -1.9231
  196DOPC     P24230   0.816   0.891   3.310  0.0815  0.2029  0.2522
  196DOPC   O1324231   0.823   1.028   3.257  0.5817 -0.7077  0.1960
  196DOPC   O1424232   0.944   0.822   3.334  0.0549 -0.3091 -0.0923
  196DOPC   O1224233   0.709   0.804   3.226  0.4058  0.0931 -0.0376
  196DOPC   O1124234   0.756   0.901   3.455  0.3621  0.3951  0.1215
  196DOPC    C124235   0.659   0.810   3.506  0.4568  0.4607 -1.0345
  196DOPC    HA24236   0.699   0.711   3.537  0.6031  0.4033 -1.4040
  196DOPC    HB24237   0.569   0.808   3.441 -0.8564 -0.3135  0.7295
  196DOPC    C224238   0.610   0.857   3.648 -0.1363  0.0472 -0.1978
  196DOPC    HS24239   0.565   0.773   3.705  1.6924 -0.4191  0.6155
  196DOPC   O2124240   0.514   0.957   3.636 -0.3141 -0.2163 -0.0106
  196DOPC   C2124241   0.391   0.922   3.610  0.0323  0.3767 -0.2351
  196DOPC   O2224242   0.349   0.807   3.606 -0.8080 -0.3926 -0.2603
  196DOPC   C2224243   0.308   1.052   3.598 -0.8318  0.9054  0.0770
  196DOPC   H2R24244   0.309   1.072   3.489  1.6643  1.0236  0.0668
  196DOPC   H2S24245   0.369   1.127   3.652 -1.9970  2.2373 -0.4092
  196DOPC    C324246   0.735   0.902   3.739  0.1019 -0.1128  0.7078
  196DOPC    HX24247   0.784   0.986   3.685 -2.0409  1.0480  0.4533
  196DOPC    HY24248   0.807   0.821   3.762  1.3469  0.4506 -0.9782
  196DOPC   O3124249   0.682   0.963   3.862  0.7882  0.0636  0.1020
  196DOPC   C3124250   0.663   1.096   3.860 -0.5118  0.9037 -0.0877
  196DOPC   O3224251   0.714   1.174   3.777  0.0104 -0.1537 -0.1376
  196DOPC   C3224252   0.580   1.131   3.979 -0.8074 -0.1677 -0.2195
  196DOPC   H2X24253   0.480   1.085   3.967 -0.1531 -1.7289  0.0072
  196DOPC   H2Y24254   0.628   1.093   4.072 -0.3123 -1.5400 -1.0038
  196DOPC   C2324255   0.166   1.043   3.664 -0.2430 -0.0340  0.1639
  196DOPC   H3R24256   0.119   0.947   3.634  0.4165 -0.1120 -0.6591
  196DOPC   H3S24257   0.103   1.120   3.614 -1.6882 -2.4750 -2.0066
  196DOPC   C2424258   0.173   1.065   3.812 -0.5869 -0.1814 -0.2911
  196DOPC   H4R24259   0.251   1.142   3.835  0.6507 -1.1776 -0.9969
  196DOPC   H4S24260   0.206   0.976   3.869 -0.9672  0.2906  0.6832
  196DOPC   C2524261   0.036   1.101   3.859  0.2872  0.7773 -0.1061
  196DOPC   H5R24262  -0.044   1.033   3.822 -0.3343  0.1507  2.1997
  196DOPC   H5S24263   0.012   1.205   3.827  0.5694  0.2635 -2.1533
  196DOPC   C2624264   0.033   1.102   4.017  0.1841 -0.3502  0.3268
  196DOPC   H6R24265   0.103   1.176   4.061  1.4906 -1.1573 -0.3398
  196DOPC   H6S24266   0.081   1.010   4.057  2.8393  0.7855 -0.0637
  196DOPC   C2724267  -0.103   1.134   4.077  0.2027  0.2179 -0.3191
  196DOPC   H7R24268  -0.169   1.069   4.014 -0.6258  2.3792 -1.8264
  196DOPC   H7S24269  -0.126   1.243   4.069  0.1565  0.2306 -0.0049
  196DOPC   C2824270  -0.116   1.096   4.224  0.3788 -0.5524 -0.3998
  196DOPC   H8R24271  -0.073   0.994   4.239  0.6638 -0.3454  0.2248
  196DOPC   H8S24272  -0.223   1.085   4.252  0.5497 -0.8845  0.1570
  196DOPC   C2924273  -0.046   1.188   4.325 -0.0246  0.2881  0.6421
  196DOPC   H9R24274   0.019   1.254   4.265 -1.1551  0.8694  0.0295
  196DOPC  C21024275  -0.083   1.215   4.453 -0.3047 -0.3153 -0.0815
  196DOPC  H10R24276  -0.023   1.286   4.512 -1.6105  0.2286  0.6361
  196DOPC  C21124277  -0.203   1.165   4.531  0.2983  0.0988  0.3314
  196DOPC  H11R24278  -0.274   1.130   4.453 -0.0766  1.7217 -0.0883
  196DOPC  H11S24279  -0.249   1.251   4.583  1.4330 -0.0680  1.6794
  196DOPC  C21224280  -0.179   1.060   4.641  1.7278  1.0243 -0.2538
  196DOPC  H12R24281  -0.111   0.995   4.582  0.5200  0.8003 -1.4514
  196DOPC  H12S24282  -0.270   1.001   4.663  4.0362 -1.9407  2.0977
  196DOPC  C21324283  -0.123   1.122   4.772 -0.0055 -0.3505 -0.2930
  196DOPC  H13R24284  -0.198   1.201   4.793 -0.1074 -0.7072  0.7637
  196DOPC  H13S24285  -0.027   1.166   4.739 -1.4906  1.5474 -2.3481
  196DOPC  C21424286  -0.108   1.025   4.890  0.5298  0.5117  0.1261
  196DOPC  H14R24287  -0.053   0.940   4.845  1.1867  1.2618 -0.5052
  196DOPC  H14S24288  -0.206   0.978   4.914  0.2049  0.7942 -0.6491
  196DOPC  C21524289  -0.038   1.070   5.020  0.1417  0.0400 -0.4437
  196DOPC  H15R24290  -0.081   1.167   5.054 -0.7528  0.5408 -2.7846
  196DOPC  H15S24291   0.069   1.083   4.995  0.4193 -1.0236  0.1408
  196DOPC  C21624292  -0.039   0.983   5.144 -0.4931 -0.0924  0.0086
  196DOPC  H16R24293  -0.144   0.981   5.181 -0.9950 -0.7604 -1.3809
  196DOPC  H16S24294   0.033   1.021   5.220 -0.1679  2.8465 -1.6414
  196DOPC  C21724295  -0.031   0.832   5.103 -0.1012 -0.2616  0.4230
  196DOPC  H17R24296   0.073   0.816   5.068  0.2872 -2.5045  2.3679
  196DOPC  H17S24297  -0.096   0.808   5.016 -0.4150  0.2643  0.5037
  196DOPC  C21824298  -0.042   0.734   5.216  0.2863 -0.5838  0.3049
  196DOPC  H18R24299  -0.122   0.762   5.287  0.3787  0.1197  0.1410
  196DOPC  H18S24300   0.048   0.749   5.279 -0.4239  0.7281  1.0445
  196DOPC  H18T24301  -0.053   0.625   5.195 -0.1021 -0.4569 -0.1882
  196DOPC   C3324302   0.581   1.286   4.000  1.0297 -0.0388 -0.7075
  196DOPC   H3X24303   0.482   1.313   4.043  1.0767  2.7691 -2.1387
  196DOPC   H3Y24304   0.566   1.325   3.897  3.0958  0.1417 -0.9661
  196DOPC   C3424305   0.695   1.324   4.088 -0.7709  0.2649 -0.2453
  196DOPC   H4X24306   0.779   1.260   4.054  0.2317  1.0776  0.6191
  196DOPC   H4Y24307   0.678   1.313   4.198 -0.3095 -1.5261 -0.3326
  196DOPC   C3524308   0.755   1.464   4.052  0.4456 -1.2872 -0.3392
  196DOPC   H5X24309   0.739   1.461   3.942 -3.1541 -0.0030 -0.0090
  196DOPC   H5Y24310   0.861   1.483   4.079  0.0837  1.7580 -0.7769
  196DOPC   C3624311   0.676   1.575   4.118  1.1328  0.7140  0.4717
  196DOPC   H6X24312   0.577   1.530   4.141  1.6463  0.2440  1.8869
  196DOPC   H6Y24313   0.718   1.601   4.218  0.4466  1.4714  0.5801
  196DOPC   C3724314   0.677   1.703   4.033 -0.2977 -0.3066  0.2869
  196DOPC   H7X24315   0.784   1.713   4.005 -0.8117  0.7695 -1.4127
  196DOPC   H7Y24316   0.622   1.693   3.937  0.0921 -1.2316  0.1550
  196DOPC   C3824317   0.636   1.830   4.116  0.0446  0.6728 -0.3654
  196DOPC   H8X24318   0.536   1.811   4.160 -0.1770 -3.2422 -2.1775
  196DOPC   H8Y24319   0.620   1.915   4.046 -0.8994  0.5820 -0.2796
  196DOPC   C3924320   0.729   1.865   4.237 -0.8078 -0.1149  0.3922
  196DOPC   H9X24321   0.724   1.801   4.326 -0.6150 -1.6146 -0.6493
  196DOPC  C31024322   0.808   1.978   4.248  0.1344 -0.6992 -0.3884
  196DOPC  H10X24323   0.856   1.990   4.347 -2.5744 -1.3125  1.0985
  196DOPC  C31124324   0.829   2.096   4.150 -0.3175  0.5015  0.5091
  196DOPC  H11X24325   0.836   2.047   4.051  0.5778 -1.6407  1.5705
  196DOPC  H11Y24326   0.931   2.136   4.168 -0.5295  1.7521 -0.8912
  196DOPC  C31224327   0.719   2.203   4.159  0.4432  0.4426 -0.1890
  196DOPC  H12X24328   0.619   2.155   4.158  0.1310  1.0754 -1.2657
  196DOPC  H12Y24329   0.726   2.262   4.065  1.7232  0.9365  0.1966
  196DOPC  C31324330   0.725   2.294   4.284  0.0540 -0.2632 -0.2313
  196DOPC  H13X24331   0.711   2.226   4.372 -1.3609 -1.2241 -1.1492
  196DOPC  H13Y24332   0.822   2.346   4.296  1.4441 -3.1925  3.1759
  196DOPC  C31424333   0.619   2.400   4.298  0.1943  0.7800 -0.3274
  196DOPC  H14X24334   0.636   2.476   4.219  2.6318  0.2237 -0.3981
  196DOPC  H14Y24335   0.520   2.350   4.286 -0.0560  0.9871  0.7634
  196DOPC  C31524336   0.617   2.459   4.440 -0.0533 -0.4469  0.4290
  196DOPC  H15X24337   0.720   2.493   4.461  0.2718 -0.3004 -1.2282
  196DOPC  H15Y24338   0.589   2.376   4.507  1.2038 -0.7137  0.6479
  196DOPC  C31624339   0.513   2.576   4.458  0.0787 -0.2812  0.1117
  196DOPC  H16X24340   0.560   2.661   4.404 -0.7787  1.8936  2.5579
  196DOPC  H16Y24341   0.423   2.544   4.401  0.4217 -1.3857  0.1674
  196DOPC  C31724342   0.485   2.637   4.594 -0.4161 -0.2476 -0.9891
  196DOPC  H17X24343   0.583   2.681   4.622 -1.6486  1.6851  0.5010
  196DOPC  H17Y24344   0.407   2.715   4.577 -0.7217 -0.3858 -0.2634
  196DOPC  C31824345   0.439   2.530   4.700  1.1209  0.0925  0.0733
  196DOPC  H18X24346   0.474   2.428   4.674 -1.5099 -0.6194 -1.0501
  196DOPC  H18Y24347   0.470   2.560   4.802 -2.0320  0.5284  1.0353
  196DOPC  H18Z24348   0.328   2.531   4.709  1.1878 -0.7011  1.1049
  197DOPC     N24349   2.504   7.104   3.248  0.2924 -0.2831  0.7614
  197DOPC   C1224350   2.565   7.066   3.377  0.5954 -0.1472 -0.3782
  197DOPC  H12A24351   2.513   7.113   3.459  3.0888 -0.4871  1.4791
  197DOPC  H12B24352   2.659   7.119   3.380  0.7339 -0.2770 -1.7725
  197DOPC   C1324353   2.586   7.050   3.132  0.4774  0.4284  0.7690
  197DOPC  H13A24354   2.556   7.093   3.038  0.2767  1.7975  1.4395
  197DOPC  H13B24355   2.693   7.052   3.148  0.5457 -1.2987  0.7520
  197DOPC  H13C24356   2.575   6.942   3.128 -1.2122  0.6064 -2.7450
  197DOPC   C1424357   2.501   7.254   3.228 -0.3223 -0.4695 -0.2107
  197DOPC  H14A24358   2.441   7.307   3.300 -2.0925  1.3694 -2.8388
  197DOPC  H14B24359   2.599   7.293   3.207 -0.5849 -0.2545 -1.0686
  197DOPC  H14C24360   2.459   7.282   3.133  0.5574  0.7353 -0.2677
  197DOPC   C1524361   2.362   7.068   3.237  0.2477  0.2944 -0.1088
  197DOPC  H15A24362   2.294   7.126   3.298 -2.7657 -1.9202 -1.0821
  197DOPC  H15B24363   2.352   6.968   3.277  2.3436  0.1243  0.0815
  197DOPC  H15C24364   2.315   7.080   3.140 -0.8548  1.3886  0.5321
  197DOPC   C1124365   2.587   6.920   3.405 -0.9686  0.4673 -0.4341
  197DOPC  H11A24366   2.661   6.880   3.334 -0.8860  2.6955 -1.7078
  197DOPC  H11B24367   2.634   6.913   3.505 -0.4177 -0.4561 -0.7457
  197DOPC     P24368   2.366   6.822   3.516  0.4070 -0.1726  0.3448
  197DOPC   O1324369   2.445   6.768   3.628 -0.4072 -0.0302 -0.3113
  197DOPC   O1424370   2.252   6.738   3.470 -0.1304  0.4896 -0.4729
  197DOPC   O1224371   2.466   6.845   3.396 -0.5745 -0.5509 -0.3950
  197DOPC   O1124372   2.301   6.962   3.565 -0.1713 -0.2188  0.2877
  197DOPC    C124373   2.352   7.046   3.671  0.3280  0.0130 -0.0779
  197DOPC    HA24374   2.316   7.151   3.659 -0.1908  0.0888  1.7349
  197DOPC    HB24375   2.463   7.047   3.672  0.3432  0.5697 -0.9666
  197DOPC    C224376   2.281   7.024   3.811 -0.7536 -0.3081  0.0570
  197DOPC    HS24377   2.316   7.098   3.886 -0.3571 -1.1196  0.6865
  197DOPC   O2124378   2.289   6.895   3.868  0.4672  0.2308 -0.0002
  197DOPC   C2124379   2.406   6.853   3.895 -0.6362 -0.4686 -0.4869
  197DOPC   O2224380   2.507   6.921   3.892 -0.8673 -0.2025  0.0898
  197DOPC   C2224381   2.413   6.707   3.936 -0.2422 -0.5015  0.3516
  197DOPC   H2R24382   2.450   6.655   3.845 -1.2113 -0.1696 -0.2371
  197DOPC   H2S24383   2.314   6.666   3.965  0.5333 -3.0163 -0.2882
  197DOPC    C324384   2.131   7.051   3.808 -0.9225 -0.0044  0.7723
  197DOPC    HX24385   2.087   7.027   3.907 -0.1863 -0.9139  0.8827
  197DOPC    HY24386   2.087   6.976   3.739 -1.0702 -1.8692  2.8269
  197DOPC   O3124387   2.095   7.186   3.757 -0.3930  0.9142 -0.2409
  197DOPC   C3124388   2.107   7.281   3.845 -0.2836  0.3707 -0.1994
  197DOPC   O3224389   2.133   7.257   3.962 -0.2334  0.5071  0.0570
  197DOPC   C3224390   2.082   7.425   3.787 -0.3587 -0.0130 -0.1077
  197DOPC   H2X24391   2.096   7.408   3.678  0.1436 -1.0285  0.1054
  197DOPC   H2Y24392   1.973   7.435   3.803 -1.2237 -2.6788 -3.2861
  197DOPC   C2324393   2.509   6.668   4.051 -0.0315  0.2611  1.0130
  197DOPC   H3R24394   2.455   6.692   4.145 -0.3801  2.1051  0.3817
  197DOPC   H3S24395   2.604   6.722   4.032 -0.1984  0.8267  1.7771
  197DOPC   C2424396   2.542   6.522   4.063 -0.4026  1.1575  0.3413
  197DOPC   H4R24397   2.580   6.483   3.966 -0.0556 -0.5504  1.1329
  197DOPC   H4S24398   2.458   6.452   4.081  1.2605 -0.9285  0.4145
  197DOPC   C2524399   2.646   6.491   4.166 -0.0109  0.2393 -0.0848
  197DOPC   H5R24400   2.740   6.543   4.139  1.0607 -0.8609  1.3513
  197DOPC   H5S24401   2.671   6.383   4.167 -0.1619  0.1958  1.7783
  197DOPC   C2624402   2.622   6.536   4.308 -0.0802  0.3359 -0.0495
  197DOPC   H6R24403   2.519   6.504   4.336 -0.6970  1.0765 -1.3689
  197DOPC   H6S24404   2.630   6.646   4.318  1.0836  0.1879  0.8865
  197DOPC   C2724405   2.726   6.494   4.411 -0.4475 -0.0837 -0.8188
  197DOPC   H7R24406   2.820   6.547   4.387  0.1416  0.6616  2.7314
  197DOPC   H7S24407   2.741   6.386   4.392 -2.9047 -0.3220 -1.8607
  197DOPC   C2824408   2.686   6.514   4.562 -0.2396  0.7511  0.3998
  197DOPC   H8R24409   2.772   6.471   4.617 -1.7701 -0.5060  1.9214
  197DOPC   H8S24410   2.596   6.455   4.589 -2.2852  2.5462 -2.0067
  197DOPC   C2924411   2.675   6.654   4.623 -0.2417  0.8498  0.4043
  197DOPC   H9R24412   2.572   6.691   4.609 -0.8000  0.3638  2.8385
  197DOPC  C21024413   2.774   6.725   4.671  0.1540 -0.4537 -0.4204
  197DOPC  H10R24414   2.749   6.822   4.716  1.9442  0.3326 -1.0042
  197DOPC  C21124415   2.921   6.680   4.668  0.0804  0.3820 -0.4730
  197DOPC  H11R24416   2.983   6.753   4.612  2.6147 -1.2174  0.0620
  197DOPC  H11S24417   2.942   6.581   4.620  0.2288  1.7731 -3.5229
  197DOPC  C21224418   2.989   6.692   4.807  0.0478  0.2640  0.0097
  197DOPC  H12R24419   2.967   6.792   4.849  1.4494  1.0378 -1.0001
  197DOPC  H12S24420   3.100   6.692   4.799 -0.0040 -0.4189 -0.9722
  197DOPC  C21324421   2.935   6.588   4.917 -0.6783  0.2955  0.0485
  197DOPC  H13R24422   2.982   6.490   4.895 -0.8514  0.0120  0.8914
  197DOPC  H13S24423   2.826   6.567   4.918 -0.4331 -1.0469  1.0269
  197DOPC  C21424424   2.974   6.621   5.065 -1.2043  0.7828 -0.2262
  197DOPC  H14R24425   2.936   6.716   5.108 -1.3858  0.6146 -0.0065
  197DOPC  H14S24426   3.084   6.634   5.056 -1.2001  0.8217 -0.1218
  197DOPC  C21524427   2.926   6.505   5.166 -0.1096  0.1477  0.6352
  197DOPC  H15R24428   2.966   6.405   5.139 -0.4450  0.6669 -2.1645
  197DOPC  H15S24429   2.815   6.499   5.163 -0.1284  0.5793 -1.2003
  197DOPC  C21624430   2.964   6.531   5.316  0.0894  0.3693 -0.3045
  197DOPC  H16R24431   2.913   6.626   5.343 -1.9395 -0.1539 -1.9851
  197DOPC  H16S24432   3.074   6.543   5.321  0.3911 -2.3621  1.1694
  197DOPC  C21724433   2.928   6.424   5.417 -0.5499  0.9118  0.0931
  197DOPC  H17R24434   2.982   6.327   5.416 -1.6154  0.2821  1.2400
  197DOPC  H17S24435   2.827   6.382   5.400  0.2115 -2.8876  3.3425
  197DOPC  C21824436   2.923   6.474   5.561 -0.0455  0.0052 -0.1639
  197DOPC  H18R24437   2.851   6.418   5.625 -1.5396  1.4444 -0.5113
  197DOPC  H18S24438   2.881   6.577   5.563  1.5669  0.6822 -0.0725
  197DOPC  H18T24439   3.026   6.488   5.601  0.2888 -0.0474 -1.0002
  197DOPC   C3324440   2.178   7.536   3.848 -0.9351  0.4321  0.4619
  197DOPC   H3X24441   2.173   7.629   3.787  1.1219  0.0460 -0.3806
  197DOPC   H3Y24442   2.280   7.495   3.834 -1.8830 -2.0982  0.5193
  197DOPC   C3424443   2.145   7.582   3.999 -0.6601 -0.6301  0.4837
  197DOPC   H4X24444   2.179   7.503   4.069 -0.4331  0.1677  1.2820
  197DOPC   H4Y24445   2.034   7.591   4.006 -0.7056 -0.9092  0.1654
  197DOPC   C3524446   2.209   7.721   4.043 -0.3594 -0.8812  0.6450
  197DOPC   H5X24447   2.223   7.727   4.153  1.0892  1.3945  0.3987
  197DOPC   H5Y24448   2.134   7.799   4.018  0.1659 -0.3173  0.7906
  197DOPC   C3624449   2.348   7.755   3.976  0.4541  0.4332 -0.1337
  197DOPC   H6X24450   2.424   7.681   4.010 -1.1507  0.3353  3.7529
  197DOPC   H6Y24451   2.344   7.766   3.866  0.9538  0.4558 -0.1500
  197DOPC   C3724452   2.402   7.900   4.021 -0.1994 -0.0965  0.1863
  197DOPC   H7X24453   2.487   7.915   3.952  0.8980 -0.3817  1.4453
  197DOPC   H7Y24454   2.328   7.972   3.979  0.8897 -0.8747 -3.4434
  197DOPC   C3824455   2.458   7.925   4.160 -0.5331 -0.1174  0.0162
  197DOPC   H8X24456   2.489   8.032   4.156 -0.4769 -0.1625 -1.7757
  197DOPC   H8Y24457   2.551   7.867   4.178 -0.8636 -0.3805  0.8874
  197DOPC   C3924458   2.358   7.912   4.274  0.2630 -0.2528 -0.3760
  197DOPC   H9X24459   2.266   7.969   4.261  0.9017  0.8809 -0.0497
  197DOPC  C31024460   2.371   7.825   4.375 -0.4126  0.0762  0.6175
  197DOPC  H10X24461   2.293   7.826   4.453  0.3381 -0.1340  1.3814
  197DOPC  C31124462   2.483   7.716   4.393 -0.5662  0.2529 -0.1009
  197DOPC  H11X24463   2.587   7.751   4.404 -0.5192 -0.3666  1.7818
  197DOPC  H11Y24464   2.483   7.644   4.308 -1.0419 -0.4320  0.4697
  197DOPC  C31224465   2.455   7.629   4.514 -0.3447  0.1113 -0.1805
  197DOPC  H12X24466   2.498   7.529   4.494 -0.3707  0.3542 -1.5526
  197DOPC  H12Y24467   2.346   7.608   4.518 -1.0960  3.3390 -0.8803
  197DOPC  C31324468   2.492   7.686   4.655  0.0248  0.2759 -0.2284
  197DOPC  H13X24469   2.603   7.696   4.651  0.1240  0.3315  1.7885
  197DOPC  H13Y24470   2.439   7.784   4.661 -1.4053 -0.3319 -1.8894
  197DOPC  C31424471   2.467   7.601   4.778 -0.3061 -0.2578  0.7938
  197DOPC  H14X24472   2.358   7.581   4.777 -0.7339  1.7660 -1.6893
  197DOPC  H14Y24473   2.527   7.508   4.762 -1.3773 -0.8765  0.2820
  197DOPC  C31524474   2.509   7.674   4.905 -0.0908 -0.6891 -0.4344
  197DOPC  H15X24475   2.464   7.775   4.915 -0.2898 -0.8023 -0.1950
  197DOPC  H15Y24476   2.616   7.703   4.905 -0.5373  1.0681 -0.8360
  197DOPC  C31624477   2.465   7.588   5.030 -0.3322  0.2657  0.5506
  197DOPC  H16X24478   2.356   7.571   5.016 -0.1779 -0.0047 -0.4248
  197DOPC  H16Y24479   2.510   7.486   5.025  0.1861  0.5383 -1.3032
  197DOPC  C31724480   2.477   7.649   5.168  0.1501  0.5396 -0.0611
  197DOPC  H17X24481   2.576   7.699   5.163 -0.3048  1.3858 -1.0201
  197DOPC  H17Y24482   2.402   7.729   5.180  1.7443  2.1677 -0.4879
  197DOPC  C31824483   2.480   7.541   5.275 -0.1507 -0.2061 -0.4405
  197DOPC  H18X24484   2.478   7.589   5.375  0.5334  1.5441 -1.2244
  197DOPC  H18Y24485   2.409   7.458   5.255 -0.3226  0.4354 -2.9586
  197DOPC  H18Z24486   2.574   7.481   5.281 -0.1869 -0.1383  1.3068
  198DOPC     N24487   0.222   6.229   2.523 -0.3966  0.1278  0.4072
  198DOPC   C1224488   0.232   6.115   2.631  0.1000 -0.7903  0.2283
  198DOPC  H12A24489   0.319   6.060   2.597 -0.1990 -0.4944 -1.0703
  198DOPC  H12B24490   0.143   6.054   2.622 -0.3542  0.0384 -1.2263
  198DOPC   C1324491   0.213   6.161   2.390  0.2840 -0.9189  0.1844
  198DOPC  H13A24492   0.119   6.113   2.364 -0.0205 -0.4107  0.3203
  198DOPC  H13B24493   0.243   6.243   2.326  0.9946  0.6125  2.3449
  198DOPC  H13C24494   0.288   6.084   2.380  1.0238 -0.2941  0.8144
  198DOPC   C1424495   0.353   6.317   2.525  0.5205 -0.9350  0.5899
  198DOPC  H14A24496   0.340   6.397   2.452  0.1806  0.4800  2.1316
  198DOPC  H14B24497   0.358   6.356   2.626  0.8440  0.4679  0.0573
  198DOPC  H14C24498   0.442   6.262   2.501 -0.9056 -3.2702  0.4091
  198DOPC   C1524499   0.107   6.318   2.543  0.0961  0.3185  0.3305
  198DOPC  H15A24500   0.093   6.375   2.452 -1.9509 -1.5970 -0.6422
  198DOPC  H15B24501   0.125   6.367   2.638  0.5462 -0.6842  0.7747
  198DOPC  H15C24502   0.014   6.266   2.562 -0.1652  0.8034  0.3945
  198DOPC   C1124503   0.242   6.148   2.775  0.3513  0.2833 -0.0757
  198DOPC  H11A24504   0.244   6.054   2.834 -0.5953 -0.1536 -0.7135
  198DOPC  H11B24505   0.342   6.192   2.798  0.3832  0.3886 -0.4145
  198DOPC     P24506  -0.007   6.192   2.852 -0.0661 -0.1335 -0.0616
  198DOPC   O1324507  -0.020   6.050   2.870 -0.0246 -0.2151  0.5405
  198DOPC   O1424508  -0.098   6.255   2.749  0.3008 -0.3377 -0.2712
  198DOPC   O1224509   0.144   6.240   2.823  0.0170 -0.3662 -0.3102
  198DOPC   O1124510  -0.030   6.266   2.993  0.1599  0.1166 -0.6318
  198DOPC    C124511   0.083   6.260   3.087  0.4965 -0.0482  0.1222
  198DOPC    HA24512   0.170   6.314   3.044 -1.1351  1.8468 -0.9653
  198DOPC    HB24513   0.110   6.155   3.111  1.5237  0.3986  1.0222
  198DOPC    C224514   0.039   6.328   3.221 -0.2794  0.1267  0.2854
  198DOPC    HS24515   0.127   6.331   3.289  0.5870  1.1363 -0.8337
  198DOPC   O2124516  -0.075   6.265   3.283  0.5137  0.7095  0.5525
  198DOPC   C2124517  -0.056   6.142   3.322 -0.0007  0.0018 -0.7351
  198DOPC   O2224518   0.049   6.074   3.320 -0.3293 -0.5880  0.4384
  198DOPC   C2224519  -0.190   6.086   3.372 -0.3835  0.2855 -0.0527
  198DOPC   H2R24520  -0.221   5.989   3.327  0.9194 -3.1492  5.4612
  198DOPC   H2S24521  -0.266   6.162   3.346  0.5048  1.4616  0.7093
  198DOPC    C324522   0.012   6.482   3.197  0.3669  0.0835 -0.0675
  198DOPC    HX24523  -0.066   6.492   3.119 -1.1267  0.0870  1.3760
  198DOPC    HY24524   0.105   6.528   3.156  0.5757 -0.1509  0.1402
  198DOPC   O3124525  -0.026   6.548   3.315  0.6037 -0.6508  0.3306
  198DOPC   C3124526  -0.156   6.582   3.320  0.1377 -0.5902  0.2197
  198DOPC   O3224527  -0.247   6.552   3.242  0.4991 -0.4054  0.2964
  198DOPC   C3224528  -0.174   6.654   3.452  0.3332  0.5376 -0.1023
  198DOPC   H2X24529  -0.149   6.572   3.523 -0.0835  0.7875  0.3312
  198DOPC   H2Y24530  -0.088   6.722   3.468 -0.7429  1.3847  2.4283
  198DOPC   C2324531  -0.186   6.064   3.520  0.2016 -0.2174  0.0982
  198DOPC   H3R24532  -0.089   6.026   3.560 -0.3725 -1.4848  0.3409
  198DOPC   H3S24533  -0.265   5.987   3.533 -0.4282 -0.0995 -2.4410
  198DOPC   C2424534  -0.229   6.184   3.600 -0.6461 -0.1664  0.2235
  198DOPC   H4R24535  -0.332   6.212   3.571 -0.1717  0.0925 -1.2801
  198DOPC   H4S24536  -0.171   6.272   3.566 -1.4009 -0.1804 -1.1317
  198DOPC   C2524537  -0.213   6.160   3.749  0.1162 -0.1866  0.0974
  198DOPC   H5R24538  -0.110   6.133   3.781 -0.7820 -2.6013  1.1834
  198DOPC   H5S24539  -0.264   6.063   3.765  2.8276 -1.3474  2.4267
  198DOPC   C2624540  -0.261   6.272   3.838  0.3044 -0.2159  0.1524
  198DOPC   H6R24541  -0.369   6.297   3.836  0.8199  2.7484 -3.9139
  198DOPC   H6S24542  -0.208   6.364   3.806  2.5753 -1.7393 -0.7562
  198DOPC   C2724543  -0.216   6.246   3.980  0.2235 -0.8940  0.0720
  198DOPC   H7R24544  -0.108   6.220   3.983  0.1358 -1.1882  1.0644
  198DOPC   H7S24545  -0.282   6.166   4.021  0.2137 -1.2067 -0.5494
  198DOPC   C2824546  -0.236   6.371   4.077 -0.1245  0.8153  1.1740
  198DOPC   H8R24547  -0.155   6.444   4.059 -0.4521  1.4025  2.0226
  198DOPC   H8S24548  -0.223   6.325   4.178 -3.1681  1.3332  1.8966
  198DOPC   C2924549  -0.369   6.439   4.085 -0.7385 -0.1351  0.0009
  198DOPC   H9R24550  -0.423   6.441   3.989 -0.4974 -0.1979 -0.1370
  198DOPC  C21024551  -0.431   6.490   4.193 -0.6969  0.1136  0.3322
  198DOPC  H10R24552  -0.534   6.527   4.188 -0.5943  0.4372  0.5251
  198DOPC  C21124553  -0.382   6.485   4.336 -0.1860  0.3753  0.4186
  198DOPC  H11R24554  -0.393   6.582   4.388 -1.5100 -0.2781  1.4214
  198DOPC  H11S24555  -0.272   6.468   4.340  0.3219  3.2219  0.9741
  198DOPC  C21224556  -0.455   6.367   4.409 -0.4441 -0.3372 -0.4680
  198DOPC  H12R24557  -0.459   6.271   4.353  2.8433 -0.0708 -1.3658
  198DOPC  H12S24558  -0.560   6.400   4.425 -0.0432 -0.0001  1.8607
  198DOPC  C21324559  -0.384   6.340   4.545  0.6384 -0.5419  0.4968
  198DOPC  H13R24560  -0.462   6.285   4.601 -0.7528  2.2782  1.4932
  198DOPC  H13S24561  -0.349   6.432   4.597 -0.4026 -0.6612  1.4342
  198DOPC  C21424562  -0.264   6.251   4.531  0.4740  0.3684  0.0570
  198DOPC  H14R24563  -0.180   6.297   4.476  0.1538  0.8731 -0.0171
  198DOPC  H14S24564  -0.287   6.168   4.460  1.4159  1.0161 -1.0274
  198DOPC  C21524565  -0.219   6.207   4.674 -0.1866  0.1313  0.3238
  198DOPC  H15R24566  -0.304   6.158   4.726  1.1873  0.0915  2.7005
  198DOPC  H15S24567  -0.202   6.297   4.737 -2.3529  0.0070  1.1786
  198DOPC  C21624568  -0.097   6.106   4.667 -0.0910  0.2567  0.0223
  198DOPC  H16R24569  -0.091   6.066   4.771  0.7129  2.4927  0.9109
  198DOPC  H16S24570  -0.003   6.159   4.641 -1.5358  2.4950 -1.0517
  198DOPC  C21724571  -0.120   5.985   4.574 -0.0514 -0.5368 -0.5664
  198DOPC  H17R24572  -0.145   6.020   4.472 -3.4331 -1.2545 -0.1002
  198DOPC  H17S24573  -0.210   5.935   4.615  0.3092 -0.7422 -0.0138
  198DOPC  C21824574  -0.009   5.882   4.560 -0.0128  0.4159  0.4951
  198DOPC  H18R24575   0.017   5.835   4.657 -0.0519 -0.1069  0.2546
  198DOPC  H18S24576   0.086   5.928   4.526  0.4647 -0.5613  0.4683
  198DOPC  H18T24577  -0.051   5.796   4.503  1.1491  1.0999 -1.4910
  198DOPC   C3324578  -0.299   6.729   3.464  1.2704  0.1575  0.5103
  198DOPC   H3X24579  -0.311   6.794   3.376  1.5766 -1.6451 -0.9302
  198DOPC   H3Y24580  -0.304   6.799   3.550 -1.1550 -0.9032  1.3289
  198DOPC   C3424581  -0.425   6.639   3.490 -0.4707 -0.1999  0.3070
  198DOPC   H4X24582  -0.444   6.568   3.406  2.7266 -1.5175  0.5739
  198DOPC   H4Y24583  -0.513   6.707   3.488 -0.5820 -0.1103  3.7375
  198DOPC   C3524584  -0.435   6.557   3.617  0.3019  0.0328 -0.6550
  198DOPC   H5X24585  -0.360   6.476   3.617 -0.5949 -0.9589  2.5207
  198DOPC   H5Y24586  -0.535   6.508   3.623  1.3501 -2.2098 -0.6664
  198DOPC   C3624587  -0.419   6.646   3.751  0.1132 -0.6623  0.0268
  198DOPC   H6X24588  -0.461   6.577   3.828 -1.3546  1.6250  1.3916
  198DOPC   H6Y24589  -0.312   6.668   3.770  0.2828  1.9758 -3.1425
  198DOPC   C3724590  -0.494   6.778   3.766 -0.3239 -0.1171 -0.2807
  198DOPC   H7X24591  -0.439   6.861   3.717 -0.1888 -0.4580 -0.7208
  198DOPC   H7Y24592  -0.595   6.770   3.721 -0.3052  2.1139 -0.8104
  198DOPC   C3824593  -0.534   6.812   3.912 -0.7424  1.3354  0.0401
  198DOPC   H8X24594  -0.589   6.909   3.909 -0.6631  1.3727 -1.5199
  198DOPC   H8Y24595  -0.441   6.822   3.971 -0.3373 -0.3738 -0.2551
  198DOPC   C3924596  -0.621   6.703   3.981 -0.1125 -0.1664  0.3953
  198DOPC   H9X24597  -0.633   6.605   3.931  0.2064  0.0338 -0.0842
  198DOPC  C31024598  -0.685   6.721   4.102 -0.3594 -0.3153 -0.7174
  198DOPC  H10X24599  -0.738   6.637   4.150  2.0325 -0.1816  2.5506
  198DOPC  C31124600  -0.680   6.848   4.180  0.2291 -0.8077  0.8086
  198DOPC  H11X24601  -0.602   6.921   4.149 -0.8691  1.0133  2.1504
  198DOPC  H11Y24602  -0.656   6.831   4.287  3.8153 -0.9385  0.0927
  198DOPC  C31224603  -0.808   6.922   4.146  0.2369  0.2310 -0.3117
  198DOPC  H12X24604  -0.899   6.868   4.178  1.2939 -0.5763  1.4817
  198DOPC  H12Y24605  -0.810   6.930   4.035 -0.9441 -0.7215 -0.3715
  198DOPC  C31324606  -0.810   7.070   4.180 -1.0032  0.3365 -0.1030
  198DOPC  H13X24607  -0.791   7.085   4.288  0.1566  0.9029 -0.3667
  198DOPC  H13Y24608  -0.714   7.106   4.135  0.0847  0.3366  2.1031
  198DOPC  C31424609  -0.929   7.160   4.135  0.2987 -0.4363 -0.6127
  198DOPC  H14X24610  -0.904   7.254   4.189 -2.3473 -0.7077  1.2845
  198DOPC  H14Y24611  -0.917   7.159   4.025  1.4961 -0.8352 -0.5024
  198DOPC  C31524612  -1.070   7.107   4.166  0.4087 -0.1444 -0.4389
  198DOPC  H15X24613  -1.081   7.091   4.276 -2.9882  1.3447 -0.4326
  198DOPC  H15Y24614  -1.087   7.012   4.112  1.3367  0.1896 -1.3603
  198DOPC  C31624615  -1.179   7.202   4.109 -0.3021  0.6931  0.1823
  198DOPC  H16X24616  -1.157   7.216   4.001  0.6689 -1.9113 -0.0211
  198DOPC  H16Y24617  -1.278   7.152   4.113 -0.2000  0.4840  0.0853
  198DOPC  C31724618  -1.185   7.335   4.187  0.3695  0.5315  0.3061
  198DOPC  H17X24619  -1.185   7.312   4.296  0.9042  0.6499  0.3330
  198DOPC  H17Y24620  -1.098   7.402   4.174  1.7086 -1.2636 -0.4075
  198DOPC  C31824621  -1.300   7.410   4.131 -0.2580 -0.2682 -0.0745
  198DOPC  H18X24622  -1.303   7.517   4.157 -1.0561  0.1346 -1.7096
  198DOPC  H18Y24623  -1.292   7.418   4.020  2.3203 -0.4263  0.0427
  198DOPC  H18Z24624  -1.396   7.360   4.156 -0.9687  1.1431  0.0715
  199DOPC     N24625   6.900   0.392   2.364 -0.2724 -0.1004 -0.6495
  199DOPC   C1224626   6.938   0.245   2.414 -0.4803  0.1342  0.1761
  199DOPC  H12A24627   7.036   0.234   2.459 -0.7589 -1.0431  0.5237
  199DOPC  H12B24628   6.933   0.175   2.333 -0.6349 -2.0981  2.0082
  199DOPC   C1324629   6.772   0.397   2.293 -0.4028 -0.5752 -0.1642
  199DOPC  H13A24630   6.761   0.499   2.257  1.2265 -0.5243 -0.5998
  199DOPC  H13B24631   6.772   0.330   2.209  0.0907  0.3401 -0.9118
  199DOPC  H13C24632   6.691   0.384   2.364 -0.2369  0.6374  0.2819
  199DOPC   C1424633   7.003   0.442   2.270  0.1576  0.2995  0.3740
  199DOPC  H14A24634   6.987   0.404   2.170  0.3006 -0.2734  0.5661
  199DOPC  H14B24635   6.992   0.549   2.256 -1.8577 -0.1172 -1.8185
  199DOPC  H14C24636   7.104   0.426   2.306 -0.1569  1.6782  1.9784
  199DOPC   C1524637   6.891   0.486   2.483  0.3433  0.0906 -0.0005
  199DOPC  H15A24638   6.802   0.461   2.538  0.5543  0.6865  0.6172
  199DOPC  H15B24639   6.877   0.589   2.453 -0.1781  0.6367  1.9781
  199DOPC  H15C24640   6.975   0.485   2.551  0.7623 -1.3941 -0.5079
  199DOPC   C1124641   6.836   0.197   2.519  0.0534  0.0482  0.1036
  199DOPC  H11A24642   6.833   0.269   2.603  2.8147  1.0015 -0.4992
  199DOPC  H11B24643   6.733   0.196   2.478 -0.5142  0.3402  1.4799
  199DOPC     P24644   6.959   0.028   2.679 -0.0329 -0.1442  0.3940
  199DOPC   O1324645   7.073   0.122   2.671 -0.2407 -0.2770  0.0499
  199DOPC   O1424646   6.989  -0.117   2.676  0.3025  0.4556 -1.0904
  199DOPC   O1224647   6.871   0.060   2.548 -0.4549 -0.0018 -0.1507
  199DOPC   O1124648   6.856   0.063   2.793 -0.0514  0.0404  0.2574
  199DOPC    C124649   6.720   0.021   2.780 -0.0511  0.0833  0.0551
  199DOPC    HA24650   6.713  -0.086   2.754  0.7746 -0.1979  0.9323
  199DOPC    HB24651   6.666   0.082   2.705 -0.0853 -1.1441 -0.9483
  199DOPC    C224652   6.648   0.042   2.916  0.0898  0.1339  0.0533
  199DOPC    HS24653   6.640   0.153   2.916 -0.3663  0.1521 -2.5479
  199DOPC   O2124654   6.716  -0.022   3.028 -0.0803  0.1751  0.3273
  199DOPC   C2124655   6.703   0.044   3.148  0.5163 -0.0057  0.1195
  199DOPC   O2224656   6.633   0.145   3.175  0.1497  0.4906  0.3389
  199DOPC   C2224657   6.804  -0.022   3.238  0.7459 -0.1082  0.3961
  199DOPC   H2R24658   6.891   0.047   3.237  0.6311  0.0595  1.1017
  199DOPC   H2S24659   6.824  -0.126   3.203  1.9067  0.0530  0.5345
  199DOPC    C324660   6.503  -0.026   2.919  0.6965 -0.7930 -0.3016
  199DOPC    HX24661   6.519  -0.135   2.925 -0.6051 -0.9451  0.8666
  199DOPC    HY24662   6.458  -0.015   2.818 -1.3529 -1.5505  0.4768
  199DOPC   O3124663   6.421   0.003   3.037 -0.3535 -0.0794 -0.0775
  199DOPC   C3124664   6.347   0.106   3.019  0.2771 -0.2719 -0.0654
  199DOPC   O3224665   6.325   0.160   2.912  0.4014  0.1095 -0.4471
  199DOPC   C3224666   6.286   0.152   3.152 -0.7550  0.0721  0.0910
  199DOPC   H2X24667   6.368   0.135   3.225 -0.4856 -0.3092 -0.2918
  199DOPC   H2Y24668   6.263   0.260   3.150  1.5472  0.5815 -0.6514
  199DOPC   C2324669   6.749  -0.027   3.383 -0.0668  0.2323 -0.8218
  199DOPC   H3R24670   6.687   0.061   3.413 -0.0107  0.1106 -0.3360
  199DOPC   H3S24671   6.823  -0.016   3.466  0.9856 -1.1373 -1.5405
  199DOPC   C2424672   6.659  -0.151   3.407 -0.6999  0.8530  0.5674
  199DOPC   H4R24673   6.715  -0.238   3.368  1.0337  1.8214  0.7727
  199DOPC   H4S24674   6.562  -0.138   3.355  0.3271 -1.9545 -2.3247
  199DOPC   C2524675   6.618  -0.152   3.553  0.3835 -0.7942  0.7046
  199DOPC   H5R24676   6.574  -0.052   3.576  1.8433 -0.6871  3.3303
  199DOPC   H5S24677   6.703  -0.158   3.624 -0.0007 -2.0774  1.0813
  199DOPC   C2624678   6.519  -0.265   3.593  0.0002  0.1071  0.2245
  199DOPC   H6R24679   6.474  -0.317   3.506 -0.7835 -3.4943  2.5785
  199DOPC   H6S24680   6.430  -0.218   3.640 -1.1324 -1.4846 -0.2280
  199DOPC   C2724681   6.590  -0.365   3.686 -0.6570  0.3971  0.4284
  199DOPC   H7R24682   6.615  -0.308   3.778 -1.3659 -0.7549  1.3616
  199DOPC   H7S24683   6.683  -0.390   3.631 -0.1732 -0.6312  1.6484
  199DOPC   C2824684   6.519  -0.495   3.724 -0.2496  0.2273 -0.1317
  199DOPC   H8R24685   6.440  -0.470   3.798  0.0659  0.8747 -0.0040
  199DOPC   H8S24686   6.592  -0.558   3.779  2.0779  0.5795 -2.6216
  199DOPC   C2924687   6.462  -0.572   3.607 -0.8506 -0.5134 -0.0600
  199DOPC   H9R24688   6.365  -0.538   3.569  0.0334  0.1840 -1.7661
  199DOPC  C21024689   6.529  -0.668   3.538  0.7642  0.0968  0.1407
  199DOPC  H10R24690   6.477  -0.708   3.450  0.5665  3.2185 -1.2893
  199DOPC  C21124691   6.661  -0.727   3.561 -0.7051  0.8635 -0.4458
  199DOPC  H11R24692   6.721  -0.684   3.645  1.8768 -3.5071  0.2677
  199DOPC  H11S24693   6.712  -0.694   3.468  1.1164 -1.5061 -0.3881
  199DOPC  C21224694   6.670  -0.882   3.568 -0.4575  0.3479  0.8006
  199DOPC  H12R24695   6.601  -0.913   3.649  0.1367  0.5295  1.3740
  199DOPC  H12S24696   6.769  -0.912   3.608  0.1451  1.7225  0.3958
  199DOPC  C21324697   6.647  -0.951   3.433  0.2876 -0.3503  0.5114
  199DOPC  H13R24698   6.714  -0.903   3.359 -2.3037  2.4342 -0.2286
  199DOPC  H13S24699   6.542  -0.937   3.399 -0.5927 -2.1503  2.2373
  199DOPC  C21424700   6.639  -1.101   3.443  0.0325 -0.1395  0.2925
  199DOPC  H14R24701   6.589  -1.147   3.356 -0.7771 -1.0541  1.2072
  199DOPC  H14S24702   6.576  -1.131   3.529 -1.5547 -0.8349 -1.0695
  199DOPC  C21524703   6.781  -1.166   3.455  0.0004  0.0110  0.5107
  199DOPC  H15R24704   6.818  -1.151   3.558 -2.1216 -0.5219  1.4233
  199DOPC  H15S24705   6.848  -1.116   3.381 -1.2275 -0.9286 -1.3284
  199DOPC  C21624706   6.777  -1.314   3.426 -0.0675  0.6630  0.1539
  199DOPC  H16R24707   6.778  -1.338   3.317  0.3875 -0.8143  0.4634
  199DOPC  H16S24708   6.694  -1.368   3.475 -1.1322  2.8540  0.8802
  199DOPC  C21724709   6.905  -1.373   3.485 -0.5463  0.8561  0.2254
  199DOPC  H17R24710   6.896  -1.367   3.596 -2.1830  0.9213  0.1127
  199DOPC  H17S24711   6.987  -1.306   3.453 -0.2141  0.3818  0.0669
  199DOPC  C21824712   6.929  -1.519   3.441  0.0261 -0.0019 -0.3252
  199DOPC  H18R24713   6.843  -1.575   3.484  0.0589  0.8520  0.9013
  199DOPC  H18S24714   7.025  -1.556   3.484 -0.4707 -1.0759 -0.1158
  199DOPC  H18T24715   6.935  -1.515   3.330  2.2781 -1.6758 -0.3363
  199DOPC   C3324716   6.157   0.074   3.179 -1.4070 -0.6199 -0.4220
  199DOPC   H3X24717   6.192  -0.028   3.206 -1.6596 -0.8435 -0.9324
  199DOPC   H3Y24718   6.091   0.064   3.090 -0.8258 -0.8154 -0.8402
  199DOPC   C3424719   6.090   0.141   3.294  0.3892  0.0637  0.0609
  199DOPC   H4X24720   6.049   0.242   3.275 -1.8465 -0.8094 -0.0551
  199DOPC   H4Y24721   6.166   0.155   3.375  0.2666  3.5263 -0.2687
  199DOPC   C3524722   5.951   0.069   3.334 -0.0320 -0.2099  0.0459
  199DOPC   H5X24723   5.971  -0.039   3.354  0.0849 -0.3150 -0.6310
  199DOPC   H5Y24724   5.877   0.070   3.252 -0.8553  0.0128  0.7694
  199DOPC   C3624725   5.882   0.122   3.461  0.1453  0.2375  0.8580
  199DOPC   H6X24726   5.883   0.233   3.450  1.2454  0.2018  0.4473
  199DOPC   H6Y24727   5.777   0.088   3.466 -0.1121  1.0394  1.0353
  199DOPC   C3724728   5.967   0.105   3.587  0.1601  0.5766 -0.0240
  199DOPC   H7X24729   5.991  -0.001   3.613 -0.1976  0.6941  0.8339
  199DOPC   H7Y24730   6.066   0.152   3.572  0.7294 -0.0332  1.5611
  199DOPC   C3824731   5.901   0.145   3.720 -0.1715  0.0205 -0.2941
  199DOPC   H8X24732   5.841   0.055   3.743  0.6042 -0.2992  0.5094
  199DOPC   H8Y24733   5.838   0.235   3.704 -1.7821 -0.8630  0.7871
  199DOPC   C3924734   5.992   0.170   3.830 -1.0359  0.6704 -0.1789
  199DOPC   H9X24735   6.079   0.227   3.793  1.6428 -2.6814  0.4593
  199DOPC  C31024736   5.982   0.123   3.959  0.0099 -0.9479 -0.0215
  199DOPC  H10X24737   6.066   0.144   4.026  1.1969 -1.4670 -1.2787
  199DOPC  C31124738   5.864   0.042   4.016 -0.3178 -0.3898 -0.1267
  199DOPC  H11X24739   5.891  -0.064   4.035 -0.3614 -0.3499  0.1655
  199DOPC  H11Y24740   5.784   0.041   3.939 -0.4245  1.0928 -0.0746
  199DOPC  C31224741   5.797   0.117   4.137 -0.2606  1.2666  0.2182
  199DOPC  H12X24742   5.712   0.050   4.163  0.5776  0.3943  0.7898
  199DOPC  H12Y24743   5.753   0.214   4.106 -0.2542  0.8037 -1.3276
  199DOPC  C31324744   5.880   0.123   4.268 -0.1020 -0.1412  0.2799
  199DOPC  H13X24745   5.902   0.018   4.299 -0.1398  0.0787  1.0716
  199DOPC  H13Y24746   5.974   0.173   4.237 -0.2139 -0.7842 -1.2257
  199DOPC  C31424747   5.795   0.191   4.375  0.5073 -0.2162 -0.5367
  199DOPC  H14X24748   5.750   0.287   4.341  0.7819 -0.4574 -1.6276
  199DOPC  H14Y24749   5.719   0.120   4.413  1.0194 -0.0592  0.8285
  199DOPC  C31524750   5.864   0.220   4.515  0.0306  0.0720  0.2314
  199DOPC  H15X24751   5.785   0.270   4.575  0.9877  1.0538  0.7042
  199DOPC  H15Y24752   5.945   0.291   4.486 -0.1538 -0.7510 -2.5334
  199DOPC  C31624753   5.919   0.094   4.587 -0.2519 -0.0200  0.3911
  199DOPC  H16X24754   5.854   0.009   4.558 -1.2962  1.2900 -1.3076
  199DOPC  H16Y24755   6.017   0.063   4.544 -0.6665  0.2925 -0.8452
  199DOPC  C31724756   5.921   0.104   4.735 -0.5746  0.8791  0.7992
  199DOPC  H17X24757   5.817   0.117   4.770 -1.6819 -1.7322 -1.2186
  199DOPC  H17Y24758   5.955   0.004   4.769 -2.3139  0.0551  0.1787
  199DOPC  C31824759   6.007   0.217   4.785 -0.3662  0.1779  0.3913
  199DOPC  H18X24760   6.003   0.216   4.896  1.2350 -2.0859  0.5021
  199DOPC  H18Y24761   6.114   0.214   4.755 -0.5581 -1.2039 -0.2372
  199DOPC  H18Z24762   5.966   0.316   4.755  1.3704  1.3093  1.5856
  200DOPC     N24763   1.636   1.237   2.990 -0.2573 -0.1033  0.5915
  200DOPC   C1224764   1.618   1.095   3.036 -0.9647 -0.5410 -0.0512
  200DOPC  H12A24765   1.702   1.063   3.096  0.5381 -0.7060 -2.1250
  200DOPC  H12B24766   1.622   1.023   2.955  2.0086 -0.0798 -0.4176
  200DOPC   C1324767   1.509   1.295   2.929  0.2155 -0.2547  0.3261
  200DOPC  H13A24768   1.485   1.245   2.837 -5.0534  1.4723  0.4478
  200DOPC  H13B24769   1.429   1.274   2.998 -1.3328 -1.4395 -1.6999
  200DOPC  H13C24770   1.514   1.401   2.906 -0.6958  0.0975  1.5880
  200DOPC   C1424771   1.759   1.248   2.900  0.3161  0.7462 -0.7608
  200DOPC  H14A24772   1.779   1.349   2.867 -0.0946  1.5697  1.3645
  200DOPC  H14B24773   1.847   1.218   2.954 -0.5463 -0.6812 -0.1055
  200DOPC  H14C24774   1.740   1.185   2.814  1.3488 -0.9165  0.2006
  200DOPC   C1524775   1.673   1.318   3.113 -0.4321 -0.3248  0.7245
  200DOPC  H15A24776   1.687   1.421   3.085 -1.6871  0.0841  1.5362
  200DOPC  H15B24777   1.766   1.280   3.154  0.4227  0.5333 -0.3380
  200DOPC  H15C24778   1.603   1.309   3.195  0.0644  0.2409  1.2182
  200DOPC   C1124779   1.495   1.062   3.135  0.1420  0.0693  0.3489
  200DOPC  H11A24780   1.406   1.084   3.072  2.5965  1.3790 -3.0208
  200DOPC  H11B24781   1.500   0.951   3.148  2.7465  0.2583  1.6141
  200DOPC     P24782   1.386   1.191   3.323  0.1761  0.0094  0.7577
  200DOPC   O1324783   1.265   1.122   3.277 -0.0474 -0.6660  0.6257
  200DOPC   O1424784   1.394   1.328   3.290 -0.3786 -0.5082  0.0151
  200DOPC   O1224785   1.509   1.116   3.264  0.1452  0.4351 -0.3234
  200DOPC   O1124786   1.408   1.179   3.477 -0.1232 -0.1059  0.2267
  200DOPC    C124787   1.320   1.091   3.552 -0.0892 -0.3005 -0.0973
  200DOPC    HA24788   1.365   1.086   3.653  0.0911  1.9204 -0.0185
  200DOPC    HB24789   1.307   0.985   3.521  2.1007 -0.7880  0.5083
  200DOPC    C224790   1.182   1.150   3.585 -0.1887 -0.1507 -0.1457
  200DOPC    HS24791   1.111   1.132   3.502 -0.7794 -0.6059  0.4518
  200DOPC   O2124792   1.211   1.288   3.614 -0.1975 -0.4123 -0.2260
  200DOPC   C2124793   1.140   1.376   3.554 -0.1684 -0.0667  0.3131
  200DOPC   O2224794   1.047   1.359   3.481 -0.0356 -0.9956 -0.3580
  200DOPC   C2224795   1.185   1.509   3.597 -0.0567 -0.4729  0.1046
  200DOPC   H2R24796   1.152   1.584   3.522 -2.0097  0.0624  1.4347
  200DOPC   H2S24797   1.296   1.509   3.593  0.0205  1.3791  1.3504
  200DOPC    C324798   1.110   1.078   3.705  0.2281  0.3927  0.5959
  200DOPC    HX24799   1.013   1.127   3.731 -1.0496 -1.8295  0.2194
  200DOPC    HY24800   1.168   1.086   3.799  1.1374  1.8695 -0.0562
  200DOPC   O3124801   1.071   0.945   3.671 -0.3802  0.3570 -0.4036
  200DOPC   C3124802   1.147   0.842   3.707 -0.7870 -0.2066 -0.3616
  200DOPC   O3224803   1.252   0.849   3.766 -0.3878 -0.0174 -0.0339
  200DOPC   C3224804   1.076   0.712   3.661  0.2573 -0.3388  0.0548
  200DOPC   H2X24805   0.976   0.730   3.616 -0.6830 -0.0563  2.1196
  200DOPC   H2Y24806   1.144   0.684   3.578 -0.6122  2.4544 -1.7237
  200DOPC   C2324807   1.145   1.540   3.741 -0.4412 -0.3390 -0.1242
  200DOPC   H3R24808   1.195   1.470   3.811  0.0991 -1.7565 -1.8654
  200DOPC   H3S24809   1.036   1.523   3.755 -0.2653 -1.2864  0.1242
  200DOPC   C2424810   1.191   1.688   3.768  0.5856 -0.0951  0.1826
  200DOPC   H4R24811   1.117   1.750   3.713 -0.7039 -0.6143  1.2793
  200DOPC   H4S24812   1.292   1.700   3.724  0.3785 -3.9944 -1.7318
  200DOPC   C2524813   1.193   1.707   3.918  0.2569  0.4341  0.5715
  200DOPC   H5R24814   1.260   1.627   3.958 -1.2941 -0.1215  2.1949
  200DOPC   H5S24815   1.094   1.685   3.963  0.1535  0.1212  0.1924
  200DOPC   C2624816   1.231   1.850   3.964 -0.2828 -0.3997 -0.7373
  200DOPC   H6R24817   1.160   1.928   3.932 -1.2941  0.6824  3.5095
  200DOPC   H6S24818   1.327   1.876   3.914  0.7458 -0.4263  1.1124
  200DOPC   C2724819   1.230   1.854   4.115  0.1670 -0.6335  0.1933
  200DOPC   H7R24820   1.273   1.756   4.143  1.0258 -0.6114 -0.9692
  200DOPC   H7S24821   1.129   1.863   4.162  0.7985  0.6042  1.4007
  200DOPC   C2824822   1.315   1.970   4.175 -0.6689  0.0492 -0.3914
  200DOPC   H8R24823   1.420   1.934   4.163 -0.8245 -0.1786 -1.1274
  200DOPC   H8S24824   1.290   1.972   4.284 -2.4507 -0.3262 -0.7582
  200DOPC   C2924825   1.296   2.105   4.125 -0.0412 -0.8146 -0.6185
  200DOPC   H9R24826   1.298   2.109   4.015 -1.7023  0.7331 -0.6173
  200DOPC  C21024827   1.274   2.223   4.192 -0.4214 -0.0270  0.3738
  200DOPC  H10R24828   1.271   2.318   4.136  1.2843 -0.9556 -1.4259
  200DOPC  C21124829   1.262   2.229   4.345  0.2420  0.5791 -0.3661
  200DOPC  H11R24830   1.309   2.322   4.384  1.2728 -1.3710  3.5912
  200DOPC  H11S24831   1.315   2.154   4.406  0.3125  0.4307 -0.6091
  200DOPC  C21224832   1.111   2.232   4.386 -0.1678  0.5752  0.4470
  200DOPC  H12R24833   1.061   2.143   4.342  0.3564  0.5190 -0.0472
  200DOPC  H12S24834   1.054   2.315   4.339  0.2963  0.2452 -0.7437
  200DOPC  C21324835   1.101   2.233   4.542 -0.3570 -0.1741  0.2886
  200DOPC  H13R24836   1.159   2.323   4.573 -1.1875  0.8776 -1.1349
  200DOPC  H13S24837   1.148   2.144   4.590 -0.9387 -0.1996  0.8096
  200DOPC  C21424838   0.962   2.256   4.597 -0.3296  0.1558  0.1360
  200DOPC  H14R24839   0.920   2.157   4.628 -0.8057  0.5979  0.9409
  200DOPC  H14S24840   0.902   2.289   4.510 -0.1035  1.9312  0.6088
  200DOPC  C21524841   0.950   2.343   4.723 -0.1021 -0.6471  0.1208
  200DOPC  H15R24842   1.023   2.307   4.799  1.2387 -0.1171 -0.8770
  200DOPC  H15S24843   0.848   2.330   4.766  0.3006 -2.1978  0.6618
  200DOPC  C21624844   0.967   2.492   4.698  0.2118 -0.0085 -0.5529
  200DOPC  H16R24845   0.914   2.513   4.602 -1.1503 -0.9468 -0.0354
  200DOPC  H16S24846   1.075   2.505   4.679  0.2743  0.0250 -0.1692
  200DOPC  C21724847   0.907   2.583   4.807 -0.4462 -0.0718  0.8751
  200DOPC  H17R24848   0.967   2.559   4.897  0.0656  0.8138  0.7785
  200DOPC  H17S24849   0.803   2.549   4.826  0.1169 -2.3474  0.1902
  200DOPC  C21824850   0.913   2.736   4.785 -0.1380 -0.0334  0.0157
  200DOPC  H18R24851   1.017   2.774   4.777 -0.4290  1.1973  1.6255
  200DOPC  H18S24852   0.860   2.793   4.864  1.5346  1.4459  0.1277
  200DOPC  H18T24853   0.866   2.746   4.684  1.5455 -0.9816 -0.9118
  200DOPC   C3324854   1.061   0.609   3.772  0.7651  0.8391  0.2671
  200DOPC   H3X24855   1.035   0.647   3.873  0.2690 -0.4511  0.6443
  200DOPC   H3Y24856   1.163   0.567   3.790  0.5666 -1.9248 -3.6479
  200DOPC   C3424857   0.973   0.490   3.735  0.5661 -0.0252 -0.2531
  200DOPC   H4X24858   1.003   0.433   3.825  1.6485  1.2064  0.1948
  200DOPC   H4Y24859   1.002   0.426   3.649 -1.5841 -0.9422 -0.3522
  200DOPC   C3524860   0.819   0.515   3.746 -0.7978 -0.3780  0.0645
  200DOPC   H5X24861   0.777   0.415   3.721  0.4947 -0.8726 -0.2265
  200DOPC   H5Y24862   0.790   0.576   3.657  1.8439 -0.2757 -0.8347
  200DOPC   C3624863   0.777   0.573   3.877 -0.7552 -0.5950  0.4267
  200DOPC   H6X24864   0.815   0.502   3.953  2.4861 -0.6737 -1.0888
  200DOPC   H6Y24865   0.816   0.677   3.889 -0.0059 -1.0658  2.2910
  200DOPC   C3724866   0.626   0.556   3.894 -0.3106 -0.1834 -0.0195
  200DOPC   H7X24867   0.567   0.606   3.814  1.1807 -0.4190 -1.3083
  200DOPC   H7Y24868   0.594   0.450   3.883 -1.0648  0.0881 -0.4674
  200DOPC   C3824869   0.579   0.623   4.033  0.2312  0.3584  0.4337
  200DOPC   H8X24870   0.627   0.723   4.036 -0.4935  0.7118  0.4384
  200DOPC   H8Y24871   0.603   0.567   4.126  1.8132 -0.7445 -0.5883
  200DOPC   C3924872   0.429   0.630   4.031  0.4675  0.2006 -0.2499
  200DOPC   H9X24873   0.379   0.562   3.961 -0.3658 -1.4457  1.8109
  200DOPC  C31024874   0.361   0.721   4.094 -0.4255 -0.1594 -0.3018
  200DOPC  H10X24875   0.252   0.718   4.079 -0.1174 -2.9229 -3.0780
  200DOPC  C31124876   0.424   0.839   4.173 -0.7408  0.2833  0.2255
  200DOPC  H11X24877   0.413   0.928   4.107 -0.7667 -1.7950 -2.7773
  200DOPC  H11Y24878   0.531   0.835   4.202  0.2046  2.2575 -2.5689
  200DOPC  C31224879   0.350   0.883   4.307 -0.8980  0.3353  0.2329
  200DOPC  H12X24880   0.366   0.806   4.386 -0.3076  0.3294  0.1154
  200DOPC  H12Y24881   0.241   0.880   4.287 -1.2558 -0.6902  2.0861
  200DOPC  C31324882   0.400   1.021   4.360  0.0163 -0.4873 -0.1847
  200DOPC  H13X24883   0.509   1.032   4.381 -0.2260 -1.2463  1.7056
  200DOPC  H13Y24884   0.379   1.093   4.279 -0.5149 -1.1343 -0.6288
  200DOPC  C31424885   0.329   1.060   4.490  0.3833  0.5818 -0.4447
  200DOPC  H14X24886   0.222   1.068   4.460  0.4764  1.5177 -0.5434
  200DOPC  H14Y24887   0.344   0.978   4.564  0.0485  1.5469  0.7192
  200DOPC  C31524888   0.364   1.190   4.558 -0.3194 -0.3392 -0.2107
  200DOPC  H15X24889   0.344   1.265   4.479  0.8585 -1.0166 -1.1828
  200DOPC  H15Y24890   0.470   1.193   4.591 -0.4913  1.1857  0.2708
  200DOPC  C31624891   0.285   1.211   4.690 -0.0437  0.4119  0.3478
  200DOPC  H16X24892   0.177   1.203   4.667 -0.0741  0.4307  0.4848
  200DOPC  H16Y24893   0.314   1.127   4.757  0.7992  0.8710  0.5782
  200DOPC  C31724894   0.320   1.344   4.766  0.4810  0.0875 -0.0138
  200DOPC  H17X24895   0.412   1.319   4.821  1.0580 -1.1100 -1.4676
  200DOPC  H17Y24896   0.340   1.427   4.695  0.8230 -0.7321 -0.8888
  200DOPC  C31824897   0.212   1.393   4.866 -0.0226 -0.1208 -0.7365
  200DOPC  H18X24898   0.155   1.299   4.886 -1.6963  1.3406  1.8855
  200DOPC  H18Y24899   0.258   1.453   4.946  0.4514  2.6987 -2.9494
  200DOPC  H18Z24900   0.143   1.462   4.812 -0.0603  1.7277  1.5353
  201SOD    SOD24901   6.492   5.922   7.314 -0.3604  0.1372  0.4335
  202SOD    SOD24902   3.143   6.592   2.984  0.3820  0.0510 -0.4944
  203SOD    SOD24903   2.705   3.408   8.742  0.4304 -0.2106 -0.3921
  204SOD    SOD24904   5.754   1.741   1.890  0.6968 -0.1962  0.2832
  205SOD    SOD24905   2.380   4.081   7.534  0.2686 -0.0557  0.5380
  206SOD    SOD24906   4.716   2.484   2.301 -0.2457 -0.1184  0.1220
  207SOD    SOD24907   0.715   3.134   3.099 -0.1856  0.6186  0.0898
  208SOD    SOD24908   4.075   0.951   7.934 -0.6042  0.0564  0.1114
  209SOD    SOD24909   6.289   4.355   1.601  0.2364 -0.3036  0.0382
  210SOD    SOD24910   1.020   2.420   7.021  0.6931  0.4989  0.3921
  211SOD    SOD24911   5.834   5.815   8.485  0.0111 -0.0401 -0.5246
  212SOD    SOD24912   6.674   0.678   8.842 -0.1091 -0.2473  0.1531
  213SOD    SOD24913   1.744   3.760   2.587  0.0806 -0.2800  0.2585
  214SOD    SOD24914   1.315   4.795   9.425  0.2727  0.0547  0.1551
  215SOD    SOD24915   6.682   4.095   9.236  0.5638 -1.0806 -0.1048
  216SOD    SOD24916   4.119   4.158   8.006 -0.0076 -0.1144 -0.2781
  217SOD    SOD24917   4.149   5.539   0.944  0.5031 -0.0718  0.2421
  218SOD    SOD24918   5.823   4.955   9.168  0.2276  0.1978 -0.1457
  219SOD    SOD24919   6.706   6.779   8.308 -0.0764 -0.2353  0.2728
  220SOD    SOD24920   3.814   6.849   2.737  0.1128 -0.4486  0.2551
  221SOD    SOD24921   1.616   1.032   3.471 -0.1923 -0.4067 -0.7778
  222SOD    SOD24922   3.045   0.246   7.427  0.1013 -0.1161  0.2727
  223SOD    SOD24923   2.833   1.732   2.757  0.0960 -0.3624  0.1632
  224SOD    SOD24924   1.480   5.420   1.487 -0.2908 -0.0683 -0.2098
  225SOD    SOD24925   7.497   6.687   2.769 -0.0765 -0.0522  0.3065
  226SOD    SOD24926   1.494   2.416   7.338  0.5480  0.1563 -0.0677
  227CLA    CLA24927   0.085   3.579   0.845  0.2670 -0.0835  0.1654
  228CLA    CLA24928   6.720   4.409   1.762 -0.2148 -0.0831  0.4112
  229CLA    CLA24929   1.727   6.870   2.469  0.0214  0.0816  0.4149
  230CLA    CLA24930   4.718   4.103   9.222  0.1318 -0.0178  0.0318
  231CLA    CLA24931   4.387   3.185   8.945  0.0779 -0.3964  0.0167
  232CLA    CLA24932   6.356   6.511   8.408 -0.1907 -0.1383 -0.0022
  233CLA    CLA24933   7.123   4.919   8.524 -0.1247  0.0340 -0.2956
  234CLA    CLA24934   3.168   2.096   8.011  0.1318  0.0134  0.1490
  235CLA    CLA24935   2.007   1.613   2.583  0.4869 -0.2965 -0.1135
  236CLA    CLA24936   3.336   6.258   7.674 -0.6035 -0.2340 -0.4090
  237CLA    CLA24937   6.630   1.479   8.178  0.1676  0.3402  0.2698
  238CLA    CLA24938   7.167   0.912   2.192 -0.0710 -0.2373  0.0348
  239CLA    CLA24939   1.337   4.532   1.001 -0.6725  0.0035 -0.3293
  240CLA    CLA24940   6.931   2.216   9.246  0.0323  0.0582 -0.2152
  241CLA    CLA24941   2.205   0.863   2.122 -0.3618 -0.0408  0.0923
  242CLA    CLA24942   3.372   5.563   8.080 -0.4317  0.1998 -0.1702
  243CLA    CLA24943   4.645   7.151   1.039 -0.1186 -0.0582  0.2476
  244CLA    CLA24944   2.578   6.659   0.773 -0.3729  0.1754 -0.0532
  245CLA    CLA24945   0.704   3.628   2.063  0.0956 -0.0823 -0.1529
  246CLA    CLA24946   3.575   5.874   9.284 -0.2578 -0.2194  0.1951
  247CLA    CLA24947   3.348   6.176   1.580  0.3301 -0.0526  0.0504
  248CLA    CLA24948   2.340   2.778   2.487  0.3468  0.4798 -0.2281
  249CLA    CLA24949   2.976   2.246   2.706  0.3213  0.3512  0.3784
  250CLA    CLA24950   6.065   4.028   9.446  0.0382 -0.2593  0.4072
  251CLA    CLA24951   3.919   7.211   8.422  0.0473  0.4275 -0.2462
  252CLA    CLA24952   5.542   0.666   1.702 -0.1385 -0.4857  0.0422
  253TIP3   OH224953   3.628   2.038   8.629 -1.1228  0.0458  0.2613
  253TIP3    H124954   3.556   1.977   8.618 -1.1389 -0.3947  2.4214
  253TIP3    H224955   3.632   2.086   8.546 -1.5425 -2.3876 -1.2654
  254TIP3   OH224956   2.681   2.287   8.554 -0.2210  0.1211 -0.3510
  254TIP3    H124957   2.592   2.323   8.549  0.2191  1.4817  0.9834
  254TIP3    H224958   2.727   2.344   8.616  1.4257 -0.9095 -0.5613
  255TIP3   OH224959   4.387   5.704   9.614 -0.0326 -0.7497  0.2605
  255TIP3    H124960   4.375   5.729   9.523  2.6024 -1.4819 -0.3635
  255TIP3    H224961   4.316   5.750   9.661  0.0052  1.6389 -1.7998
  256TIP3   OH224962   6.611   2.345   7.978  0.2223 -0.0149 -0.3880
  256TIP3    H124963   6.589   2.386   8.061  2.4426  0.2806  0.1126
  256TIP3    H224964   6.535   2.291   7.957 -1.8420  2.4893  0.0905
  257TIP3   OH224965   3.600   0.281   7.454  0.5867 -0.0548  0.6340
  257TIP3    H124966   3.561   0.194   7.462  1.5437 -0.3978  1.9762
  257TIP3    H224967   3.586   0.305   7.362 -0.7903 -1.0746  0.5399
  258TIP3   OH224968   5.109   1.683   8.645  0.1301  0.1334  0.1178
  258TIP3    H124969   5.131   1.718   8.559  1.7037 -0.6589  0.1622
  258TIP3    H224970   5.092   1.760   8.700  1.7143  0.7682 -0.2426
  259TIP3   OH224971   3.872   6.609   9.590 -0.2231 -0.0751 -0.5121
  259TIP3    H124972   3.822   6.690   9.579  0.4749  0.3404 -0.7153
  259TIP3    H224973   3.806   6.541   9.605 -0.8031  0.5890 -0.0023
  260TIP3   OH224974   5.309   7.210   7.685 -0.0758  0.4966 -0.3763
  260TIP3    H124975   5.302   7.226   7.779  2.5257  1.6109 -0.2870
  260TIP3    H224976   5.262   7.282   7.644  0.4480  1.1061  0.0798
  261TIP3   OH224977   1.736   1.674   9.692 -0.7246 -0.3775  0.2064
  261TIP3    H124978   1.709   1.639   9.777 -0.3938  0.3439  0.6133
  261TIP3    H224979   1.680   1.750   9.678 -0.2051  0.0076  0.1786
  262TIP3   OH224980   4.330   6.257   7.607  0.1358 -0.5344 -0.3344
  262TIP3    H124981   4.265   6.326   7.616 -0.7018 -1.3549  0.0219
  262TIP3    H224982   4.412   6.297   7.638 -0.1925  0.4851 -0.7324
  263TIP3   OH224983   6.608   4.949  10.138  0.1196  0.3818 -0.4060
  263TIP3    H124984   6.677   4.943  10.071  1.3126 -0.4549  0.8344
  263TIP3    H224985   6.656   4.960  10.220 -1.2371 -0.1897  0.4908
  264TIP3   OH224986   3.492   1.459   9.372 -0.3494  0.0250 -0.0408
  264TIP3    H124987   3.459   1.475   9.460  1.0714 -0.9234  0.7143
  264TIP3    H224988   3.414   1.447   9.318 -1.2473  1.0782  0.9852
  265TIP3   OH224989   3.796   7.210   8.693  0.0857 -0.3113  0.1231
  265TIP3    H124990   3.814   7.119   8.717 -0.3854 -0.2906  0.5672
  265TIP3    H224991   3.848   7.224   8.614  1.1963 -0.5592  0.7882
  266TIP3   OH224992   5.104   1.528   9.262  0.3269  0.0369 -0.2545
  266TIP3    H124993   5.102   1.437   9.234  0.2172  0.0040 -0.1408
  266TIP3    H224994   5.121   1.578   9.181 -0.6577 -0.0084 -0.5030
  267TIP3   OH224995   6.283   5.394   8.963 -0.4715 -0.7225  0.0220
  267TIP3    H124996   6.352   5.334   8.993  0.1506  0.0651  0.1800
  267TIP3    H224997   6.298   5.402   8.869  2.7472  3.1721  0.6117
  268TIP3   OH224998   1.207   3.773   9.697  0.3098  0.0464 -0.3463
  268TIP3    H124999   1.288   3.723   9.701 -0.0783 -0.5624  0.3794
  268TIP3    H225000   1.213   3.825   9.617  1.4837  0.1411 -0.2073
  269TIP3   OH225001   2.133   3.042   8.098 -0.5331 -0.9793 -0.4330
  269TIP3    H125002   2.141   3.130   8.135 -0.8865 -1.7743  1.6875
  269TIP3    H225003   2.221   3.019   8.071 -0.0836 -0.6499  0.6978
  270TIP3   OH225004   6.572   1.140   9.319 -1.1006 -0.2670  0.3570
  270TIP3    H125005   6.588   1.234   9.311 -3.1340  0.1543  0.5621
  270TIP3    H225006   6.658   1.102   9.338 -0.0113  1.3727 -1.0286
  271TIP3   OH225007   4.770   3.416   9.530 -0.6551 -0.1636  0.3443
  271TIP3    H125008   4.813   3.395   9.613 -0.0586  1.2082  0.4175
  271TIP3    H225009   4.797   3.346   9.471  0.5485 -0.1030  0.7873
  272TIP3   OH225010   0.231   4.141   7.062 -1.0370 -0.0533  0.0060
  272TIP3    H125011   0.315   4.135   7.017 -0.6440 -1.5611  0.8515
  272TIP3    H225012   0.178   4.069   7.025 -2.4910  1.6813 -1.4814
  273TIP3   OH225013   5.526   4.699   7.704  0.4782 -0.9339  0.6296
  273TIP3    H125014   5.537   4.615   7.659  1.4901  0.2530 -1.5230
  273TIP3    H225015   5.615   4.735   7.708 -0.0119  0.2712  1.0161
  274TIP3   OH225016   4.157   3.576   7.548 -0.1550  0.4091  0.6157
  274TIP3    H125017   4.213   3.587   7.471 -0.4030  1.4579  0.5768
  274TIP3    H225018   4.174   3.486   7.577  1.3553  0.6203  0.4600
  275TIP3   OH225019   4.345   5.506   8.294  0.2615 -0.0201 -0.1654
  275TIP3    H125020   4.404   5.577   8.318  0.2830 -0.0501 -0.1299
  275TIP3    H225021   4.399   5.447   8.242  0.7804 -0.9905  1.3988
  276TIP3   OH225022   2.453   6.463   9.165 -0.0376  0.1498  0.2102
  276TIP3    H125023   2.378   6.419   9.206  1.5010 -1.3493  1.5340
  276TIP3    H225024   2.502   6.393   9.122  1.4503  0.8485  0.7188
  277TIP3   OH225025   1.385   4.611   7.676 -0.1427  0.2476  0.6461
  277TIP3    H125026   1.406   4.674   7.608  0.3225  0.3088  0.8430
  277TIP3    H225027   1.370   4.529   7.629  3.4324 -0.5752  0.6298
  278TIP3   OH225028   0.925   6.631   9.603  0.0396 -0.2399 -0.2054
  278TIP3    H125029   0.887   6.664   9.685 -0.1920  1.9562 -1.1451
  278TIP3    H225030   0.971   6.552   9.629 -1.3317 -0.4662  1.7798
  279TIP3   OH225031   1.372   1.657   8.068 -0.0582 -0.5159  0.1117
  279TIP3    H125032   1.444   1.690   8.013 -0.9065 -0.3692 -0.9262
  279TIP3    H225033   1.376   1.562   8.057 -0.3581 -0.4741 -0.3762
  280TIP3   OH225034   4.353   5.443   9.583 -0.5030  0.1165 -0.2181
  280TIP3    H125035   4.415   5.460   9.511 -0.3800 -0.4817 -0.2590
  280TIP3    H225036   4.336   5.529   9.621 -1.0511  0.5303 -1.3563
  281TIP3   OH225037   3.823   5.774   8.906 -0.1763  0.3159 -0.5559
  281TIP3    H125038   3.908   5.788   8.863  0.7219 -0.2586  0.9632
  281TIP3    H225039   3.845   5.734   8.990 -2.0373 -0.9749 -0.6327
  282TIP3   OH225040   0.493   2.459   6.921 -0.3884  0.1584  0.0075
  282TIP3    H125041   0.446   2.526   6.872  0.2844  0.9120  0.3703
  282TIP3    H225042   0.451   2.377   6.896 -0.4720  0.5823 -1.3432
  283TIP3   OH225043   3.447   7.316   9.148  0.4388  0.0764  0.1605
  283TIP3    H125044   3.370   7.310   9.090 -1.0335 -1.1122  2.1143
  283TIP3    H225045   3.522   7.311   9.089 -0.9571  0.7096 -1.7817
  284TIP3   OH225046   4.230   2.907   0.610 -0.1719 -0.5221  0.0164
  284TIP3    H125047   4.253   2.989   0.568  0.3463 -1.2461 -1.1704
  284TIP3    H225048   4.305   2.850   0.593 -1.0164 -1.6017 -0.1898
  285TIP3   OH225049   5.525   1.078   1.885 -0.0203 -0.1767  0.1050
  285TIP3    H125050   5.476   1.077   1.803  1.8959 -0.5374 -1.1134
  285TIP3    H225051   5.502   1.161   1.926  0.7115  1.1347 -1.9485
  286TIP3   OH225052   0.520   4.192   1.242 -0.5082 -0.6334  0.3608
  286TIP3    H125053   0.490   4.103   1.260 -0.8386 -0.5326  0.3151
  286TIP3    H225054   0.457   4.226   1.178 -0.2639 -0.4401  0.2234
  287TIP3   OH225055   1.760   0.174   2.835 -0.0570  0.6559 -0.6759
  287TIP3    H125056   1.804   0.115   2.896 -0.5096 -0.3480 -1.3047
  287TIP3    H225057   1.678   0.130   2.812 -0.8930  1.9807 -0.3931
  288TIP3   OH225058   1.690   7.155   3.644  0.0363 -0.6027  0.0476
  288TIP3    H125059   1.659   7.237   3.683 -0.1175  0.3444 -1.9542
  288TIP3    H225060   1.621   7.131   3.581  0.5410 -1.7725 -0.0917
  289TIP3   OH225061   6.112   7.303   2.242 -0.0118  0.1953  0.2366
  289TIP3    H125062   6.164   7.228   2.269 -0.2035 -0.9209 -2.1903
  289TIP3    H225063   6.051   7.267   2.177 -2.7649  1.7353  1.7806
  290TIP3   OH225064   3.920   1.081   0.850 -0.2801  0.3022  0.3104
  290TIP3    H125065   3.976   1.158   0.838 -1.4676  0.7740 -3.5260
  290TIP3    H225066   3.846   1.112   0.903  0.6077  0.9987  1.1634
  291TIP3   OH225067   3.501   6.519   1.062  0.1212  0.2405 -0.6630
  291TIP3    H125068   3.551   6.590   1.021 -0.9671  2.6446  1.8894
  291TIP3    H225069   3.420   6.515   1.012  0.5826  0.0981 -1.4204
  292TIP3   OH225070   6.556   0.475   2.600 -0.5163 -0.2214  0.0108
  292TIP3    H125071   6.545   0.388   2.560  1.7993 -0.3778 -0.4093
  292TIP3    H225072   6.528   0.536   2.532 -1.5052 -0.5794  0.0670
  293TIP3   OH225073   0.111   0.054   1.275  0.7974 -0.3573  0.3218
  293TIP3    H125074   0.062  -0.028   1.283  0.0076  0.0881  0.2062
  293TIP3    H225075   0.192   0.030   1.230  0.0481 -0.8754 -0.7788
  294TIP3   OH225076   2.691   4.241   0.642 -0.0151  0.0490 -0.1946
  294TIP3    H125077   2.696   4.312   0.578 -2.0582  1.3027  0.9648
  294TIP3    H225078   2.774   4.194   0.631  0.4366  1.2378 -2.5460
  295TIP3   OH225079   2.476   2.355   3.040 -0.3753 -0.1128  0.1042
  295TIP3    H125080   2.527   2.321   3.114  2.9080 -0.2748 -2.0234
  295TIP3    H225081   2.507   2.306   2.964 -4.6661 -1.0156 -1.3527
  296TIP3   OH225082   3.379   2.697   2.017 -0.1078 -0.1581 -0.2023
  296TIP3    H125083   3.336   2.645   1.949 -0.7969  0.4331 -0.2292
  296TIP3    H225084   3.459   2.730   1.976  0.2123 -0.9850 -0.2613
  297TIP3   OH225085   4.093   4.489   3.643 -0.0696  0.5275 -0.1872
  297TIP3    H125086   4.139   4.440   3.575 -2.6421 -1.2228 -0.8019
  297TIP3    H225087   4.056   4.564   3.598 -1.6540 -0.5574 -0.7765
  298TIP3   OH225088   3.477   0.273   2.787 -0.0910  0.0834 -0.3483
  298TIP3    H125089   3.425   0.196   2.809  1.5314 -1.0282 -0.2216
  298TIP3    H225090   3.556   0.264   2.839 -0.1182  2.1972  0.1435
  299TIP3   OH225091   4.390   5.713   1.734 -0.0192  0.3786  0.2061
  299TIP3    H125092   4.369   5.742   1.646  0.0229  0.3668  0.1920
  299TIP3    H225093   4.306   5.690   1.773 -0.0940  0.8915  0.3498
  300TIP3   OH225094   5.037   0.252   1.792 -1.1628  0.0481  0.0182
  300TIP3    H125095   5.108   0.195   1.822 -1.5524 -0.0313  0.8081
  300TIP3    H225096   5.074   0.298   1.716 -0.7164 -0.9686 -0.4001
  301TIP3   OH225097   2.927   0.570   2.580 -0.0754  0.2622  0.7895
  301TIP3    H125098   2.861   0.616   2.631  0.4651 -0.3389  2.0711
  301TIP3    H225099   2.977   0.520   2.645  0.7361 -0.3991 -0.3146
  302TIP3   OH225100   5.662   7.482   0.727  0.3258 -0.3207  0.5046
  302TIP3    H125101   5.724   7.411   0.745 -0.5626 -1.3230 -0.3126
  302TIP3    H225102   5.633   7.467   0.638 -2.7318 -1.1607  1.5225
  303TIP3   OH225103   6.287   4.541   0.878  0.5637 -0.1650 -0.7543
  303TIP3    H125104   6.361   4.557   0.820  0.1428  1.8709 -0.7949
  303TIP3    H225105   6.245   4.626   0.888 -2.3030 -1.3808 -1.4320
  304TIP3   OH225106   5.746   0.279   1.769  0.2591 -0.5704 -0.7253
  304TIP3    H125107   5.809   0.275   1.698  0.7514 -2.0812 -0.2390
  304TIP3    H225108   5.660   0.277   1.726  0.5270 -3.0399 -1.2903
  305TIP3   OH225109   5.142   2.025   0.751  0.0562 -0.2598 -0.1019
  305TIP3    H125110   5.120   1.995   0.839 -0.9972  1.2394  0.1895
  305TIP3    H225111   5.057   2.043   0.710  0.5744  0.2730 -0.9744
  306TIP3   OH225112   2.662   4.400   1.123  0.5756  0.5073 -0.1832
  306TIP3    H125113   2.678   4.384   1.031 -0.2692 -0.2055 -0.2160
  306TIP3    H225114   2.730   4.350   1.169 -0.7969 -1.6125 -0.3446
  307TIP3   OH225115   5.292   5.987   2.231  0.4617 -0.2121  0.2897
  307TIP3    H125116   5.338   5.920   2.280 -0.6295 -2.2224 -1.2801
  307TIP3    H225117   5.313   5.968   2.139 -0.6158  1.0219 -0.2427
  308TIP3   OH225118   6.603   6.354   0.521  0.0527  0.0651  0.1369
  308TIP3    H125119   6.631   6.408   0.447 -0.0282  0.5639  0.4630
  308TIP3    H225120   6.647   6.270   0.508  0.2962  0.2591 -0.3039
  309TIP3   OH225121   3.008   3.036   3.245 -0.1542  0.1727 -0.1885
  309TIP3    H125122   2.977   3.038   3.154  1.3852  1.2015 -0.7522
  309TIP3    H225123   3.082   2.974   3.243  0.0193  0.3605  0.3017
  310TIP3   OH225124   5.599   3.553   2.335 -0.4106  0.0642 -0.2441
  310TIP3    H125125   5.555   3.481   2.288  0.1140 -1.1522  1.0531
  310TIP3    H225126   5.563   3.632   2.295 -2.6761 -0.8787 -0.2768
  311TIP3   OH225127   2.548   0.644   0.895 -0.0359  0.0115  0.4783
  311TIP3    H125128   2.634   0.685   0.885  1.0369 -2.4026 -1.4685
  311TIP3    H225129   2.540   0.627   0.989  0.7356  1.9754  0.9343
  312TIP3   OH225130   3.732   6.574   1.280  0.0310  0.2254 -0.1693
  312TIP3    H125131   3.793   6.569   1.206 -0.4303  1.4631 -0.6562
  312TIP3    H225132   3.646   6.560   1.240 -0.0576 -1.2405  0.4731
  313TIP3   OH225133   4.783   4.156   2.950 -0.0649  0.1043 -0.1451
  313TIP3    H125134   4.831   4.128   2.871 -0.1247 -1.9368  0.4866
  313TIP3    H225135   4.746   4.075   2.985  0.2794  0.8889  2.2115
  314TIP3   OH225136   0.184   3.658   2.320  0.2833 -0.3223  0.1026
  314TIP3    H125137   0.205   3.613   2.238  1.3999  0.9128 -0.3086
  314TIP3    H225138   0.258   3.640   2.377  0.6647  0.8174 -0.0072
  315TIP3   OH225139   0.407   1.937   1.734 -0.5165 -0.1157  0.0813
  315TIP3    H125140   0.427   1.887   1.813  0.0163  1.9812  1.3741
  315TIP3    H225141   0.314   1.921   1.718 -0.6973 -0.3944  1.2993
  316TIP3   OH225142   6.723   2.756   1.224  1.2291 -0.1188  0.1411
  316TIP3    H125143   6.634   2.761   1.192  1.4904 -0.6544 -0.7136
  316TIP3    H225144   6.777   2.786   1.151  1.9069 -2.4376 -0.3851
  317TIP3   OH225145   5.132   4.202   2.976 -0.2812 -0.1552  0.4284
  317TIP3    H125146   5.221   4.179   2.949 -0.2387  0.1320  0.3151
  317TIP3    H225147   5.120   4.292   2.944 -1.2717 -0.8241 -1.1798
  318TIP3   OH225148   0.410   3.708   2.053 -1.0535  0.5429 -0.5949
  318TIP3    H125149   0.379   3.642   2.114 -0.5397  1.4939  0.7482
  318TIP3    H225150   0.496   3.676   2.025 -0.1598  1.2797  1.1606
  319TIP3   OH225151   2.722   3.519   1.353  0.1675  0.1989 -0.0186
  319TIP3    H125152   2.667   3.597   1.340  2.4623  1.4930 -3.6938
  319TIP3    H225153   2.705   3.465   1.275  0.6873 -1.6894  1.1090
  320TIP3   OH225154   5.388   5.107   1.934  0.1694  0.0574 -0.2765
  320TIP3    H125155   5.359   5.039   1.873 -0.1006  0.6264 -0.8011
  320TIP3    H225156   5.314   5.168   1.939  0.0894 -0.1119  0.8305
  321TIP3   OH225157   6.830   5.588   0.558 -0.2037 -0.3210  0.3872
  321TIP3    H125158   6.826   5.541   0.475 -1.2039 -0.7902  0.6909
  321TIP3    H225159   6.746   5.634   0.565  0.5363  1.1090  0.3438
  322TIP3   OH225160   2.197   0.238   1.836  0.2138  0.2356 -0.1635
  322TIP3    H125161   2.181   0.264   1.926 -0.3393 -3.0733  0.8088
  322TIP3    H225162   2.114   0.255   1.791 -0.1446  0.0680  0.4288
  323TIP3   OH225163   5.240   3.928   8.259  0.1513 -0.0469 -0.4592
  323TIP3    H125164   5.232   3.897   8.349 -0.0670 -1.3092 -0.8916
  323TIP3    H225165   5.292   3.860   8.215 -0.8306 -0.1058 -1.5797
  324TIP3   OH225166   0.939   3.097   9.043  0.0438 -0.1287  0.3156
  324TIP3    H125167   0.948   3.018   8.991 -2.5839  0.6132 -1.4669
  324TIP3    H225168   0.850   3.093   9.079 -0.1802  1.9801  0.1623
  325TIP3   OH225169   0.645   3.586   9.839  0.3795  0.2247  0.2175
  325TIP3    H125170   0.709   3.522   9.868  0.2841  0.3062  0.6060
  325TIP3    H225171   0.684   3.671   9.860 -0.0361  0.2684  0.8431
  326TIP3   OH225172   2.453   5.057   7.797  0.0504 -1.0162  0.2069
  326TIP3    H125173   2.491   5.098   7.720  0.2901  1.2076  1.4461
  326TIP3    H225174   2.390   5.121   7.831  0.3980 -1.6551  2.1900
  327TIP3   OH225175   3.171   6.671   7.164  0.3957 -0.8736  0.5788
  327TIP3    H125176   3.182   6.727   7.241  2.7746 -0.3626 -0.0674
  327TIP3    H225177   3.256   6.671   7.121  0.4427 -4.6259  0.2642
  328TIP3   OH225178   6.022   5.292   7.224  0.3488  0.4907 -0.1853
  328TIP3    H125179   5.962   5.291   7.298 -0.5345 -1.0684 -0.8698
  328TIP3    H225180   6.079   5.367   7.240  0.3378  0.0594  2.1832
  329TIP3   OH225181   3.682   0.214   6.747 -0.6514 -0.5863 -0.0792
  329TIP3    H125182   3.587   0.217   6.762 -1.3758 -0.6952 -3.7261
  329TIP3    H225183   3.719   0.206   6.834 -3.9011  1.0371  1.6689
  330TIP3   OH225184   0.729   1.652   8.471  0.0880  0.1721  0.9489
  330TIP3    H125185   0.640   1.677   8.496 -0.3420 -0.9957  0.6488
  330TIP3    H225186   0.768   1.619   8.552 -0.5434 -1.4719  0.6197
  331TIP3   OH225187   3.826   1.883   8.097 -0.1245  0.4736 -0.4676
  331TIP3    H125188   3.796   1.812   8.154 -0.9504  1.9113  0.9596
  331TIP3    H225189   3.922   1.877   8.100 -0.1775 -0.9809 -0.9336
  332TIP3   OH225190   5.779   2.706   8.437  0.0088  0.0335 -0.7544
  332TIP3    H125191   5.806   2.631   8.383  1.6053  0.3074 -0.3781
  332TIP3    H225192   5.694   2.681   8.472 -0.3963 -0.7675 -2.2179
  333TIP3   OH225193   5.231   0.538   7.873 -0.7123  0.3287  0.3114
  333TIP3    H125194   5.216   0.587   7.792 -0.7244 -1.9067 -1.1336
  333TIP3    H225195   5.145   0.503   7.896 -0.5250  0.1717  0.7879
  334TIP3   OH225196   1.093   1.285   7.968  0.0099 -0.6994  0.4060
  334TIP3    H125197   1.039   1.281   8.047 -2.3668  0.2378 -1.0630
  334TIP3    H225198   1.123   1.195   7.955 -1.0703 -1.2316  1.3870
  335TIP3   OH225199   2.220   2.271   7.688  0.2903 -0.4194 -0.4360
  335TIP3    H125200   2.187   2.212   7.755 -0.1946  0.8416  0.4659
  335TIP3    H225201   2.297   2.312   7.728 -0.9197  1.5288  0.0099
  336TIP3   OH225202   6.864   1.430   7.483  0.4284 -0.1396 -0.5026
  336TIP3    H125203   6.810   1.393   7.413 -0.1733  0.4963 -0.3824
  336TIP3    H225204   6.863   1.364   7.552 -0.9242  0.2338 -0.1486
  337TIP3   OH225205   1.008   6.080   9.739 -0.5950  0.1522 -0.5227
  337TIP3    H125206   1.024   6.012   9.673  0.1718 -1.1818  0.9897
  337TIP3    H225207   1.095   6.107   9.767 -0.8868 -0.8005  1.4209
  338TIP3   OH225208   3.032   3.849   9.894 -0.5067 -0.3311 -0.0768
  338TIP3    H125209   3.083   3.928   9.915  0.0469 -0.1944 -1.7704
  338TIP3    H225210   2.942   3.880   9.886 -1.0305 -0.6368  3.3115
  339TIP3   OH225211   1.100   4.484   9.422  0.2528 -0.1961 -0.1940
  339TIP3    H125212   1.138   4.546   9.485 -1.1416  0.6526 -0.1290
  339TIP3    H225213   1.027   4.533   9.382  0.1268 -1.2596 -1.3242
  340TIP3   OH225214   4.135   4.192   9.574 -0.1900  0.3929  0.4969
  340TIP3    H125215   4.041   4.178   9.587 -0.3524  0.7858 -0.2350
  340TIP3    H225216   4.163   4.116   9.523 -0.2148  0.5225  0.2866
  341TIP3   OH225217   3.229   5.560   7.746 -0.2774 -0.0037 -0.4192
  341TIP3    H125218   3.242   5.541   7.653 -0.2144 -0.6956 -0.2750
  341TIP3    H225219   3.317   5.576   7.780 -0.2460 -0.2703 -0.3720
  342TIP3   OH225220   3.093   0.554   8.223 -0.5601 -0.5843 -0.0013
  342TIP3    H125221   3.141   0.478   8.256 -0.0450 -1.3361 -2.2871
  342TIP3    H225222   3.147   0.629   8.248 -0.3637 -1.0528  1.0562
  343TIP3   OH225223   4.728   2.282   8.319  0.4247  0.1108 -0.5537
  343TIP3    H125224   4.689   2.366   8.344  0.1404  0.3843 -1.8356
  343TIP3    H225225   4.819   2.288   8.349  0.4211  0.8987 -0.6777
  344TIP3   OH225226   1.963   6.353   8.369  0.1431 -0.0139 -0.4960
  344TIP3    H125227   2.011   6.285   8.415 -0.9174 -0.7174 -0.3922
  344TIP3    H225228   1.936   6.312   8.287 -0.5028  0.2762 -0.4351
  345TIP3   OH225229   3.058   0.982   7.729 -0.7881  0.6890 -0.1010
  345TIP3    H125230   3.140   0.968   7.776 -1.8175 -0.2353  1.5055
  345TIP3    H225231   3.084   1.021   7.646  1.2043  1.2486  0.7363
  346TIP3   OH225232   5.512   5.920   9.048  0.3219  0.3704 -0.1784
  346TIP3    H125233   5.500   6.004   9.092  0.5512  0.0536  0.5158
  346TIP3    H225234   5.597   5.926   9.005  0.3444  0.4963 -0.1171
  347TIP3   OH225235   1.268   0.399   9.281 -0.2868  0.1104  0.5478
  347TIP3    H125236   1.229   0.428   9.363 -0.9391 -2.6865  1.3322
  347TIP3    H225237   1.196   0.361   9.231  0.7821 -2.2919  0.6723
  348TIP3   OH225238   5.828   6.491   8.392 -0.3410  0.1537  0.0650
  348TIP3    H125239   5.902   6.535   8.351 -0.7462  1.4003  0.6243
  348TIP3    H225240   5.851   6.398   8.390  0.5689  0.3825 -1.0826
  349TIP3   OH225241   5.280   6.783   8.860  0.0103 -0.3156 -0.2375
  349TIP3    H125242   5.248   6.777   8.770 -0.8966  0.7635 -0.0058
  349TIP3    H225243   5.342   6.856   8.859 -0.4214  0.0627  0.1200
  350TIP3   OH225244   7.077   2.490   9.122 -0.1986  0.3000  0.0735
  350TIP3    H125245   6.992   2.496   9.078  0.2764 -0.0887 -0.9366
  350TIP3    H225246   7.069   2.412   9.177 -0.3940  0.0722 -0.2701
  351TIP3   OH225247   4.511   4.350   7.503  0.3240  0.0936  0.0846
  351TIP3    H125248   4.589   4.390   7.464  0.9929 -1.6868 -0.5140
  351TIP3    H225249   4.468   4.306   7.429 -0.7256  0.2336  0.5961
  352TIP3   OH225250   3.945   4.963   9.019 -0.2329  0.0672 -0.2631
  352TIP3    H125251   4.017   4.903   8.996 -0.1236 -0.1836  0.7049
  352TIP3    H225252   3.986   5.050   9.020  0.0737 -0.0812  0.3359
  353TIP3   OH225253   6.274   4.539   7.124  0.2797  0.2261  0.8035
  353TIP3    H125254   6.246   4.615   7.073 -0.4832 -0.9768 -0.6330
  353TIP3    H225255   6.369   4.542   7.121  0.2560  0.0755 -0.9096
  354TIP3   OH225256   0.544   3.999   7.725  0.0248  0.1620 -0.0762
  354TIP3    H125257   0.549   4.083   7.772 -2.2554  0.6697 -0.6094
  354TIP3    H225258   0.604   4.009   7.651  0.2700  1.0742  0.2343
  355TIP3   OH225259   2.795   5.614   7.806  0.4729  0.5951 -0.2226
  355TIP3    H125260   2.746   5.664   7.872  2.7746 -0.4143  2.4194
  355TIP3    H225261   2.887   5.627   7.830  1.3214 -1.2850 -2.1995
  356TIP3   OH225262   4.807   4.679   8.035  0.0794 -0.5717  0.1638
  356TIP3    H125263   4.883   4.693   7.978  0.9347 -2.8939  0.6146
  356TIP3    H225264   4.749   4.622   7.985 -0.4379 -0.4497  0.6116
  357TIP3   OH225265   7.119   2.968   6.668 -0.1110 -0.0447 -0.3568
  357TIP3    H125266   7.084   2.980   6.756 -0.1180 -2.2197  0.0054
  357TIP3    H225267   7.046   2.991   6.610 -0.5353  0.1839  0.2525
  358TIP3   OH225268   7.121   0.152   8.489 -0.0364 -0.1810  0.4133
  358TIP3    H125269   7.078   0.151   8.403 -0.0153 -2.2948  0.3791
  358TIP3    H225270   7.196   0.094   8.478 -0.9308 -1.7895  2.2854
  359TIP3   OH225271   1.456   5.419   9.540 -0.0206  0.1351 -0.1212
  359TIP3    H125272   1.472   5.334   9.581 -1.9299 -0.0515  0.3383
  359TIP3    H225273   1.542   5.461   9.536  0.5837 -0.8095  1.9238
  360TIP3   OH225274   1.900   2.011   8.676 -0.3721  0.0996  0.9209
  360TIP3    H125275   1.849   1.943   8.632  0.8752  0.3314 -1.0067
  360TIP3    H225276   1.963   2.040   8.610  0.1818  2.0141  2.2143
  361TIP3   OH225277   5.773   5.326   8.893 -0.4447  0.0410 -0.1493
  361TIP3    H125278   5.839   5.340   8.825 -0.8278  0.6951 -0.3967
  361TIP3    H225279   5.762   5.231   8.896  0.9596 -0.1339  0.3470
  362TIP3   OH225280   5.812   3.681   7.340 -0.5806  0.0708  0.4278
  362TIP3    H125281   5.722   3.649   7.328 -0.2002 -0.5865 -0.8905
  362TIP3    H225282   5.866   3.603   7.329  0.2459  0.7455 -0.4284
  363TIP3   OH225283   7.414   2.460   8.483  0.8024  0.1772 -0.2563
  363TIP3    H125284   7.415   2.455   8.579  1.2500  0.5690 -0.2400
  363TIP3    H225285   7.369   2.380   8.456  0.7230  0.0365  0.2804
  364TIP3   OH225286   6.460   2.645   8.066  0.1015  0.2939  0.3573
  364TIP3    H125287   6.388   2.693   8.108 -1.1550 -0.5598 -0.7153
  364TIP3    H225288   6.510   2.608   8.138 -1.8731 -0.9809  1.1573
  365TIP3   OH225289   4.960   3.466   7.851 -0.3004 -0.4976 -0.0009
  365TIP3    H125290   4.997   3.446   7.765 -2.2919  0.4329 -1.1347
  365TIP3    H225291   4.898   3.395   7.868 -0.1254 -0.5250  0.5618
  366TIP3   OH225292   3.698   3.791   9.333  0.7676  0.5215  0.5058
  366TIP3    H125293   3.722   3.879   9.360  0.6785  0.9232 -0.6486
  366TIP3    H225294   3.607   3.781   9.360  0.6905  0.9010  0.3960
  367TIP3   OH225295   5.953   4.226   8.208 -0.0720  0.2263 -0.1017
  367TIP3    H125296   5.994   4.218   8.122 -2.2796 -2.2372 -1.0620
  367TIP3    H225297   5.964   4.140   8.248  0.3008  1.1201  1.8547
  368TIP3   OH225298   1.042   2.214   7.955 -0.4315  0.4902 -0.0995
  368TIP3    H125299   1.057   2.119   7.953 -1.0739  0.3928 -1.7341
  368TIP3    H225300   1.125   2.251   7.985  0.2526 -0.5169 -0.7039
  369TIP3   OH225301   0.546   0.456   9.504  0.5239  0.5481  0.7647
  369TIP3    H125302   0.526   0.499   9.421 -0.4495  0.1570  0.7861
  369TIP3    H225303   0.481   0.386   9.511 -0.0535  1.1913  2.3382
  370TIP3   OH225304   0.087   6.898   8.853 -0.5425  0.5079 -0.0967
  370TIP3    H125305   0.063   6.814   8.892 -0.8824  0.5274 -0.2685
  370TIP3    H225306   0.159   6.929   8.908 -0.9030  0.4503  0.4171
  371TIP3   OH225307   2.003   3.777   9.389 -0.2898 -0.0115  0.1608
  371TIP3    H125308   1.998   3.848   9.453 -0.7933  0.9997 -0.9546
  371TIP3    H225309   1.920   3.730   9.398 -1.1267  1.1992 -0.9129
  372TIP3   OH225310   3.930   0.452   7.317 -0.3175 -0.1826 -0.0355
  372TIP3    H125311   3.969   0.413   7.239 -1.8271 -0.2754 -0.7781
  372TIP3    H225312   3.948   0.389   7.387  1.1039 -0.0636 -0.2752
  373TIP3   OH225313   4.565   3.628   7.882  0.0182 -0.5047  0.5940
  373TIP3    H125314   4.527   3.549   7.919 -0.6962 -0.9429 -1.0039
  373TIP3    H225315   4.499   3.661   7.822 -0.0705  1.8244  1.8565
  374TIP3   OH225316   0.620   4.812   7.763  0.3347  0.0251  0.4272
  374TIP3    H125317   0.628   4.897   7.719  0.5001  0.6563  1.6304
  374TIP3    H225318   0.695   4.761   7.730 -0.0782  0.1361 -0.7211
  375TIP3   OH225319   4.845   7.055   8.206 -0.3445  0.8027  0.1894
  375TIP3    H125320   4.843   7.055   8.111 -0.6294 -0.2690  0.1944
  375TIP3    H225321   4.932   7.090   8.228  1.3095 -2.4730 -0.5288
  376TIP3   OH225322   0.203   5.937   8.713 -0.0410  0.1837 -0.1536
  376TIP3    H125323   0.135   5.887   8.669  0.5564 -0.7701 -0.0308
  376TIP3    H225324   0.284   5.909   8.670  0.3690  0.5636  0.3621
  377TIP3   OH225325   1.557   1.333   8.937 -0.2217  0.2746  0.3243
  377TIP3    H125326   1.514   1.410   8.901 -1.5289  0.0679  1.3716
  377TIP3    H225327   1.604   1.365   9.014 -1.7058 -0.1295  1.4339
  378TIP3   OH225328   2.813   3.305   7.619 -0.1357 -0.2048 -0.3027
  378TIP3    H125329   2.831   3.264   7.703 -0.6120 -0.0497 -0.1193
  378TIP3    H225330   2.784   3.234   7.563  0.8431 -0.4228 -0.5446
  379TIP3   OH225331   7.236   2.225   9.335  0.2778 -0.4410  0.2629
  379TIP3    H125332   7.250   2.131   9.340  0.7839 -0.3609  0.4066
  379TIP3    H225333   7.144   2.234   9.309 -0.2137 -0.9582  1.6817
  380TIP3   OH225334   2.980   3.582   9.893  0.0445 -0.3316 -0.0635
  380TIP3    H125335   3.050   3.571   9.828 -0.4154  0.1082 -0.6481
  380TIP3    H225336   3.004   3.661   9.941  1.7063 -1.9903  2.0360
  381TIP3   OH225337   7.440   7.359   7.450  0.0535 -0.1970  0.2364
  381TIP3    H125338   7.439   7.287   7.387  1.8099  0.4461 -0.5920
  381TIP3    H225339   7.357   7.404   7.436  0.3260 -0.1670 -1.5531
  382TIP3   OH225340   0.548   3.718   6.740  0.1933 -0.1446 -0.0043
  382TIP3    H125341   0.632   3.681   6.710 -0.8528 -1.3583 -1.5967
  382TIP3    H225342   0.549   3.808   6.708  0.3077 -0.5811 -1.2769
  383TIP3   OH225343   3.200   4.093   7.533 -0.4269  0.1410 -0.2279
  383TIP3    H125344   3.282   4.058   7.566  0.8822  0.6266 -2.7178
  383TIP3    H225345   3.210   4.093   7.438 -3.2157  0.5044 -0.6135
  384TIP3   OH225346   1.732   1.675   8.301  0.0192  0.3037  0.5024
  384TIP3    H125347   1.698   1.586   8.315  0.0276  0.1286 -0.5036
  384TIP3    H225348   1.666   1.732   8.339 -0.2149 -0.1201  0.7386
  385TIP3   OH225349   1.371   1.194   6.766  0.1233  0.3839 -0.4097
  385TIP3    H125350   1.352   1.272   6.714 -0.3823  0.0033 -0.8093
  385TIP3    H225351   1.288   1.173   6.809  0.5431  0.7150  0.6004
  386TIP3   OH225352   1.462   1.870   7.372  0.2929 -0.0107 -0.0184
  386TIP3    H125353   1.485   1.810   7.443 -1.4709  0.0076  0.6193
  386TIP3    H225354   1.502   1.832   7.294  1.0698 -0.8029  0.7506
  387TIP3   OH225355   1.005   3.448   9.783 -0.2194  0.4990  0.1779
  387TIP3    H125356   0.982   3.424   9.873  0.3812 -0.5257  0.0810
  387TIP3    H225357   0.988   3.542   9.777 -2.1102  0.2250  0.7785
  388TIP3   OH225358   0.566   5.789   9.962 -0.0666 -0.4635  0.6153
  388TIP3    H125359   0.611   5.828  10.037  0.8503 -0.5375  0.1302
  388TIP3    H225360   0.620   5.814   9.887 -0.6976 -0.8010  0.0423
  389TIP3   OH225361   2.012   0.398   7.886 -0.0817  0.6047  0.1569
  389TIP3    H125362   2.064   0.478   7.890  1.6772 -0.0020 -4.4489
  389TIP3    H225363   2.067   0.331   7.926  0.6342  0.8556 -0.3866
  390TIP3   OH225364   2.509   3.515   7.940  0.2369 -0.1815  0.2314
  390TIP3    H125365   2.486   3.469   7.860  0.3607  0.3073 -0.0898
  390TIP3    H225366   2.428   3.560   7.965  0.5760  0.8348 -0.4220
  391TIP3   OH225367   0.317   5.059   8.157  0.1559  0.2389  0.0549
  391TIP3    H125368   0.354   5.006   8.228 -1.3214 -0.2112  0.5110
  391TIP3    H225369   0.394   5.099   8.116  1.0661  0.4821  1.8670
  392TIP3   OH225370   3.463   5.022   7.967 -0.2397 -0.2007 -0.1443
  392TIP3    H125371   3.448   5.097   8.025 -2.1912 -2.1638  2.1157
  392TIP3    H225372   3.518   4.963   8.018 -0.2002 -1.0792 -1.1707
  393TIP3   OH225373   5.127   0.749   8.675 -0.1483  0.1700  0.2043
  393TIP3    H125374   5.201   0.773   8.620 -0.2079  0.7380  0.3659
  393TIP3    H225375   5.157   0.673   8.725  0.3413  0.4366  0.3156
  394TIP3   OH225376   6.662   4.179   7.563 -0.4017  0.1705 -0.0057
  394TIP3    H125377   6.618   4.252   7.519  0.6440 -0.1750 -1.7198
  394TIP3    H225378   6.735   4.220   7.609  0.0664  0.2420 -0.8009
  395TIP3   OH225379   2.078   6.143   8.468  0.3139 -0.4820 -0.1986
  395TIP3    H125380   2.031   6.064   8.496  0.1502 -0.7580 -1.2013
  395TIP3    H225381   2.161   6.141   8.516  0.9216 -2.0245 -1.2681
  396TIP3   OH225382   3.039   2.283   7.199  0.3099  0.0001 -0.4210
  396TIP3    H125383   3.113   2.333   7.165  0.0151  0.1821 -0.8144
  396TIP3    H225384   2.999   2.244   7.121  0.4067 -0.6664 -0.1346
  397TIP3   OH225385   2.330   0.599   7.600 -0.3978  0.5376  0.4509
  397TIP3    H125386   2.243   0.559   7.594 -0.1827 -0.1898  1.8685
  397TIP3    H225387   2.359   0.605   7.509 -1.9048  0.7561 -0.0466
  398TIP3   OH225388   3.186   1.580   7.649 -0.1107  0.3001  0.1812
  398TIP3    H125389   3.270   1.620   7.671  1.2859 -0.8829 -2.5289
  398TIP3    H225390   3.150   1.552   7.734  2.3593  0.5604  1.3949
  399TIP3   OH225391   1.955   5.119   7.102 -0.1447  0.3548 -0.5675
  399TIP3    H125392   1.936   5.213   7.107  0.6678  0.4686  0.9402
  399TIP3    H225393   1.944   5.097   7.009 -1.1988  1.7443 -0.7982
  400TIP3   OH225394   3.770   7.463   9.324  0.3135 -0.0278 -0.4094
  400TIP3    H125395   3.734   7.464   9.235 -1.0274 -1.4650  0.0809
  400TIP3    H225396   3.694   7.464   9.381  1.1602  2.3514  0.8254
  401TIP3   OH225397   5.205   5.657   8.836 -0.0543  0.0620  0.5621
  401TIP3    H125398   5.218   5.748   8.864  0.1395 -0.1436  1.1468
  401TIP3    H225399   5.132   5.626   8.890 -0.8645  0.2081 -0.4194
  402TIP3   OH225400   0.738   0.205   7.714 -0.2237 -0.1775 -0.1199
  402TIP3    H125401   0.747   0.258   7.794  1.8472 -0.6996  0.0507
  402TIP3    H225402   0.794   0.248   7.650 -0.0178 -1.0660 -0.5600
  403TIP3   OH225403   5.755   4.124   7.842 -0.0805  0.0863  0.3101
  403TIP3    H125404   5.753   4.214   7.874 -1.1541 -0.3745  1.6386
  403TIP3    H225405   5.786   4.072   7.916  0.1595 -0.6919 -0.3167
  404TIP3   OH225406   6.988   5.619   9.691 -0.0322 -0.0959 -0.0190
  404TIP3    H125407   7.001   5.665   9.774  0.7045 -0.8409  0.2914
  404TIP3    H225408   7.071   5.628   9.645 -0.7764  1.2819 -1.2052
  405TIP3   OH225409   1.357   4.446   8.513  0.0546  0.2748 -0.0744
  405TIP3    H125410   1.326   4.427   8.424 -0.0856  2.0062 -0.4242
  405TIP3    H225411   1.320   4.532   8.534  0.8464  0.3087  1.3070
  406TIP3   OH225412   4.182   6.376   9.259  0.4301  0.0879  0.4125
  406TIP3    H125413   4.204   6.311   9.326  0.3621 -0.7656 -0.3685
  406TIP3    H225414   4.138   6.446   9.307  0.0250 -0.6822  1.2020
  407TIP3   OH225415   6.730   4.793   8.952  0.0377  0.4537  0.1919
  407TIP3    H125416   6.808   4.813   8.899 -0.8757  1.3054 -0.8772
  407TIP3    H225417   6.746   4.837   9.035  0.0179  2.0175 -0.5868
  408TIP3   OH225418   5.495   1.838   9.719  0.2718  0.6123  0.0906
  408TIP3    H125419   5.468   1.747   9.733  1.1640  0.5296  1.5299
  408TIP3    H225420   5.576   1.847   9.770  0.2276  2.1973 -0.0643
  409TIP3   OH225421   2.850   2.869   8.192  0.0410 -0.1698 -0.2358
  409TIP3    H125422   2.857   2.857   8.286 -0.7485  0.7400 -0.0473
  409TIP3    H225423   2.936   2.902   8.165  0.8629 -2.0970 -0.1391
  410TIP3   OH225424   5.210   2.069   7.501  0.0744 -0.4320 -0.4240
  410TIP3    H125425   5.119   2.097   7.502  0.4921  1.0598 -0.9879
  410TIP3    H225426   5.243   2.097   7.415  0.4339 -3.1501 -1.2709
  411TIP3   OH225427   2.378   2.591   7.708  0.4451  0.2974 -0.0770
  411TIP3    H125428   2.296   2.590   7.758  1.6321  2.1300  2.1106
  411TIP3    H225429   2.428   2.517   7.743  0.2634  0.0057 -0.4318
  412TIP3   OH225430   2.189   6.999   8.221  0.2552 -0.4141  0.1785
  412TIP3    H125431   2.222   6.912   8.197 -0.3555 -1.1351  1.8490
  412TIP3    H225432   2.264   7.057   8.210  1.0107 -1.3656  0.2062
  413TIP3   OH225433   2.329   7.438   9.150  0.2392  0.0411 -0.4386
  413TIP3    H125434   2.290   7.507   9.203 -1.1234  0.1778 -1.5585
  413TIP3    H225435   2.381   7.484   9.085  0.1741 -0.0336 -0.5434
  414TIP3   OH225436   6.549   2.235   9.141 -0.1354 -0.2260  0.1595
  414TIP3    H125437   6.532   2.312   9.086  0.0380 -0.1693  0.1829
  414TIP3    H225438   6.607   2.267   9.210  1.8105 -0.8392 -1.0894
  415TIP3   OH225439   0.112   2.795   7.200  0.4921  0.3747 -0.1943
  415TIP3    H125440   0.096   2.831   7.287  3.4064  0.2990  0.4772
  415TIP3    H225441   0.164   2.862   7.156  0.1815 -0.1599 -1.4032
  416TIP3   OH225442   1.068   4.474   8.740 -0.1394 -0.1233 -0.3951
  416TIP3    H125443   1.014   4.537   8.788 -1.0921  0.7146 -2.4086
  416TIP3    H225444   1.006   4.408   8.709  0.8975 -2.3664  1.9855
  417TIP3   OH225445   5.458   6.410   9.133  0.3346  0.3676 -0.8945
  417TIP3    H125446   5.514   6.386   9.207 -1.0639 -0.0387  0.0547
  417TIP3    H225447   5.474   6.504   9.122 -1.3601  1.0676  1.6732
  418TIP3   OH225448   6.073   3.460   8.963  0.1238  0.4453  0.5701
  418TIP3    H125449   6.032   3.502   9.039 -2.3930 -0.8806  0.0697
  418TIP3    H225450   6.097   3.373   8.994 -0.5879  0.0266 -0.0221
  419TIP3   OH225451   3.460   2.941   9.387  0.4734  0.2402  0.0353
  419TIP3    H125452   3.473   3.006   9.319  1.6637  1.5268  1.4182
  419TIP3    H225453   3.541   2.891   9.390 -0.5456 -1.6296 -1.2398
  420TIP3   OH225454   2.857   0.358   8.762 -0.3171  0.2528 -1.0049
  420TIP3    H125455   2.925   0.347   8.695 -0.1866 -1.6637 -0.6209
  420TIP3    H225456   2.824   0.269   8.777 -1.0294  0.7770  0.7722
  421TIP3   OH225457   1.636   2.705   7.053 -0.3961 -0.1372 -0.7284
  421TIP3    H125458   1.603   2.622   7.088 -1.5230  0.6057 -0.0058
  421TIP3    H225459   1.713   2.679   7.001  0.2171 -1.4661  0.7500
  422TIP3   OH225460   4.410   1.778   9.065 -0.2506  0.0625  0.0029
  422TIP3    H125461   4.361   1.856   9.090  0.0724 -0.0209  0.9569
  422TIP3    H225462   4.486   1.810   9.018  1.1372  0.5550  2.3810
  423TIP3   OH225463   3.645   3.841   8.095 -0.0135 -0.0340 -0.2227
  423TIP3    H125464   3.664   3.851   8.189  0.0277  1.4806 -0.3722
  423TIP3    H225465   3.592   3.761   8.090 -2.2068  1.1934  1.4192
  424TIP3   OH225466   1.209   3.518   8.974 -0.0504 -0.3276  0.1354
  424TIP3    H125467   1.149   3.475   9.036  0.4069 -0.8056  0.2515
  424TIP3    H225468   1.296   3.491   9.003  0.1937 -0.1078 -0.3889
  425TIP3   OH225469   0.741   4.291   7.621 -0.5020 -0.3371  0.2077
  425TIP3    H125470   0.787   4.225   7.673  0.9964 -0.0357 -0.6734
  425TIP3    H225471   0.714   4.243   7.542  0.9958  0.1583 -0.6465
  426TIP3   OH225472   3.368   6.705   8.533 -0.7956  0.0547 -0.3773
  426TIP3    H125473   3.373   6.798   8.509 -2.8029  0.7325  1.4215
  426TIP3    H225474   3.424   6.698   8.611 -1.9038  0.2014  0.4695
  427TIP3   OH225475   1.542   4.549   8.698  0.3628 -0.1888  0.1252
  427TIP3    H125476   1.528   4.490   8.624 -1.3691  0.0183  0.2458
  427TIP3    H225477   1.558   4.635   8.658 -2.2362  0.2856 -0.0875
  428TIP3   OH225478   5.269   4.966   8.934  0.1261 -0.3740  0.1813
  428TIP3    H125479   5.305   4.895   8.881  0.1406  0.1687 -0.5507
  428TIP3    H225480   5.176   4.967   8.912  0.3135  0.5109 -0.6271
  429TIP3   OH225481   2.858   5.721   8.622 -0.2163  0.4514  0.1652
  429TIP3    H125482   2.842   5.632   8.591 -2.7120  0.7437  0.4346
  429TIP3    H225483   2.937   5.714   8.676 -0.1928 -1.5344 -0.0641
  430TIP3   OH225484   1.180   0.757   7.168  0.4014 -0.3600  0.1416
  430TIP3    H125485   1.145   0.838   7.130 -0.9177 -0.6540  0.6833
  430TIP3    H225486   1.238   0.722   7.100 -0.8726 -0.1874 -1.0727
  431TIP3   OH225487   2.221   3.306   8.078 -0.0007 -0.2288  0.2835
  431TIP3    H125488   2.259   3.361   8.146  2.6779 -0.0983 -1.1708
  431TIP3    H225489   2.242   3.351   7.996 -2.3355 -0.8195 -0.7192
  432TIP3   OH225490   2.146   0.552   8.115 -0.4268  0.4638  0.3658
  432TIP3    H125491   2.198   0.594   8.045  3.4565 -1.6830  1.6235
  432TIP3    H225492   2.115   0.624   8.169  0.3220  1.9803 -1.1424
  433TIP3   OH225493   0.191   2.514   8.200 -0.4283  0.3373  0.0503
  433TIP3    H125494   0.282   2.510   8.230 -0.5208  1.3561  0.5075
  433TIP3    H225495   0.175   2.429   8.160 -0.2187 -1.0374  2.6896
  434TIP3   OH225496   6.905   7.445   7.893 -0.3966  0.1302  0.1964
  434TIP3    H125497   6.944   7.511   7.835  1.3208 -0.4763  0.6005
  434TIP3    H225498   6.875   7.376   7.834 -0.5357  0.4396 -0.0995
  435TIP3   OH225499   0.519   0.094   8.556 -0.4630 -0.5829 -0.3468
  435TIP3    H125500   0.544   0.007   8.523  1.0848 -1.2583  2.2688
  435TIP3    H225501   0.533   0.088   8.650 -1.3822  2.2147  0.0563
  436TIP3   OH225502   4.470   3.856   7.994 -0.5667  0.4068  0.0948
  436TIP3    H125503   4.523   3.868   8.072 -2.3577 -1.4961  1.7099
  436TIP3    H225504   4.489   3.768   7.964 -0.3181  0.9169 -1.3192
  437TIP3   OH225505   2.182   0.540   9.131 -0.4469 -0.1915 -0.1083
  437TIP3    H125506   2.181   0.625   9.088  1.3438 -0.8177 -1.4870
  437TIP3    H225507   2.103   0.496   9.100 -0.8094  0.5484 -0.2501
  438TIP3   OH225508   0.178   1.612   6.881  0.2957 -0.2356  0.2371
  438TIP3    H125509   0.194   1.539   6.821 -0.3820  0.8021 -1.2647
  438TIP3    H225510   0.095   1.590   6.923 -0.4236  0.1207 -0.9575
  439TIP3   OH225511   3.159   0.791   6.836  0.0447 -0.3384  0.3781
  439TIP3    H125512   3.075   0.757   6.803  0.4813 -0.6153 -0.4768
  439TIP3    H225513   3.218   0.716   6.832  0.9036  0.3784 -1.0942
  440TIP3   OH225514   6.529   0.698   8.069  0.5210 -0.1441  0.0918
  440TIP3    H125515   6.455   0.689   8.009 -1.6661  1.5161  2.3036
  440TIP3    H225516   6.604   0.718   8.013 -0.9143 -0.7395 -2.1806
  441TIP3   OH225517   7.143   4.618   8.982 -0.5992 -0.4843 -0.1118
  441TIP3    H125518   7.174   4.647   8.896  0.0767 -1.1028 -0.0847
  441TIP3    H225519   7.197   4.542   9.003  0.1965  0.4475  1.4635
  442TIP3   OH225520   2.375   4.097   9.343  0.4491 -0.7332  0.5150
  442TIP3    H125521   2.461   4.063   9.367 -0.3771 -1.7927  2.1892
  442TIP3    H225522   2.342   4.036   9.277  1.0880 -0.1452 -0.3621
  443TIP3   OH225523   1.150   4.740   7.788  0.9344  0.3746  0.0302
  443TIP3    H125524   1.221   4.676   7.780  1.2855  0.6575  0.8518
  443TIP3    H225525   1.193   4.825   7.786  0.6864  0.5362  1.1256
  444TIP3   OH225526   5.005   3.663   9.597 -0.0955  0.0326  0.1811
  444TIP3    H125527   4.969   3.654   9.509  0.4749  1.6484 -0.2598
  444TIP3    H225528   5.068   3.735   9.589  1.1592 -0.8625  1.5439
  445TIP3   OH225529   2.484   3.681   8.331 -0.3190  0.0239 -0.3945
  445TIP3    H125530   2.542   3.637   8.394 -1.6743 -0.9328  0.2219
  445TIP3    H225531   2.502   3.774   8.344 -0.0604 -0.1924  0.9269
  446TIP3   OH225532   6.463   0.648   8.617 -0.5103 -0.2173  0.0731
  446TIP3    H125533   6.423   0.576   8.665 -1.2095  0.5942  0.7576
  446TIP3    H225534   6.545   0.613   8.584 -1.2835 -1.6065 -0.4370
  447TIP3   OH225535   5.016   3.253   8.268  0.1115 -0.3050 -0.0054
  447TIP3    H125536   5.100   3.266   8.312 -0.3640  0.6415  0.6502
  447TIP3    H225537   5.039   3.235   8.177  1.2279 -4.2612  0.8519
  448TIP3   OH225538   2.711   7.268   9.105  0.7675 -0.2202  0.1560
  448TIP3    H125539   2.622   7.263   9.140  0.4962  0.3956 -0.4337
  448TIP3    H225540   2.708   7.338   9.040  1.6216 -0.3663 -0.0570
  449TIP3   OH225541   1.328   5.039   9.477 -0.6358  0.1055  0.0829
  449TIP3    H125542   1.354   5.095   9.403 -0.3937  0.2417  0.2687
  449TIP3    H225543   1.401   5.046   9.539 -1.4034  1.0210  0.9115
  450TIP3   OH225544   0.469   2.258   9.180  0.2498 -0.3006  0.1565
  450TIP3    H125545   0.399   2.259   9.114  0.5973 -1.5838 -0.2653
  450TIP3    H225546   0.422   2.257   9.264 -0.2455 -0.7975 -0.1185
  451TIP3   OH225547   1.881   5.494   8.378 -0.4774  0.6787 -0.1366
  451TIP3    H125548   1.965   5.462   8.411 -1.4485 -2.0598 -0.1020
  451TIP3    H225549   1.894   5.503   8.283 -0.5475 -1.2506 -0.3557
  452TIP3   OH225550   3.191   4.247   8.617 -0.4565  0.0099 -0.3030
  452TIP3    H125551   3.150   4.201   8.544 -0.3266 -0.1032 -0.3034
  452TIP3    H225552   3.256   4.186   8.651 -1.6718 -0.6375  0.9910
  453TIP3   OH225553   1.224   6.103   7.343 -0.1431  0.5977  0.0193
  453TIP3    H125554   1.146   6.049   7.358 -0.2673  0.5823 -0.6473
  453TIP3    H225555   1.190   6.191   7.327  0.0985  1.0816  1.9253
  454TIP3   OH225556   1.983   1.100   7.781  0.0180 -0.0503 -0.0012
  454TIP3    H125557   2.063   1.098   7.834 -0.3833 -1.9537  0.6131
  454TIP3    H225558   1.998   1.170   7.717  0.7775  1.9265  2.1924
  455TIP3   OH225559   4.316   5.430   7.963 -0.2962 -0.0429 -0.3751
  455TIP3    H125560   4.283   5.516   7.991  1.9319  0.7772 -0.0118
  455TIP3    H225561   4.310   5.375   8.041 -1.7026 -0.2466 -0.6000
  456TIP3   OH225562   3.285   0.999   9.604 -0.2187 -0.1177  0.2471
  456TIP3    H125563   3.360   1.048   9.570  0.0842 -0.3096  0.6321
  456TIP3    H225564   3.231   1.066   9.646 -1.5583  0.4445 -2.1881
  457TIP3   OH225565   2.150   5.238   9.136 -0.0288 -0.5109 -0.3932
  457TIP3    H125566   2.237   5.267   9.109  1.3195 -0.3437  3.5574
  457TIP3    H225567   2.141   5.150   9.098  0.7523  0.3764 -2.8290
  458TIP3   OH225568   6.397   1.992   8.135 -0.2103 -0.2480 -0.4761
  458TIP3    H125569   6.484   1.968   8.104 -0.0599  0.4082 -0.5725
  458TIP3    H225570   6.399   1.972   8.229  0.3443  0.5735 -0.3025
  459TIP3   OH225571   3.420   5.734   9.492 -0.3648 -0.6843 -0.0703
  459TIP3    H125572   3.489   5.711   9.555  0.4782  0.6089 -0.4751
  459TIP3    H225573   3.466   5.743   9.409 -1.0383  0.0585 -0.3716
  460TIP3   OH225574   2.194   2.820   8.272 -0.0246 -0.1771  0.4232
  460TIP3    H125575   2.239   2.881   8.330  1.2472  0.4243 -1.1103
  460TIP3    H225576   2.137   2.875   8.219 -0.2272 -0.5567  0.2387
  461TIP3   OH225577   1.434   0.236   7.410 -0.0799 -0.4365  0.4054
  461TIP3    H125578   1.501   0.303   7.424 -0.1842 -0.5342  1.4065
  461TIP3    H225579   1.482   0.153   7.418 -0.1360 -0.5028  0.0990
  462TIP3   OH225580   0.749   6.034   7.732  0.0228 -0.6789 -0.7557
  462TIP3    H125581   0.700   6.035   7.814  1.0167 -0.6071 -0.1411
  462TIP3    H225582   0.683   6.019   7.664 -1.1659  1.5774 -0.1875
  463TIP3   OH225583   0.307   1.192   8.744 -0.4582  0.1340  0.3062
  463TIP3    H125584   0.356   1.271   8.720  0.2669  0.2000  1.8508
  463TIP3    H225585   0.323   1.131   8.673  0.3598  0.8022 -0.1050
  464TIP3   OH225586   1.980   5.239   8.157 -0.2449  0.3597 -0.7863
  464TIP3    H125587   1.887   5.217   8.163 -0.0784 -0.8041 -1.9038
  464TIP3    H225588   2.011   5.191   8.080  1.4880  0.0144  0.0708
  465TIP3   OH225589   0.591   6.055   9.768 -0.2663  0.3893 -0.0318
  465TIP3    H125590   0.668   6.008   9.737  0.0599  1.5304 -1.0174
  465TIP3    H225591   0.526   6.043   9.699 -0.1899  1.3189 -0.2875
  466TIP3   OH225592   6.637   6.663   7.242 -0.8368  0.4189  0.0191
  466TIP3    H125593   6.698   6.597   7.275  0.1825  1.5766  0.5444
  466TIP3    H225594   6.595   6.622   7.167  1.6230  0.0342 -1.2740
  467TIP3   OH225595   5.080   3.233   9.390 -0.1485  0.2504  0.8507
  467TIP3    H125596   5.121   3.192   9.314  0.0272 -0.8423  1.5101
  467TIP3    H225597   5.046   3.316   9.357 -1.2066 -0.7459 -0.7426
  468TIP3   OH225598   3.188   2.456   8.637 -0.3148  0.3564 -0.4016
  468TIP3    H125599   3.100   2.431   8.611  0.1891 -0.2029 -1.6177
  468TIP3    H225600   3.179   2.548   8.664 -2.0418 -0.7583  3.4701
  469TIP3   OH225601   3.072   1.067   8.504 -0.2426 -0.0684 -0.0383
  469TIP3    H125602   3.040   1.157   8.498 -1.0948 -0.4313 -1.6639
  469TIP3    H225603   3.032   1.023   8.429  0.8453 -1.5921  0.2372
  470TIP3   OH225604   3.090   5.285   7.498  0.4917  0.4336 -0.0341
  470TIP3    H125605   3.016   5.329   7.456  0.7911  2.2976  1.2559
  470TIP3    H225606   3.054   5.203   7.531 -0.7592  0.8635 -0.2752
  471TIP3   OH225607   5.046   1.014   8.870 -0.0253 -0.3765  0.0238
  471TIP3    H125608   5.048   1.067   8.791 -1.9868  0.9001  0.7587
  471TIP3    H225609   5.051   0.923   8.839  0.6839  0.1384 -1.4256
  472TIP3   OH225610   7.510   6.526   7.948 -0.0480  0.2844  0.3125
  472TIP3    H125611   7.570   6.452   7.955  0.1011  0.4020  0.3080
  472TIP3    H225612   7.455   6.506   7.873  1.1968  1.0190 -0.8551
  473TIP3   OH225613   5.297   4.703   9.095 -0.0062 -0.0959  0.2047
  473TIP3    H125614   5.289   4.798   9.104 -0.6665 -0.0019 -1.1547
  473TIP3    H225615   5.288   4.669   9.185 -0.2011  1.0838  0.6445
  474TIP3   OH225616   2.038   4.566   9.223 -0.0644 -0.3260 -0.3751
  474TIP3    H125617   2.103   4.515   9.272  0.9160  1.4107  0.2341
  474TIP3    H225618   2.083   4.590   9.142 -0.4317 -0.2254 -0.5480
  475TIP3   OH225619   6.412   4.190   7.410  0.6005  0.1999 -0.5349
  475TIP3    H125620   6.433   4.225   7.323 -0.4320 -0.0144 -0.8899
  475TIP3    H225621   6.368   4.107   7.392 -0.6298  0.6761  0.1360
  476TIP3   OH225622   3.084   6.698   9.676 -0.1762 -0.1339  0.1388
  476TIP3    H125623   3.052   6.698   9.766 -0.3437 -0.9593  0.0873
  476TIP3    H225624   3.159   6.758   9.677 -0.6036  0.4047  0.6641
  477TIP3   OH225625   3.760   0.031   7.760  0.0725 -0.1564  0.0267
  477TIP3    H125626   3.816   0.022   7.683 -1.9674  2.1187 -1.8618
  477TIP3    H225627   3.685  -0.026   7.742 -0.9849  1.2892 -0.2972
  478TIP3   OH225628   5.621   5.057   8.699 -0.3623 -0.6646 -0.0874
  478TIP3    H125629   5.670   4.990   8.651  2.0330  1.5245 -0.9046
  478TIP3    H225630   5.599   5.123   8.634 -0.7372  0.3847  1.0495
  479TIP3   OH225631   4.757   2.959   8.609  0.1390 -0.2909 -0.1694
  479TIP3    H125632   4.759   3.055   8.608  2.0637 -0.2976 -0.5120
  479TIP3    H225633   4.722   2.935   8.524 -1.7046  0.0678  0.4308
  480TIP3   OH225634   4.873   1.460   7.697 -0.3211 -0.0466 -0.1695
  480TIP3    H125635   4.805   1.399   7.726  0.0573 -1.8872 -2.8301
  480TIP3    H225636   4.955   1.412   7.708  0.1549  0.5937 -0.8119
  481TIP3   OH225637   2.715   1.026   9.368 -0.2415 -0.2143 -0.0202
  481TIP3    H125638   2.795   1.063   9.406 -0.0429 -0.9054  0.2600
  481TIP3    H225639   2.717   0.934   9.394 -1.0192 -0.2900 -0.2011
  482TIP3   OH225640   7.169   1.106   8.199  0.0336 -0.1769 -0.2868
  482TIP3    H125641   7.240   1.142   8.252 -1.0924 -0.2967  1.3490
  482TIP3    H225642   7.092   1.158   8.222 -0.7844 -1.1433 -0.7511
  483TIP3   OH225643   1.839   5.517   7.836 -0.0876  0.3591  0.3281
  483TIP3    H125644   1.760   5.474   7.804 -0.5865  2.2261 -1.1490
  483TIP3    H225645   1.894   5.528   7.759  0.1157  2.0918  0.6815
  484TIP3   OH225646   1.758   1.238   7.830  0.0512 -0.2423  0.2453
  484TIP3    H125647   1.817   1.162   7.827 -0.3127 -0.5388  0.4858
  484TIP3    H225648   1.739   1.249   7.923  0.1560  0.1898  0.2146
  485TIP3   OH225649   1.828   7.254   8.811 -0.2341 -0.9137  0.1417
  485TIP3    H125650   1.775   7.303   8.873  0.4574 -0.4413  0.3732
  485TIP3    H225651   1.766   7.225   8.744 -0.4404  1.6219 -0.8572
  486TIP3   OH225652   0.791   6.207   8.247  0.2933  0.2502  0.4135
  486TIP3    H125653   0.835   6.280   8.291  0.8617  0.3713 -0.3483
  486TIP3    H225654   0.832   6.202   8.161  1.3542 -1.9351  0.9729
  487TIP3   OH225655   0.863   0.843   7.093  0.0825  0.0463 -0.0844
  487TIP3    H125656   0.949   0.882   7.084  0.6223 -0.6454  1.5987
  487TIP3    H225657   0.879   0.749   7.090 -0.4665 -0.1058  1.0759
  488TIP3   OH225658   2.307   2.596   8.392  0.1166  0.3036 -0.3005
  488TIP3    H125659   2.294   2.554   8.307  0.3611  1.0939 -0.7352
  488TIP3    H225660   2.229   2.650   8.404 -0.7259 -1.0758  0.7608
  489TIP3   OH225661   1.082   2.717   7.712  0.0574  0.0981  0.0214
  489TIP3    H125662   1.055   2.781   7.778 -1.9063  1.1312 -1.6330
  489TIP3    H225663   1.052   2.633   7.746 -1.9502  0.7507  0.0283
  490TIP3   OH225664   2.748   0.409   7.948  0.4175 -0.9883  0.5440
  490TIP3    H125665   2.757   0.423   8.042  0.7269  0.7891  0.2870
  490TIP3    H225666   2.837   0.408   7.914  0.2711  0.9769 -0.0229
  491TIP3   OH225667   3.007   4.097   8.477  0.6703  0.3651 -0.3098
  491TIP3    H125668   3.012   4.152   8.399 -0.3166  0.6204 -0.2052
  491TIP3    H225669   2.983   4.011   8.445 -0.2219  0.5869 -0.2466
  492TIP3   OH225670   0.549   4.196   9.501  0.7105 -0.2469 -0.6570
  492TIP3    H125671   0.468   4.240   9.474  0.7465 -0.2540 -0.7769
  492TIP3    H225672   0.523   4.106   9.520  0.7735 -0.3744 -1.1553
  493TIP3   OH225673   1.553   6.109   8.217 -0.1552  0.1348  0.3292
  493TIP3    H125674   1.563   6.202   8.238  1.0668  0.2298 -0.5816
  493TIP3    H225675   1.477   6.081   8.269 -0.0040  1.4157  1.2968
  494TIP3   OH225676   3.514   0.219   8.172  0.1355  0.1624  0.2290
  494TIP3    H125677   3.602   0.252   8.154 -0.1005  0.0458 -1.2072
  494TIP3    H225678   3.458   0.261   8.107 -0.5046 -1.4659 -0.3254
  495TIP3   OH225679   1.335   4.598   9.533 -0.8092  0.1428 -0.2051
  495TIP3    H125680   1.401   4.556   9.588 -1.5469 -1.2479 -0.3211
  495TIP3    H225681   1.349   4.559   9.446 -1.0025  0.7468 -0.5099
  496TIP3   OH225682   2.685   6.647   8.673 -0.0376 -0.1186  0.2959
  496TIP3    H125683   2.669   6.682   8.761  1.0303  2.0197 -0.3191
  496TIP3    H225684   2.646   6.559   8.676 -1.1907  0.3824  2.4864
  497TIP3   OH225685   2.332   5.372   8.789 -0.0651  0.2130 -0.4029
  497TIP3    H125686   2.360   5.424   8.714 -0.7236  1.7321  0.3634
  497TIP3    H225687   2.413   5.338   8.827  0.2328 -1.2583 -2.2323
  498TIP3   OH225688   4.119   0.737   9.178  0.1956  0.1814 -0.0523
  498TIP3    H125689   4.064   0.694   9.243 -0.1208 -0.9172 -1.0149
  498TIP3    H225690   4.062   0.802   9.138  0.3710  0.8136  0.6926
  499TIP3   OH225691   5.310   7.267   7.958 -0.4729  0.0170  0.3092
  499TIP3    H125692   5.232   7.317   7.982 -0.3216  0.0039  0.8249
  499TIP3    H225693   5.383   7.323   7.984 -0.2702  0.8333 -1.7558
  500TIP3   OH225694   3.466   3.235   8.985  0.2201 -0.1198  0.2803
  500TIP3    H125695   3.559   3.212   8.988  0.3243  0.3235  0.4775
  500TIP3    H225696   3.439   3.212   8.896  0.3471 -0.8846  0.4279
  501TIP3   OH225697   4.973   0.695   8.059 -0.3891 -0.4459 -0.0616
  501TIP3    H125698   5.041   0.668   8.120 -0.1035  1.5881  0.5940
  501TIP3    H225699   4.987   0.640   7.982  1.6061 -0.5058  0.2862
  502TIP3   OH225700   6.889   4.315   7.103 -0.0287  0.4125  0.2601
  502TIP3    H125701   6.959   4.275   7.051 -1.0373 -0.0108 -0.7996
  502TIP3    H225702   6.845   4.241   7.145  0.8592  0.7555  1.8798
  503TIP3   OH225703   5.421   4.447   9.023 -0.2018  0.1450  0.2326
  503TIP3    H125704   5.359   4.403   8.965  1.8290 -1.3926 -0.9153
  503TIP3    H225705   5.376   4.526   9.051 -2.6040 -0.8201 -0.6261
  504TIP3   OH225706   5.619   0.203   9.419  0.0133 -0.3740 -0.7445
  504TIP3    H125707   5.670   0.122   9.416  0.0049 -0.3843 -0.6350
  504TIP3    H225708   5.603   0.217   9.512  0.1757 -0.1453 -0.7492
  505TIP3   OH225709   0.779   5.777   9.752 -0.3033 -0.1914  0.5869
  505TIP3    H125710   0.721   5.705   9.728 -0.0713 -0.1688 -0.0543
  505TIP3    H225711   0.865   5.736   9.764 -0.0044  0.0833 -0.5300
  506TIP3   OH225712   7.095   2.195   7.591  0.4064 -0.2694 -0.2133
  506TIP3    H125713   7.068   2.123   7.534  0.6518 -0.9691  0.5302
  506TIP3    H225714   7.060   2.171   7.677  1.2601  0.0567  0.2318
  507TIP3   OH225715   6.205   4.412   9.168 -0.1119  0.6353 -0.3538
  507TIP3    H125716   6.140   4.407   9.098  0.4231 -0.4107 -0.8131
  507TIP3    H225717   6.183   4.339   9.226  0.5134  0.3944 -0.4079
  508TIP3   OH225718   2.257   3.022   8.888  0.1118 -0.1858  0.6428
  508TIP3    H125719   2.345   2.988   8.870  0.2874  0.3151  0.5447
  508TIP3    H225720   2.206   2.944   8.912 -0.4874 -1.1829 -3.2040
  509TIP3   OH225721   7.460   1.672   8.975  0.1216  0.3680 -0.3013
  509TIP3    H125722   7.548   1.687   9.012 -0.1238  1.2020 -0.0334
  509TIP3    H225723   7.421   1.607   9.033  1.3692 -1.8195 -1.7409
  510TIP3   OH225724   4.892   5.031   7.858  0.4184 -0.3042 -0.7094
  510TIP3    H125725   4.798   5.022   7.872  0.4252  1.8127  1.2436
  510TIP3    H225726   4.902   5.111   7.806  1.1828  0.4929  0.6134
  511TIP3   OH225727   3.105   2.869   8.723  0.3096 -0.5191  0.2528
  511TIP3    H125728   3.054   2.941   8.762  0.2689 -0.6689  0.4813
  511TIP3    H225729   3.061   2.790   8.754  0.2544 -0.6403 -0.1363
  512TIP3   OH225730   1.245   1.240   7.669  0.3260  0.1808 -0.0106
  512TIP3    H125731   1.324   1.259   7.719  0.1920  0.8234 -0.0419
  512TIP3    H225732   1.239   1.310   7.605  0.8024 -0.9308 -1.3264
  513TIP3   OH225733   5.535   7.393   8.146 -0.3606 -0.2831 -0.4765
  513TIP3    H125734   5.528   7.409   8.240 -0.7234  0.5541 -0.6418
  513TIP3    H225735   5.630   7.391   8.130 -0.2564 -1.7557  0.1054
  514TIP3   OH225736   4.204   5.992   9.368  0.2518 -0.3567  0.0415
  514TIP3    H125737   4.203   6.079   9.407 -1.5436 -1.4403  2.6450
  514TIP3    H225738   4.140   5.997   9.297  2.2666  1.1533 -1.7879
  515TIP3   OH225739   1.739   6.583   7.743 -0.3709 -0.3010  0.5302
  515TIP3    H125740   1.780   6.585   7.830 -0.9000 -0.1184  0.7800
  515TIP3    H225741   1.697   6.497   7.739 -0.0304 -0.4587  0.3035
  516TIP3   OH225742   3.373   1.905   7.813 -0.0045 -0.0799 -0.4388
  516TIP3    H125743   3.307   1.927   7.878 -0.0516 -2.6222  0.5184
  516TIP3    H225744   3.457   1.915   7.859  0.0438 -0.4010 -0.4494
  517TIP3   OH225745   3.035   0.775   8.030 -0.3926  0.3768  0.4588
  517TIP3    H125746   3.036   0.697   8.085  1.1115  0.1426  0.1507
  517TIP3    H225747   3.096   0.755   7.959  0.2885  1.9576  0.5664
  518TIP3   OH225748   5.270   6.308   8.267  0.0642  0.3461 -0.0236
  518TIP3    H125749   5.229   6.378   8.216 -1.6516 -0.6766 -0.1507
  518TIP3    H225750   5.220   6.305   8.349  1.0916  0.2498  0.6202
  519TIP3   OH225751   6.751   3.179   9.653  0.2776 -0.6641  0.1392
  519TIP3    H125752   6.799   3.116   9.599 -0.9372 -1.2776 -0.2754
  519TIP3    H225753   6.661   3.145   9.654 -0.3532  0.9245  0.1318
  520TIP3   OH225754   1.321   6.100   8.981 -0.0092 -0.4225  0.2199
  520TIP3    H125755   1.410   6.071   8.997  0.0597 -0.4867 -0.2600
  520TIP3    H225756   1.326   6.196   8.983  0.1812 -0.4192 -0.3865
  521TIP3   OH225757   6.677   0.657   7.829 -0.0011 -0.0038  0.6574
  521TIP3    H125758   6.680   0.588   7.764 -1.2709  0.3154  0.2103
  521TIP3    H225759   6.768   0.675   7.851  0.3702 -1.2286  0.1627
  522TIP3   OH225760   0.292   1.383   7.816  0.3587 -0.0489 -0.2902
  522TIP3    H125761   0.225   1.372   7.747 -0.9861 -0.8861  1.0909
  522TIP3    H225762   0.364   1.326   7.788 -0.5674 -1.1373 -0.5584
  523TIP3   OH225763   1.071   1.169   8.900  0.7237 -0.5516  0.4429
  523TIP3    H125764   0.988   1.122   8.900 -0.3312  1.2300  0.7389
  523TIP3    H225765   1.098   1.170   8.992  0.8198 -0.7120  0.4164
  524TIP3   OH225766   4.626   5.537   9.136 -0.1110  0.2194 -0.1295
  524TIP3    H125767   4.578   5.619   9.127 -0.4240  0.3009  1.8031
  524TIP3    H225768   4.615   5.494   9.052 -1.9347  1.1166 -0.4188
  525TIP3   OH225769   2.738   6.321   7.195 -0.1697 -0.1011  0.1742
  525TIP3    H125770   2.696   6.341   7.112 -0.5686 -0.3902  0.3006
  525TIP3    H225771   2.811   6.382   7.201 -1.4808  1.4742  0.6631
  526TIP3   OH225772   1.160   1.474   9.040 -0.1262 -0.2140 -0.1393
  526TIP3    H125773   1.148   1.392   8.992  0.6915  0.3650 -1.3712
  526TIP3    H225774   1.143   1.542   8.975 -1.3195  0.6179  1.0004
  527TIP3   OH225775   5.704   2.959   7.909 -0.3625  0.0160  0.1080
  527TIP3    H125776   5.748   3.028   7.958  0.3283 -0.8560  0.7383
  527TIP3    H225777   5.620   2.948   7.954  0.4054 -1.0130  1.3477
  528TIP3   OH225778   7.321   3.172   7.631  0.1765 -0.1147 -0.5145
  528TIP3    H125779   7.323   3.163   7.726 -0.6215 -1.0361 -0.5647
  528TIP3    H225780   7.329   3.266   7.616 -1.3109  0.2258  0.5457
  529TIP3   OH225781   3.528   5.273   8.441 -0.0876  0.1896 -0.1914
  529TIP3    H125782   3.561   5.188   8.469  0.0263  0.8632  1.8693
  529TIP3    H225783   3.464   5.298   8.508  0.1134  1.8681 -0.5715
  530TIP3   OH225784   3.129   7.290   9.422 -0.2357  0.6843  0.2683
  530TIP3    H125785   3.070   7.292   9.347  1.5583  1.4145 -1.1946
  530TIP3    H225786   3.197   7.227   9.398 -0.5554 -0.4579  2.0879
  531TIP3   OH225787   1.389   4.460   7.131  0.2976  0.1724  0.4885
  531TIP3    H125788   1.333   4.493   7.061  0.3128  0.0758  0.4302
  531TIP3    H225789   1.422   4.376   7.098 -1.3413 -0.9034  1.4429
  532TIP3   OH225790   7.325   7.050   7.931 -0.0077  0.5029  0.3531
  532TIP3    H125791   7.349   7.130   7.979  0.5470  1.2813 -1.1517
  532TIP3    H225792   7.407   7.003   7.919 -0.2039  0.1164  0.4988
  533TIP3   OH225793   0.811   3.611   8.089 -0.1687 -0.1547 -0.2169
  533TIP3    H125794   0.724   3.576   8.069 -0.3050 -0.8174  1.3888
  533TIP3    H225795   0.871   3.538   8.072  0.1424  0.3866 -1.5959
  534TIP3   OH225796   1.070   1.546   9.752 -0.4352 -0.3128 -1.0604
  534TIP3    H125797   0.978   1.521   9.765 -0.5720  1.0109  0.8283
  534TIP3    H225798   1.067   1.618   9.690 -0.4587 -1.5249 -2.5328
  535TIP3   OH225799   5.257   5.999   7.453 -0.2163 -0.6857 -0.0575
  535TIP3    H125800   5.186   6.061   7.470 -0.5308 -1.1748  0.4732
  535TIP3    H225801   5.329   6.029   7.509  0.9858  1.3476 -2.4539
  536TIP3   OH225802   0.725   5.273   9.078 -0.2546 -0.6865 -0.2352
  536TIP3    H125803   0.755   5.242   9.164  0.2563  0.0016 -0.1485
  536TIP3    H225804   0.774   5.354   9.065 -1.6237  0.1422 -0.3995
  537TIP3   OH225805   6.788   4.858   9.959  0.3499  0.9495 -0.0313
  537TIP3    H125806   6.831   4.930   9.913  0.4861  1.4293  0.8423
  537TIP3    H225807   6.849   4.784   9.948  0.7346  1.2566  0.0117
  538TIP3   OH225808   6.976   3.582   9.598 -0.0394  0.2288 -0.4298
  538TIP3    H125809   6.956   3.523   9.670  0.1196  0.9129  0.1965
  538TIP3    H225810   6.900   3.578   9.541 -0.4773  0.2107  0.1437
  539TIP3   OH225811   6.596   1.547   8.978  0.0889 -0.0595  0.2543
  539TIP3    H125812   6.621   1.558   8.886  0.2419  1.6092  0.4532
  539TIP3    H225813   6.670   1.500   9.018 -0.0652 -0.9667 -0.4993
  540TIP3   OH225814   7.356   3.024   8.648 -0.1871 -0.2108  0.3155
  540TIP3    H125815   7.359   3.106   8.698 -0.7685  0.0371 -0.0365
  540TIP3    H225816   7.308   3.047   8.568  0.6182 -0.6258 -0.3056
  541TIP3   OH225817   3.122   1.119   7.487 -0.7798 -0.2271  0.4682
  541TIP3    H125818   3.161   1.090   7.405 -2.3724 -2.3836  0.3840
  541TIP3    H225819   3.113   1.214   7.477  0.7901 -0.1921 -1.0343
  542TIP3   OH225820   6.998   5.098   7.719 -0.2006  0.2087 -0.7150
  542TIP3    H125821   6.959   5.120   7.634 -1.4203 -0.4031 -0.3349
  542TIP3    H225822   6.952   5.155   7.782  0.1800  0.1447 -0.3769
  543TIP3   OH225823   0.216   1.647   8.384  0.3896 -0.0780  0.1552
  543TIP3    H125824   0.220   1.582   8.453 -0.4999 -0.8631 -0.5044
  543TIP3    H225825   0.283   1.620   8.321  0.9288  0.4094  0.5170
  544TIP3   OH225826   1.473   2.417   9.451 -0.2584  0.1648 -0.1191
  544TIP3    H125827   1.532   2.351   9.413  1.8701  1.3963  0.8281
  544TIP3    H225828   1.428   2.371   9.522  3.4950  0.2505  2.6433
  545TIP3   OH225829   1.872   7.507   8.356 -0.2806 -0.0375 -0.3510
  545TIP3    H125830   1.832   7.585   8.319  0.8996  0.8907  0.2539
  545TIP3    H225831   1.904   7.458   8.280 -0.8456  0.1686 -0.7231
  546TIP3   OH225832   5.055   2.473   8.913 -0.3147  0.6353  0.5553
  546TIP3    H125833   4.963   2.490   8.893 -0.2390  2.4130  1.5566
  546TIP3    H225834   5.099   2.480   8.829 -1.1073 -0.5984  0.0010
  547TIP3   OH225835   0.429   2.346   9.514 -0.0181  0.0264 -0.5948
  547TIP3    H125836   0.488   2.273   9.531 -0.2115  0.1331  0.6049
  547TIP3    H225837   0.348   2.305   9.483 -0.0344 -0.2503 -0.1824
  548TIP3   OH225838   2.709   6.771   7.262 -0.0760  0.1675  0.4951
  548TIP3    H125839   2.617   6.784   7.285 -0.6022 -3.1905  0.6916
  548TIP3    H225840   2.714   6.797   7.170 -1.5945 -0.9111  0.0621
  549TIP3   OH225841   4.240   0.454   8.368 -0.2338  0.1295  0.1897
  549TIP3    H125842   4.147   0.454   8.391 -0.1691 -1.9768  0.7006
  549TIP3    H225843   4.285   0.475   8.450 -0.2405  0.7892  0.0271
  550TIP3   OH225844   4.382   0.216   7.454  0.3739 -0.1027 -0.1554
  550TIP3    H125845   4.426   0.163   7.388 -1.0823 -1.8024  0.1569
  550TIP3    H225846   4.318   0.268   7.405 -0.2191 -0.8452 -0.1998
  551TIP3   OH225847   7.083   2.180   8.965 -0.3848  0.1117 -0.1989
  551TIP3    H125848   7.060   2.090   8.938  3.7397 -1.0940 -0.3119
  551TIP3    H225849   7.028   2.196   9.042 -2.9665 -1.4828 -1.5473
  552TIP3   OH225850   2.402   7.433   8.532  0.1280 -0.1684 -0.2212
  552TIP3    H125851   2.474   7.371   8.519  1.2046  0.4601  2.1420
  552TIP3    H225852   2.325   7.378   8.544  0.5605 -0.9353 -0.8396
  553TIP3   OH225853   4.526   3.497   9.408  0.5145  0.0429 -0.2879
  553TIP3    H125854   4.541   3.582   9.449  1.2601 -0.1731 -0.1102
  553TIP3    H225855   4.592   3.439   9.446 -0.3464 -0.7610  0.0189
  554TIP3   OH225856   4.509   4.482   8.786  0.3688  0.2753 -0.2193
  554TIP3    H125857   4.511   4.443   8.874  0.6703 -0.3967 -0.5113
  554TIP3    H225858   4.527   4.408   8.728 -0.1701  0.6504 -0.8699
  555TIP3   OH225859   2.236   3.531   7.828  0.1112 -0.1857 -0.0644
  555TIP3    H125860   2.187   3.604   7.866  1.3500  0.6289  0.0559
  555TIP3    H225861   2.192   3.512   7.746  0.9952  2.1796 -1.1780
  556TIP3   OH225862   3.729   6.034   9.037  0.4892  0.4273 -0.6150
  556TIP3    H125863   3.728   5.948   8.994  2.2883 -0.2930  0.6854
  556TIP3    H225864   3.659   6.030   9.101 -0.1691  0.3572 -1.3301
  557TIP3   OH225865   0.006   0.434   8.768 -0.0523  0.8255  0.0037
  557TIP3    H125866  -0.052   0.400   8.700  0.1439 -1.0961  0.7198
  557TIP3    H225867   0.052   0.507   8.726 -1.8284  1.4085 -1.0607
  558TIP3   OH225868   3.174   1.960   9.610  0.2572  0.0526 -0.6806
  558TIP3    H125869   3.117   1.909   9.668 -2.3802  0.5958 -2.6419
  558TIP3    H225870   3.250   1.904   9.596 -0.8286 -1.7258  0.2070
  559TIP3   OH225871   6.158   5.310   9.194  0.1077 -0.6860 -0.0111
  559TIP3    H125872   6.235   5.313   9.251  0.4607  3.3099 -0.3693
  559TIP3    H225873   6.190   5.342   9.109 -1.6603 -0.1838 -0.5300
  560TIP3   OH225874   6.599   2.899   9.458  0.3051 -0.3134 -0.2848
  560TIP3    H125875   6.629   2.811   9.481  0.5210 -0.0649  0.4213
  560TIP3    H225876   6.673   2.956   9.481 -0.2776  0.1842  0.4130
  561TIP3   OH225877   0.307   4.036   7.929 -0.0755 -0.4157  0.1600
  561TIP3    H125878   0.403   4.037   7.927 -0.0391 -1.8156  0.2104
  561TIP3    H225879   0.282   4.118   7.887  1.1449 -0.8947 -1.6207
  562TIP3   OH225880   2.168   7.177   7.136 -0.0593  0.1808 -0.6302
  562TIP3    H125881   2.214   7.177   7.052  0.9660 -2.2293 -0.1713
  562TIP3    H225882   2.142   7.086   7.149 -1.1665  0.6926  1.1665
  563TIP3   OH225883   5.992   6.452   9.042 -0.5289  0.4234 -0.6339
  563TIP3    H125884   6.018   6.502   9.119 -2.2206 -0.0701  0.2890
  563TIP3    H225885   5.902   6.479   9.025 -0.7142 -0.6613 -1.4675
  564TIP3   OH225886   6.561   6.621   8.010 -0.8259 -0.1291 -0.4407
  564TIP3    H125887   6.635   6.581   8.055  0.9147  1.8336 -1.3479
  564TIP3    H225888   6.515   6.670   8.078 -0.4314 -0.2115 -0.1129
  565TIP3   OH225889   5.697   0.426   8.536  0.5597 -0.5346 -0.1176
  565TIP3    H125890   5.707   0.505   8.588  1.1864  0.3811 -1.5682
  565TIP3    H225891   5.732   0.356   8.591  1.4632  0.4387  0.5829
  566TIP3   OH225892   6.493   7.267   8.638 -0.5319 -0.4122  0.3466
  566TIP3    H125893   6.447   7.220   8.568  1.6380 -0.5255 -1.0949
  566TIP3    H225894   6.470   7.359   8.625 -0.0940 -0.4254 -0.6010
  567TIP3   OH225895   7.157   7.054   8.431  0.4002 -0.7107 -0.2072
  567TIP3    H125896   7.097   7.102   8.375  0.7491 -1.1011 -0.9365
  567TIP3    H225897   7.122   7.064   8.520 -1.7243 -2.3408 -0.7836
  568TIP3   OH225898   0.673   5.499   7.185 -0.1804 -0.2362  0.3447
  568TIP3    H125899   0.629   5.417   7.165  0.1870 -0.1579 -0.8659
  568TIP3    H225900   0.631   5.564   7.129 -1.6742  0.8102  2.5421
  569TIP3   OH225901   5.921   2.804   9.413  0.1233  0.6811  0.4991
  569TIP3    H125902   5.946   2.886   9.455  1.4820 -0.3430  1.8238
  569TIP3    H225903   5.922   2.739   9.484  1.6095 -0.9427 -0.9021
  570TIP3   OH225904   3.624   4.438   8.495 -0.1572 -0.4855 -0.3422
  570TIP3    H125905   3.580   4.405   8.417 -0.6677  0.5639 -0.5241
  570TIP3    H225906   3.574   4.516   8.519  0.2771 -0.5270  0.7610
  571TIP3   OH225907   3.987   2.361   7.668 -0.3848 -0.3006 -0.2186
  571TIP3    H125908   4.010   2.446   7.707 -0.8210 -0.3519  0.1630
  571TIP3    H225909   4.068   2.310   7.671 -0.2639 -0.0921  0.0719
  572TIP3   OH225910   2.359   6.245   9.352  0.8346 -0.0832  0.3697
  572TIP3    H125911   2.375   6.154   9.377  1.7104 -0.1497 -0.3609
  572TIP3    H225912   2.415   6.296   9.411  0.4612 -0.0154  0.6736
  573TIP3   OH225913   6.342   5.073   6.683 -0.2297  0.2378 -0.4006
  573TIP3    H125914   6.374   5.163   6.669  0.1798 -0.0973 -1.7996
  573TIP3    H225915   6.412   5.031   6.732 -0.1554  0.5297 -0.2547
  574TIP3   OH225916   4.782   0.992   9.194  0.5969 -0.2447 -0.3446
  574TIP3    H125917   4.829   0.944   9.126  0.2877 -0.1525 -0.6213
  574TIP3    H225918   4.826   1.077   9.198  0.6055 -0.2450 -0.4373
  575TIP3   OH225919   1.828   4.435   9.359 -0.1465  0.0367  0.6401
  575TIP3    H125920   1.836   4.340   9.347  1.6761  0.3167 -0.7201
  575TIP3    H225921   1.900   4.472   9.308  0.5957  2.0579  2.9637
  576TIP3   OH225922   0.142   3.423   9.126 -0.5522  0.4382  0.0590
  576TIP3    H125923   0.192   3.485   9.179 -1.3088  1.7382 -0.7073
  576TIP3    H225924   0.068   3.474   9.093 -0.5359 -0.5497 -1.5991
  577TIP3   OH225925   0.888   6.921   8.665  0.6868  0.2085  0.0348
  577TIP3    H125926   0.954   6.953   8.603  2.2443 -1.0217  0.9830
  577TIP3    H225927   0.832   6.864   8.612  1.9913 -0.8218 -0.2856
  578TIP3   OH225928   1.022   1.930   7.422  0.1106  0.0060 -0.1966
  578TIP3    H125929   0.997   1.843   7.393  0.8088  0.2580 -1.6497
  578TIP3    H225930   0.958   1.989   7.383  2.1155  0.5412 -3.0476
  579TIP3   OH225931   7.093   5.771   9.890 -0.4757 -0.4126  0.7688
  579TIP3    H125932   7.062   5.861   9.887 -0.1249 -0.3001  0.5101
  579TIP3    H225933   7.156   5.769   9.962  1.7677  0.2807 -1.0593
  580TIP3   OH225934   1.043   4.944   9.034 -0.0898  0.0154 -0.0678
  580TIP3    H125935   1.097   5.022   9.034  1.0629 -0.7380 -0.8891
  580TIP3    H225936   1.010   4.938   8.944 -1.0935  0.1497  0.2772
  581TIP3   OH225937   1.882   1.773   8.546  0.1024  0.4639  0.2854
  581TIP3    H125938   1.865   1.709   8.616  0.9255 -1.2657 -1.0115
  581TIP3    H225939   1.820   1.750   8.477  1.6033 -0.1479 -0.9138
  582TIP3   OH225940   1.285   7.306   7.425 -0.0721 -0.3291 -0.6295
  582TIP3    H125941   1.330   7.357   7.358 -0.9731  0.3498 -0.7317
  582TIP3    H225942   1.316   7.216   7.412  0.4259 -0.0543 -1.3805
  583TIP3   OH225943   2.482   1.362   8.165  0.9392 -0.4149  0.0871
  583TIP3    H125944   2.564   1.392   8.204  1.2959 -1.6921  0.3443
  583TIP3    H225945   2.455   1.287   8.219 -0.7598  0.3841  0.4339
  584TIP3   OH225946   6.402   5.331   6.730 -0.1270 -0.2604  0.0490
  584TIP3    H125947   6.470   5.350   6.666 -0.3760 -1.2712 -0.5262
  584TIP3    H225948   6.357   5.415   6.743  0.0121 -0.0139 -1.0038
  585TIP3   OH225949   1.664   2.031   9.182  0.2807  0.3093  0.5496
  585TIP3    H125950   1.575   1.997   9.172  0.1044  0.9047  0.0589
  585TIP3    H225951   1.712   1.994   9.108  0.1510  0.9032  0.1591
  586TIP3   OH225952   0.320   2.911   8.494 -0.0401 -0.2383  0.5828
  586TIP3    H125953   0.379   2.936   8.566  0.4192  2.1156 -0.5209
  586TIP3    H225954   0.234   2.903   8.535  0.5615 -1.1142  1.7495
  587TIP3   OH225955   3.820   0.708   7.044 -0.1668  0.1927  0.2376
  587TIP3    H125956   3.744   0.651   7.058 -0.1692  0.6721  2.3983
  587TIP3    H225957   3.867   0.707   7.127  3.0967 -1.3005 -1.4156
  588TIP3   OH225958   0.462   2.669   7.724  0.4061  0.3387  0.3055
  588TIP3    H125959   0.388   2.619   7.689  2.0294 -1.2004 -1.1051
  588TIP3    H225960   0.475   2.634   7.812  0.7188 -0.8730 -0.2016
  589TIP3   OH225961   4.994   4.333   7.759  0.4759 -0.2759  0.2706
  589TIP3    H125962   5.023   4.308   7.671  0.1439 -2.0220  0.6220
  589TIP3    H225963   4.900   4.317   7.758  0.1319  1.5726  0.3675
  590TIP3   OH225964   0.994   0.743   9.548 -0.0017 -0.2428 -0.1076
  590TIP3    H125965   0.962   0.824   9.508  0.7225 -0.1006 -0.4215
  590TIP3    H225966   0.930   0.722   9.616  0.5310  1.3535  0.9283
  591TIP3   OH225967   5.582   4.597   9.345  0.0999  0.1208  0.3293
  591TIP3    H125968   5.487   4.606   9.339  0.1785  0.6206 -0.1681
  591TIP3    H225969   5.608   4.659   9.413  0.1524  0.5243 -0.0572
  592TIP3   OH225970   3.602   1.620   8.756  0.3545  0.2304  0.3254
  592TIP3    H125971   3.621   1.685   8.824  0.5723  0.2541  0.2440
  592TIP3    H225972   3.599   1.671   8.675 -0.1215  0.2352  0.3432
  593TIP3   OH225973   2.738   7.398   8.835 -0.1933  0.2206  0.1502
  593TIP3    H125974   2.729   7.469   8.770  0.0124 -0.1098 -0.2469
  593TIP3    H225975   2.675   7.332   8.807  1.4380 -0.9071 -1.0515
  594TIP3   OH225976   3.077   4.180   9.344 -0.0982  0.0997 -0.0873
  594TIP3    H125977   3.149   4.118   9.355 -0.0146  0.1630 -0.2691
  594TIP3    H225978   3.047   4.165   9.254 -1.0206 -0.6836  0.3312
  595TIP3   OH225979   5.381   4.273   9.240  0.0081 -0.3111  0.0388
  595TIP3    H125980   5.387   4.356   9.193 -2.4032 -0.7398 -1.2032
  595TIP3    H225981   5.373   4.299   9.332  2.2538  0.6568  0.0164
  596TIP3   OH225982   5.755   6.480   6.608 -0.0907 -0.1539 -0.0669
  596TIP3    H125983   5.842   6.478   6.569 -0.2211 -0.5690 -0.3411
  596TIP3    H225984   5.769   6.515   6.696  0.2864  0.2203 -0.2760
  597TIP3   OH225985   3.501   7.374   9.408 -0.2894  0.5614 -0.3024
  597TIP3    H125986   3.484   7.350   9.316 -0.0443 -0.1777 -0.1640
  597TIP3    H225987   3.487   7.292   9.456 -0.3914  0.9425  0.3182
  598TIP3   OH225988   0.651   5.924   7.461  0.2691  0.4093  0.6031
  598TIP3    H125989   0.708   5.853   7.491  0.2578  0.1099 -0.0664
  598TIP3    H225990   0.706   5.974   7.400 -0.5466 -0.6132 -1.0262
  599TIP3   OH225991   1.881   1.964   7.924 -0.0493  0.0270  0.1043
  599TIP3    H125992   1.904   1.917   8.003  0.0637 -0.0298  0.0379
  599TIP3    H225993   1.811   2.024   7.951 -0.0812 -0.0646  0.2233
  600TIP3   OH225994   0.803   5.396   8.569  0.2946  0.4158  0.0972
  600TIP3    H125995   0.879   5.365   8.519  1.4086  2.0373  0.6880
  600TIP3    H225996   0.803   5.343   8.648  0.9687  0.5456  0.1942
  601TIP3   OH225997   4.976   0.705   7.672  0.3174 -0.7151 -0.0542
  601TIP3    H125998   4.999   0.702   7.579 -0.1604  0.0358 -0.2074
  601TIP3    H225999   4.907   0.639   7.682  0.8815 -1.3199 -0.0709
  602TIP3   OH226000   6.986   2.844   7.753  0.2514  0.4431  0.5472
  602TIP3    H126001   7.029   2.925   7.782 -1.4253  2.0315 -1.1024
  602TIP3    H226002   6.896   2.853   7.784  0.1479 -1.0392  0.7145
  603TIP3   OH226003   6.321   1.010   7.671  0.4274  0.4027 -0.2078
  603TIP3    H126004   6.376   0.962   7.733 -0.3443  0.4198  0.5137
  603TIP3    H226005   6.332   1.102   7.695  0.9183  0.4882 -0.7599
  604TIP3   OH226006   3.836   6.951   7.975 -0.5024  0.0975 -0.8760
  604TIP3    H126007   3.919   6.944   8.023 -1.3141 -1.3561  0.4187
  604TIP3    H226008   3.798   7.035   8.004  0.3493  0.6173 -1.2373
  605TIP3   OH226009   1.470   7.445   9.230 -0.7125 -0.8571 -0.0743
  605TIP3    H126010   1.539   7.473   9.291 -0.2880 -1.1376 -0.4209
  605TIP3    H226011   1.517   7.412   9.154 -1.2470  0.3783 -0.9776
  606TIP3   OH226012   4.310   0.869   8.865 -0.5689  0.3812  0.5793
  606TIP3    H126013   4.388   0.829   8.826 -1.3936  0.2514 -0.9946
  606TIP3    H226014   4.267   0.797   8.911  0.7331  0.6679  2.3306
  607TIP3   OH226015   0.285   1.229   7.598  0.0053 -0.5205 -0.0031
  607TIP3    H126016   0.350   1.202   7.534 -1.2260 -1.7759 -0.7692
  607TIP3    H226017   0.205   1.240   7.548 -0.8252 -0.8451  1.2147
  608TIP3   OH226018   6.350   2.321   9.384 -0.3052  0.6594 -0.1236
  608TIP3    H126019   6.430   2.272   9.404  0.3183  1.8185  0.3121
  608TIP3    H226020   6.380   2.396   9.333 -1.2293  0.6825 -0.6718
  609TIP3   OH226021   1.362   0.190   8.742 -0.4321  0.0131  0.0194
  609TIP3    H126022   1.377   0.124   8.810  0.2689  0.7142  0.5649
  609TIP3    H226023   1.335   0.139   8.665  0.0873 -0.9109  0.4264
  610TIP3   OH226024   0.679   0.994   8.391 -0.1257 -0.1449  0.0676
  610TIP3    H126025   0.654   0.902   8.391 -1.0639  0.1026  0.0166
  610TIP3    H226026   0.758   0.998   8.337 -0.9458 -0.6992 -1.2208
  611TIP3   OH226027   6.735   7.029   8.870  0.2893 -0.3507  0.7450
  611TIP3    H126028   6.666   6.965   8.850  0.5636  0.2019 -2.4057
  611TIP3    H226029   6.746   7.078   8.789  2.1075  1.8075  2.1988
  612TIP3   OH226030   5.844   5.100   8.410 -0.6963 -0.6842  0.4405
  612TIP3    H126031   5.820   5.016   8.447 -5.4426  0.3357  0.3275
  612TIP3    H226032   5.916   5.081   8.350 -0.9571 -4.4379  1.1200
  613TIP3   OH226033   0.678   0.425   7.530  0.1867 -0.3893 -0.5053
  613TIP3    H126034   0.687   0.495   7.595 -0.5323 -1.6359  0.9740
  613TIP3    H226035   0.624   0.464   7.461  0.2988  0.7030 -0.0063
  614TIP3   OH226036   5.682   5.518   9.583 -0.0621  0.1108  0.4144
  614TIP3    H126037   5.691   5.555   9.495  0.7301  1.5341  1.0579
  614TIP3    H226038   5.757   5.553   9.631 -0.5574 -0.5313  1.6997
  615TIP3   OH226039   6.270   5.813   8.868  0.5377 -0.3773 -0.3044
  615TIP3    H126040   6.276   5.803   8.963 -0.6936  0.5936 -0.1012
  615TIP3    H226041   6.315   5.896   8.850 -1.1940  0.6152 -0.2590
  616TIP3   OH226042   7.478   6.973   9.818 -0.8032  0.2053  0.3536
  616TIP3    H126043   7.523   6.899   9.776  0.0823 -0.1438  1.8642
  616TIP3    H226044   7.385   6.953   9.807 -0.5816 -1.2775  0.9601
  617TIP3   OH226045   4.901   1.887   7.723 -0.4631 -0.4756  0.0896
  617TIP3    H126046   4.957   1.923   7.792 -1.0088 -2.1736  1.5119
  617TIP3    H226047   4.946   1.807   7.695 -1.7564 -1.4425  0.6919
  618TIP3   OH226048   1.656   0.856   7.988 -0.4095 -0.1560  0.1181
  618TIP3    H126049   1.603   0.801   8.046 -0.8653 -0.4753 -0.5920
  618TIP3    H226050   1.715   0.794   7.945  2.0528  0.3837  2.3911
  619TIP3   OH226051   0.140   7.509   7.488  0.5414 -0.2422  0.4124
  619TIP3    H126052   0.154   7.527   7.395 -0.2593 -1.7097 -0.0097
  619TIP3    H226053   0.056   7.465   7.492 -0.8511  2.3217  2.1728
  620TIP3   OH226054   5.341   7.154   8.755  0.2808 -0.7231 -0.3289
  620TIP3    H126055   5.359   7.227   8.815 -0.7549 -1.3583  0.7937
  620TIP3    H226056   5.288   7.192   8.685 -1.0128 -0.5397  0.7113
  621TIP3   OH226057   1.287   6.029   6.828 -1.2120  0.3653 -0.0145
  621TIP3    H126058   1.329   6.044   6.913  0.1088  0.8414 -0.7148
  621TIP3    H226059   1.236   5.949   6.840  1.2933 -1.2963  0.4436
  622TIP3   OH226060   1.493   3.532   8.831  0.4549 -0.0921 -0.1526
  622TIP3    H126061   1.483   3.534   8.926 -1.8296 -0.9488 -0.3144
  622TIP3    H226062   1.479   3.440   8.807  1.3599  0.0480 -1.3030
  623TIP3   OH226063   5.189   3.017   7.701  0.1036  0.6106  0.6915
  623TIP3    H126064   5.108   3.000   7.749 -0.0463  0.4507  0.3841
  623TIP3    H226065   5.163   3.072   7.628  0.4252  1.3308  1.1067
  624TIP3   OH226066   1.651   3.172   8.004  0.2548  0.3887 -0.3271
  624TIP3    H126067   1.586   3.242   8.003 -0.6836 -0.4332  0.3756
  624TIP3    H226068   1.734   3.215   7.987  0.0022  1.9655  2.0798
  625TIP3   OH226069   3.863   2.395   8.944 -0.2620  0.8008 -0.4338
  625TIP3    H126070   3.842   2.403   9.037 -0.3180  1.1073 -0.4732
  625TIP3    H226071   3.778   2.382   8.902 -0.2511  0.8034 -0.4568
  626TIP3   OH226072   5.655   4.491   7.591  0.7788 -0.2731 -0.4123
  626TIP3    H126073   5.740   4.534   7.589 -0.6918  2.8969 -1.8518
  626TIP3    H226074   5.654   4.438   7.511  0.4166  2.0126 -2.0190
  627TIP3   OH226075   2.981   4.508   8.408 -0.1934 -0.4122  0.3819
  627TIP3    H126076   2.966   4.587   8.460 -0.5270  0.1068 -0.4857
  627TIP3    H226077   3.056   4.530   8.352  3.0900 -2.4172  3.5496
  628TIP3   OH226078   5.357   5.336   7.732  0.2063 -0.1221  0.0886
  628TIP3    H126079   5.422   5.403   7.710  0.1734  0.3214  1.2388
  628TIP3    H226080   5.377   5.263   7.674  2.8015 -0.6392  1.4392
  629TIP3   OH226081   4.513   6.844   7.501 -0.3217 -0.3242 -0.0118
  629TIP3    H126082   4.422   6.817   7.490 -0.6722  1.1782 -1.0791
  629TIP3    H226083   4.509   6.940   7.504  1.0648 -0.2672  1.6104
  630TIP3   OH226084   0.085   0.677   9.330  0.0221 -0.8033 -0.3469
  630TIP3    H126085   0.152   0.706   9.268 -0.1185  0.3334  0.0044
  630TIP3    H226086   0.120   0.596   9.368 -0.0573 -1.7360 -2.1712
  631TIP3   OH226087   1.768   5.725   7.632  0.3283  0.3116 -0.5211
  631TIP3    H126088   1.691   5.680   7.595 -0.0502  0.5506 -0.0423
  631TIP3    H226089   1.731   5.802   7.674  0.6760 -0.2277  0.8173
  632TIP3   OH226090   7.120   4.515   6.986 -0.1908 -0.1687 -0.3017
  632TIP3    H126091   7.045   4.527   7.045 -1.3940 -0.8111 -1.6328
  632TIP3    H226092   7.122   4.421   6.969  1.7396 -0.3454  0.7064
  633TIP3   OH226093   5.731   4.860   7.551  0.1602  0.3243 -0.2243
  633TIP3    H126094   5.805   4.874   7.610  0.6155  0.5811 -0.8457
  633TIP3    H226095   5.760   4.790   7.492  0.2711  1.0362 -1.0428
  634TIP3   OH226096   2.601   5.053   8.516 -0.3249  0.4756  0.3075
  634TIP3    H126097   2.694   5.040   8.536 -0.4531 -1.1796 -0.0391
  634TIP3    H226098   2.557   5.049   8.600 -0.0623  1.7879  0.5362
  635TIP3   OH226099   2.318   7.326   8.105  0.0323 -0.3898 -0.0718
  635TIP3    H126100   2.282   7.407   8.142 -0.0539  0.2619 -1.5129
  635TIP3    H226101   2.267   7.312   8.025  1.2647 -0.8613 -0.7916
  636TIP3   OH226102   4.830   7.293   7.588  0.3451 -0.1868 -0.3423
  636TIP3    H126103   4.848   7.200   7.593  0.1071 -0.2045  0.3720
  636TIP3    H226104   4.826   7.322   7.680  0.5196  0.5407 -0.5539
  637TIP3   OH226105   3.577   5.960   7.272  0.1271  0.3080  0.0258
  637TIP3    H126106   3.588   5.868   7.296  0.0768  0.1818 -0.4297
  637TIP3    H226107   3.518   5.995   7.339 -0.7861 -0.2765 -0.4507
  638TIP3   OH226108   6.289   3.268   9.263  0.0076  0.2031 -0.9230
  638TIP3    H126109   6.345   3.192   9.249 -0.5504 -0.1968 -0.9952
  638TIP3    H226110   6.207   3.247   9.217  0.1035  1.1495 -1.5620
  639TIP3   OH226111   5.022   1.946   9.186  0.0365  0.1602  0.1337
  639TIP3    H126112   5.111   1.967   9.157  0.0385 -0.3143 -0.2108
  639TIP3    H226113   4.968   2.016   9.149  0.1780  0.0960 -0.2057
  640TIP3   OH226114   5.289   5.551   9.427  0.1880 -0.0092  0.1227
  640TIP3    H126115   5.378   5.564   9.461  0.8172  0.6287 -1.6519
  640TIP3    H226116   5.276   5.623   9.365 -0.8856 -1.1052 -0.9849
  641TIP3   OH226117   0.430   6.573   6.656 -0.3563 -0.7442  0.1082
  641TIP3    H126118   0.506   6.571   6.598 -1.0107 -2.0297 -0.7492
  641TIP3    H226119   0.453   6.637   6.724  1.0876 -0.4147 -0.6565
  642TIP3   OH226120   6.362   7.258   6.781 -0.3468  0.0556 -0.1214
  642TIP3    H126121   6.384   7.349   6.760 -3.1385  0.8374 -0.1711
  642TIP3    H226122   6.306   7.230   6.709 -0.1331 -1.4644  0.2731
  643TIP3   OH226123   3.768   6.204   8.140  0.3715 -0.1449 -0.2369
  643TIP3    H126124   3.749   6.295   8.163 -0.7693  0.3154 -2.6110
  643TIP3    H226125   3.685   6.170   8.108  0.9515 -1.8140 -0.0541
  644TIP3   OH226126   7.501   1.867   8.117  0.0726 -0.0348  0.3035
  644TIP3    H126127   7.494   1.795   8.179 -1.7501  0.2759  0.5242
  644TIP3    H226128   7.510   1.945   8.171  2.2961 -0.0496  0.0631
  645TIP3   OH226129   4.071   7.275   8.119 -0.0916 -0.1060 -0.1923
  645TIP3    H126130   4.013   7.251   8.191 -0.3547  0.0011 -0.3669
  645TIP3    H226131   4.022   7.340   8.069  0.4334  0.4512  0.0160
  646TIP3   OH226132   2.936   0.695   7.505 -0.4698 -0.4171  1.0428
  646TIP3    H126133   2.923   0.788   7.487  1.7001  0.1505  2.0557
  646TIP3    H226134   3.003   0.668   7.442  0.5406 -0.6776  2.1742
  647TIP3   OH226135   0.928   3.145   8.630  0.9071 -0.1618  0.2657
  647TIP3    H126136   0.834   3.131   8.643  1.0893 -1.0350  0.6866
  647TIP3    H226137   0.954   3.200   8.704  0.6370  0.5327 -0.1404
  648TIP3   OH226138   2.154   4.311   8.594  0.2389  0.3805 -0.0549
  648TIP3    H126139   2.204   4.390   8.572  1.0550 -0.1592 -0.1867
  648TIP3    H226140   2.168   4.253   8.520 -1.6343  0.6762 -0.6959
  649TIP3   OH226141   2.946   2.634   8.812 -0.1911  0.5673 -0.2763
  649TIP3    H126142   2.945   2.540   8.797  1.4147  0.5331 -0.4362
  649TIP3    H226143   3.013   2.647   8.880 -0.1436  1.6056 -0.4925
  650TIP3   OH226144   7.482   7.080   6.654 -0.2516 -0.4192  0.0878
  650TIP3    H126145   7.503   7.151   6.593 -1.0591 -2.0926 -2.3025
  650TIP3    H226146   7.389   7.090   6.672  0.1894  0.6715  1.9623
  651TIP3   OH226147   0.135   5.207   7.511  0.3434 -0.2390 -0.2166
  651TIP3    H126148   0.049   5.189   7.473  0.5779  0.4157 -1.0876
  651TIP3    H226149   0.176   5.268   7.450  1.7886 -1.2408 -0.3054
  652TIP3   OH226150   6.215   6.260   6.637 -0.4800  0.4213 -0.1893
  652TIP3    H126151   6.137   6.298   6.677  0.9008  2.9792  0.2923
  652TIP3    H226152   6.233   6.317   6.562  0.6927 -0.3773 -0.5384
  653TIP3   OH226153   5.695   0.383   7.260 -0.5208  0.3641 -0.5918
  653TIP3    H126154   5.738   0.298   7.251  0.6201  0.6529  1.5374
  653TIP3    H226155   5.761   0.446   7.233 -0.1996  0.7244  0.9868
  654TIP3   OH226156   2.239   5.544   7.491 -0.1970 -0.0329  0.2383
  654TIP3    H126157   2.227   5.576   7.402  0.3450  1.4604  0.6694
  654TIP3    H226158   2.331   5.517   7.494 -0.4716 -1.0512  0.0811
  655TIP3   OH226159   3.961   0.591   7.624 -0.0711  0.2916  0.4570
  655TIP3    H126160   3.869   0.570   7.640 -1.1564  1.8874 -2.6937
  655TIP3    H226161   3.997   0.511   7.585 -0.6487  0.2191  0.0545
  656TIP3   OH226162   0.292   3.596   9.298 -0.0266  0.3483  0.2696
  656TIP3    H126163   0.244   3.611   9.380 -0.0964  0.5261  0.1978
  656TIP3    H226164   0.383   3.585   9.325  0.1435  1.6174  0.2737
  657TIP3   OH226165   5.631   2.225   8.230  0.1020  0.1235  0.3841
  657TIP3    H126166   5.636   2.162   8.158  1.3844 -0.6349  1.1036
  657TIP3    H226167   5.662   2.308   8.192 -0.0978 -0.0455 -0.1608
  658TIP3   OH226168   0.180   4.973   9.801 -0.2517  0.1086  0.1853
  658TIP3    H126169   0.189   5.049   9.744 -1.0603  2.7435  3.2912
  658TIP3    H226170   0.268   4.938   9.808  0.2240  1.0131 -0.9602
  659TIP3   OH226171   3.882   1.404   8.694  0.1992 -0.5082 -0.3150
  659TIP3    H126172   3.938   1.478   8.670  1.2622 -1.4464 -0.8106
  659TIP3    H226173   3.892   1.396   8.789 -0.0789  0.0958 -0.2302
  660TIP3   OH226174   6.182   2.314   8.576  0.0051 -0.0813  0.1060
  660TIP3    H126175   6.158   2.302   8.484 -1.3338 -1.1181  0.5651
  660TIP3    H226176   6.236   2.237   8.597  0.7398  0.4120  0.0673
  661TIP3   OH226177   1.204   5.758   9.018 -0.1453  0.6934  0.0486
  661TIP3    H126178   1.296   5.765   9.041 -0.0785 -0.8361  0.3980
  661TIP3    H226179   1.194   5.807   8.937  1.3778 -0.6400 -0.9984
  662TIP3   OH226180   0.770   3.591   6.683 -0.0517 -0.2594  0.0417
  662TIP3    H126181   0.834   3.594   6.754 -0.4401 -0.3769  0.4005
  662TIP3    H226182   0.817   3.626   6.607  0.0584  0.8526  0.5972
  663TIP3   OH226183   2.061   2.455   8.296  0.1863 -0.5796 -0.2220
  663TIP3    H126184   2.009   2.529   8.267 -1.2009 -1.1631  0.6864
  663TIP3    H226185   2.071   2.400   8.218 -0.4480 -0.3910 -0.4384
  664TIP3   OH226186   4.846   0.361   8.141  0.1551 -0.9484 -0.1977
  664TIP3    H126187   4.805   0.434   8.187  2.2168  0.7410 -0.8590
  664TIP3    H226188   4.827   0.284   8.195  0.1937  0.5096  2.0061
  665TIP3   OH226189   1.737   6.780   8.475 -0.0867  0.2457  0.2566
  665TIP3    H126190   1.812   6.822   8.434 -0.2980  0.9560  0.5755
  665TIP3    H226191   1.772   6.700   8.513  0.4130  0.3400  0.0034
  666TIP3   OH226192   4.395   6.468   8.280  0.4519 -0.1352 -0.1379
  666TIP3    H126193   4.317   6.468   8.336  0.8071 -1.7350  0.4200
  666TIP3    H226194   4.429   6.379   8.286  0.9334 -0.1541 -2.3562
  667TIP3   OH226195   3.608   5.263   9.113  0.2938 -0.4454 -0.3232
  667TIP3    H126196   3.552   5.302   9.181  1.5051 -0.7453  0.9008
  667TIP3    H226197   3.626   5.174   9.145  2.2195 -0.0494 -0.1775
  668TIP3   OH226198   1.522   0.952   6.783  0.4974 -0.7502  0.0023
  668TIP3    H126199   1.474   0.875   6.753 -0.8893  0.4552 -1.0266
  668TIP3    H226200   1.462   1.026   6.767  1.1009  0.3936  2.5000
  669TIP3   OH226201   6.086   4.469   8.647 -0.5409 -0.1125  0.0139
  669TIP3    H126202   6.060   4.440   8.559 -0.0664 -0.6390  0.0473
  669TIP3    H226203   6.038   4.412   8.706 -0.4690 -0.0907  0.0924
  670TIP3   OH226204   6.991   6.716   8.962 -0.1181 -0.6358  0.0065
  670TIP3    H126205   6.903   6.678   8.960 -1.0948  1.4515  0.4108
  670TIP3    H226206   7.002   6.755   8.875  0.4159 -0.9235 -0.0540
  671TIP3   OH226207   4.557   3.299   7.719  0.4667  0.2427 -0.1443
  671TIP3    H126208   4.600   3.359   7.658  1.6556 -1.1178 -0.7036
  671TIP3    H226209   4.494   3.250   7.666  1.5395 -0.9792 -0.3488
  672TIP3   OH226210   0.595   5.140   8.112 -0.5189 -0.0087  0.4339
  672TIP3    H126211   0.638   5.122   8.195 -0.8454 -0.3649  0.5314
  672TIP3    H226212   0.662   5.123   8.046 -0.3349  0.0245  0.6116
  673TIP3   OH226213   6.348   2.190   7.524  0.1162  1.0595  0.4121
  673TIP3    H126214   6.356   2.234   7.440 -1.7037  0.2547 -0.2231
  673TIP3    H226215   6.342   2.261   7.588 -1.3471  1.7297 -0.4369
  674TIP3   OH226216   3.443   3.783   7.333  0.6737  0.0652 -0.8818
  674TIP3    H126217   3.466   3.761   7.243  0.2509  0.7467 -1.1625
  674TIP3    H226218   3.489   3.865   7.350  1.9153 -0.7658  0.0213
  675TIP3   OH226219   3.511   6.984   8.058 -0.0815 -0.0637  0.0688
  675TIP3    H126220   3.512   6.891   8.081 -0.6486 -0.6790 -2.1004
  675TIP3    H226221   3.571   7.025   8.120 -0.7414 -1.6554  1.8697
  676TIP3   OH226222   7.435   3.109   8.182  0.1511 -0.1463 -0.5803
  676TIP3    H126223   7.443   3.047   8.110  1.3365 -1.9514  1.0213
  676TIP3    H226224   7.453   3.058   8.261 -3.9542  1.0308  1.3939
  677TIP3   OH226225   6.111   6.539   9.263  0.2319  0.3166  0.6901
  677TIP3    H126226   6.171   6.614   9.260  0.5701  0.0322 -0.4897
  677TIP3    H226227   6.148   6.481   9.330  0.2871  0.9470  1.2060
  678TIP3   OH226228   2.504   2.610   9.274 -0.3166 -0.0644 -0.2007
  678TIP3    H126229   2.491   2.552   9.198 -1.6857  2.3140 -1.8968
  678TIP3    H226230   2.589   2.651   9.257  0.6129 -1.4014  0.9600
  679TIP3   OH226231   6.672   4.734   9.597  0.1188 -0.5397  0.2009
  679TIP3    H126232   6.640   4.732   9.687 -0.0884 -1.4479  0.1188
  679TIP3    H226233   6.638   4.815   9.560 -1.3690 -1.0558  0.3789
  680TIP3   OH226234   1.252   0.086   9.217  0.5399  0.5860 -0.2234
  680TIP3    H126235   1.215   0.111   9.301 -0.5913 -0.0176 -0.5341
  680TIP3    H226236   1.319   0.021   9.238  1.4816  1.6964  0.3393
  681TIP3   OH226237   6.813   6.497   7.593  0.5690 -0.0901  0.1837
  681TIP3    H126238   6.806   6.402   7.591  1.3039 -0.1526  0.3632
  681TIP3    H226239   6.832   6.521   7.503  2.2469 -0.2845  0.4492
  682TIP3   OH226240   1.983   2.448   7.212  0.0628 -0.2963  0.1092
  682TIP3    H126241   2.011   2.422   7.299 -0.1530 -1.6870 -0.2129
  682TIP3    H226242   2.015   2.537   7.202  1.0291 -0.5015  1.1934
  683TIP3   OH226243   1.171   5.916   8.067  0.5313  0.0310  0.1064
  683TIP3    H126244   1.236   5.848   8.086  0.5427  0.4115  1.6133
  683TIP3    H226245   1.099   5.897   8.128  0.0555  0.7121 -0.2368
  684TIP3   OH226246   1.292   3.553   8.528  0.8464  0.4924  0.4781
  684TIP3    H126247   1.328   3.633   8.566  0.9743  0.6704 -0.0032
  684TIP3    H226248   1.261   3.580   8.442  3.1306 -0.4580 -0.7477
  685TIP3   OH226249   4.621   5.994   9.250 -0.1202 -0.6980 -0.3795
  685TIP3    H126250   4.664   5.958   9.173 -0.9053  1.5949 -1.9810
  685TIP3    H226251   4.649   6.086   9.253 -1.3601 -0.3238  1.1681
  686TIP3   OH226252   5.955   0.208   8.438  0.0072 -0.5345  0.5772
  686TIP3    H126253   5.910   0.125   8.454  0.2597 -0.9442 -0.7169
  686TIP3    H226254   5.901   0.252   8.373 -0.3733  0.5477  1.5947
  687TIP3   OH226255   2.920   0.035   8.949 -0.5788 -0.2710 -0.1498
  687TIP3    H126256   2.874   0.051   9.031  1.6737  0.0456  1.1398
  687TIP3    H226257   2.889  -0.051   8.920 -1.3731 -0.4145  1.0529
  688TIP3   OH226258   3.774   2.672   8.740 -0.0556 -0.1507 -0.4461
  688TIP3    H126259   3.694   2.630   8.708 -1.0312  0.8474  0.5741
  688TIP3    H226260   3.827   2.685   8.662 -0.8499 -0.9274 -1.1375
  689TIP3   OH226261   6.837   5.263   8.249  0.0685 -0.1114 -0.0063
  689TIP3    H126262   6.768   5.201   8.224 -1.6473  1.5483  0.3925
  689TIP3    H226263   6.846   5.253   8.343 -0.5233  0.5259  0.1244
  690TIP3   OH226264   0.194   6.982   8.604  0.0981  0.2557  0.2147
  690TIP3    H126265   0.280   7.011   8.635  0.5154  0.0792 -0.7358
  690TIP3    H226266   0.154   6.939   8.679  0.7809  0.4681  0.7075
  691TIP3   OH226267   4.704   5.417   8.453 -0.0604 -0.4254  0.0320
  691TIP3    H126268   4.728   5.343   8.398  0.7113 -0.2420  0.1165
  691TIP3    H226269   4.785   5.441   8.498 -0.5368 -0.1734  0.7706
  692TIP3   OH226270   0.924   3.068   9.589 -0.1054 -0.1259  0.2333
  692TIP3    H126271   0.945   3.105   9.503  0.3702 -1.0109 -0.0471
  692TIP3    H226272   0.954   3.135   9.651  0.6039  0.0343 -0.2569
  693TIP3   OH226273   1.182   0.304   8.350  0.0286  0.0909  0.4694
  693TIP3    H126274   1.184   0.252   8.431 -1.8579 -3.1897 -1.3562
  693TIP3    H226275   1.248   0.263   8.294  0.0166  1.1107 -0.3242
  694TIP3   OH226276   3.552   6.498   9.203 -0.2056  0.0779 -0.2012
  694TIP3    H126277   3.622   6.515   9.139 -0.5546  0.8608 -0.3874
  694TIP3    H226278   3.573   6.412   9.239  2.0736  1.1764  1.3325
  695TIP3   OH226279   6.565   6.064   9.020  0.3085  0.5226  0.2765
  695TIP3    H126280   6.480   6.081   8.980  0.2838 -1.8390 -0.8025
  695TIP3    H226281   6.544   6.016   9.101  0.5303 -3.7777 -1.9193
  696TIP3   OH226282   4.366   5.848   7.157  0.1058 -0.8098 -0.3078
  696TIP3    H126283   4.363   5.826   7.250 -1.3219 -0.3515 -0.2101
  696TIP3    H226284   4.275   5.869   7.135  0.6472  0.5085 -1.4575
  697TIP3   OH226285   7.462   3.656   7.480 -0.3626 -0.1337 -0.1590
  697TIP3    H126286   7.490   3.571   7.447  0.6381  0.6398 -1.4192
  697TIP3    H226287   7.405   3.690   7.411 -0.9471  0.1306  0.4424
  698TIP3   OH226288   0.128   6.665   8.631 -0.5521 -0.6172  0.4871
  698TIP3    H126289   0.187   6.740   8.635 -1.5965  0.1735  1.4208
  698TIP3    H226290   0.146   6.625   8.545 -1.7005  2.1166 -1.1297
  699TIP3   OH226291   2.509   0.831   7.747  0.5241 -0.1919 -0.1533
  699TIP3    H126292   2.456   0.754   7.769  0.6136  0.5976  3.4849
  699TIP3    H226293   2.581   0.796   7.695 -0.3413 -2.2752 -0.0695
  700TIP3   OH226294   2.406   3.020   8.106 -0.5974 -0.1564  0.4212
  700TIP3    H126295   2.428   3.025   8.199 -1.9234 -0.1316  0.7535
  700TIP3    H226296   2.469   3.077   8.063  1.5357 -1.9436  1.0005
  701TIP3   OH226297   4.193   1.988   8.685  0.3427  0.2206 -0.0877
  701TIP3    H126298   4.230   1.906   8.652  1.6528  0.7919 -0.0846
  701TIP3    H226299   4.229   2.056   8.629  2.6518  1.2259  2.3735
  702TIP3   OH226300   2.746   4.521   8.783 -0.0760  0.0099 -0.4896
  702TIP3    H126301   2.829   4.485   8.752  1.5882  1.2155  2.1947
  702TIP3    H226302   2.738   4.488   8.873 -2.7709 -0.3975 -0.7904
  703TIP3   OH226303   3.099   0.156   8.251 -0.0268 -0.0226 -0.0374
  703TIP3    H126304   3.188   0.146   8.283 -0.0083 -0.3331 -0.1755
  703TIP3    H226305   3.109   0.191   8.163  0.0922 -2.2979 -1.0160
  704TIP3   OH226306   3.029   4.509   9.203  0.3359  0.5610 -0.5932
  704TIP3    H126307   3.014   4.558   9.122  0.7681  0.2424 -0.8667
  704TIP3    H226308   3.028   4.417   9.177  1.0400  0.4710 -0.3404
  705TIP3   OH226309   1.672   1.334   7.505  0.2147 -0.4120  0.3010
  705TIP3    H126310   1.676   1.410   7.447  0.8807 -0.3879  0.3716
  705TIP3    H226311   1.763   1.317   7.530 -0.1141  0.0301  1.9319
  706TIP3   OH226312   1.968   2.764   8.549  0.2798 -0.1395  0.4556
  706TIP3    H126313   2.029   2.835   8.569  1.4656 -0.9056 -0.2826
  706TIP3    H226314   1.897   2.806   8.501  1.6668  0.3843 -1.2693
  707TIP3   OH226315   3.685   5.276   8.020 -0.0933 -0.0067 -0.1825
  707TIP3    H126316   3.595   5.263   8.052 -0.1764  0.1429 -0.3538
  707TIP3    H226317   3.674   5.295   7.927  0.1331 -0.2316 -0.2553
  708TIP3   OH226318   0.015   6.792   8.243  0.4649 -0.4044 -0.2041
  708TIP3    H126319   0.042   6.822   8.156  1.1463  0.4731  0.2956
  708TIP3    H226320   0.009   6.872   8.295 -0.2664 -0.8886  0.4749
  709TIP3   OH226321   5.040   0.232   6.956  0.2317 -0.4752 -0.3550
  709TIP3    H126322   5.133   0.245   6.973 -0.3416  0.1866  2.8946
  709TIP3    H226323   5.025   0.139   6.971  0.0514 -0.2152  1.1961
  710TIP3   OH226324   1.603   1.300   6.914 -0.3333  0.0420  0.4108
  710TIP3    H126325   1.618   1.379   6.862 -1.8627 -0.8452 -1.5286
  710TIP3    H226326   1.531   1.255   6.869 -1.0418 -1.3402  2.7407
  711TIP3   OH226327   2.415   1.408   9.127 -0.2859  0.3979 -0.2478
  711TIP3    H126328   2.350   1.379   9.191  0.9489  1.2514  1.4840
  711TIP3    H226329   2.444   1.327   9.085 -2.0462 -0.0468 -0.6710
  712TIP3   OH226330   2.423   6.916   7.360 -0.1052  0.3766  0.1334
  712TIP3    H126331   2.458   6.900   7.447  2.2387  0.4546 -0.7158
  712TIP3    H226332   2.409   7.011   7.356 -0.1653  0.3779  0.3981
  713TIP3   OH226333   3.169   3.485   8.849  0.9808 -0.0983 -0.3262
  713TIP3    H126334   3.253   3.483   8.802  1.2122  1.1373 -0.0017
  713TIP3    H226335   3.107   3.520   8.785  1.3877  2.0143  0.3720
  714TIP3   OH226336   1.308   2.422   9.179  1.0803  0.6629  0.0300
  714TIP3    H126337   1.397   2.386   9.182  1.1477  0.6801 -1.4333
  714TIP3    H226338   1.319   2.511   9.146  0.5585  0.8624  0.3836
  715TIP3   OH226339   3.998   5.076   9.573 -0.4793 -0.1328  0.3023
  715TIP3    H126340   3.975   5.109   9.487 -1.1690 -1.8989 -0.2376
  715TIP3    H226341   4.091   5.098   9.584 -0.4682  0.3811 -0.7533
  716TIP3   OH226342   7.231   6.395   8.357 -0.1500  0.0566 -0.1031
  716TIP3    H126343   7.246   6.450   8.281  2.7410  0.3671  0.5572
  716TIP3    H226344   7.318   6.364   8.381 -1.1110 -0.9810  2.3841
  717TIP3   OH226345   0.712   5.583   8.792 -0.1651  0.1016  0.2865
  717TIP3    H126346   0.744   5.523   8.724 -2.4503 -1.6749  0.6427
  717TIP3    H226347   0.776   5.575   8.863 -0.3026 -1.8818  0.2512
  718TIP3   OH226348   6.436   0.963   7.166 -0.6203 -0.2509 -0.2056
  718TIP3    H126349   6.498   1.004   7.104  0.6419 -2.9308 -0.8687
  718TIP3    H226350   6.350   0.976   7.125 -0.4337  2.3412  0.0385
  719TIP3   OH226351   2.028   0.157   6.946 -0.4194  0.0025 -0.0028
  719TIP3    H126352   2.026   0.064   6.921  0.5955  0.1123 -0.5484
  719TIP3    H226353   2.113   0.188   6.915 -0.3330  0.8819  1.0438
  720TIP3   OH226354   1.407   6.846   7.224 -0.2030  0.3148 -0.4892
  720TIP3    H126355   1.412   6.790   7.301 -0.4344  0.5961 -0.2680
  720TIP3    H226356   1.445   6.794   7.154 -2.7020 -1.1664 -0.8746
  721TIP3   OH226357   1.887   0.781   8.243  0.0038 -0.4745 -0.8504
  721TIP3    H126358   1.923   0.870   8.235 -0.2021 -0.4731 -1.9676
  721TIP3    H226359   1.946   0.736   8.303  0.1840  0.3793 -0.3727
  722TIP3   OH226360   4.072   4.224   7.167  0.1210  0.2125 -0.3336
  722TIP3    H126361   4.005   4.279   7.207 -0.7886 -1.8554  1.1650
  722TIP3    H226362   4.044   4.214   7.077 -2.2902 -1.4876  0.5020
  723TIP3   OH226363   2.396   0.691   7.348 -0.0116  0.4243  0.4872
  723TIP3    H126364   2.391   0.596   7.335 -1.0126  0.3506  1.3273
  723TIP3    H226365   2.393   0.728   7.260 -1.2647 -0.2720  0.2191
  724TIP3   OH226366   4.686   5.366   7.527 -0.0991 -0.6832  0.3865
  724TIP3    H126367   4.591   5.358   7.534 -0.1076 -1.0898 -0.1347
  724TIP3    H226368   4.703   5.365   7.433  0.2931  0.9553  0.4145
  725TIP3   OH226369   6.311   4.975   7.034 -0.1669 -0.3715  0.0486
  725TIP3    H126370   6.248   4.903   7.026 -0.1141 -0.3134 -1.0134
  725TIP3    H226371   6.396   4.933   7.044 -0.0871 -0.4619 -0.9881
  726TIP3   OH226372   2.153   6.064   8.217  0.5687  0.2599 -0.4332
  726TIP3    H126373   2.079   6.124   8.217  1.0290  0.8549 -1.2515
  726TIP3    H226374   2.184   6.063   8.308  0.0311  0.6015 -0.2467
  727TIP3   OH226375   6.057   6.841   7.883  0.2070 -0.1406  0.0561
  727TIP3    H126376   6.010   6.799   7.811 -1.7259  1.0597  0.5420
  727TIP3    H226377   5.995   6.842   7.955  1.5526  0.1316  1.2624
  728TIP3   OH226378   4.596   5.109   9.719 -0.0640  0.0380  0.1589
  728TIP3    H126379   4.538   5.183   9.735  1.5298  1.1126  1.2057
  728TIP3    H226380   4.684   5.143   9.735  0.8723 -1.5894 -1.1571
  729TIP3   OH226381   0.214   0.314   7.473 -0.2807 -0.0390  0.3203
  729TIP3    H126382   0.291   0.260   7.487 -0.7112 -0.5096  0.9472
  729TIP3    H226383   0.216   0.336   7.379 -0.5252 -1.8195 -0.1428
  730TIP3   OH226384   4.807   0.532   9.268 -0.0113 -0.1440 -0.0247
  730TIP3    H126385   4.774   0.515   9.180 -0.7850 -1.2065  0.4514
  730TIP3    H226386   4.900   0.550   9.255  0.0268 -0.9416 -0.9933
  731TIP3   OH226387   1.834   4.095   7.421 -0.0457 -0.4735  0.1544
  731TIP3    H126388   1.755   4.113   7.369 -0.4969  1.3987  1.3963
  731TIP3    H226389   1.892   4.049   7.360 -1.9609 -1.6694 -0.8744
  732TIP3   OH226390   2.209   4.550   8.471  0.3255  0.3115 -0.4226
  732TIP3    H126391   2.241   4.614   8.534  0.7265 -0.9436  0.7077
  732TIP3    H226392   2.126   4.586   8.439  0.0297  0.9066  0.9583
  733TIP3   OH226393   6.980   4.255   8.503 -0.2427  0.2982 -0.1304
  733TIP3    H126394   7.024   4.255   8.418 -1.3430  0.4011 -0.7098
  733TIP3    H226395   6.887   4.264   8.482 -0.3728  2.7353  1.1468
  734TIP3   OH226396   3.492   0.558   7.816 -0.4538 -0.0499 -0.2451
  734TIP3    H126397   3.569   0.533   7.764  0.5203 -1.7479  1.8513
  734TIP3    H226398   3.507   0.650   7.838  0.2862  0.0209 -1.0017
  735TIP3   OH226399   1.177   1.093   9.486  0.2293 -0.7685  0.1775
  735TIP3    H126400   1.236   1.113   9.559  0.0511 -1.3423  0.4898
  735TIP3    H226401   1.208   1.008   9.454  0.3529 -0.4843 -0.4698
  736TIP3   OH226402   5.724   5.996   7.925  0.6162 -0.1158 -0.1920
  736TIP3    H126403   5.702   6.080   7.965  0.1397  0.2409 -1.1752
  736TIP3    H226404   5.812   5.976   7.958  0.6874  0.7057  0.1435
  737TIP3   OH226405   3.692   0.463   7.644  0.2505  0.1178 -0.1017
  737TIP3    H126406   3.663   0.515   7.569 -0.8698 -0.0220  0.2170
  737TIP3    H226407   3.699   0.374   7.610 -0.9775 -0.0785  0.1183
  738TIP3   OH226408   3.498   4.084   9.246  0.5908  0.1721  0.3343
  738TIP3    H126409   3.480   4.111   9.336  2.2818 -2.7656  1.7092
  738TIP3    H226410   3.415   4.050   9.214  0.6338 -1.7360  2.0389
  739TIP3   OH226411   0.037   4.234   8.237  0.4290  0.6878 -0.3746
  739TIP3    H126412   0.123   4.223   8.278  1.1169  3.4544 -0.8520
  739TIP3    H226413  -0.024   4.191   8.298  2.0181 -0.5000  0.4582
  740TIP3   OH226414   5.752   2.895   8.782 -0.3020  0.0169 -0.1048
  740TIP3    H126415   5.819   2.826   8.788  0.6220  0.9216  0.2089
  740TIP3    H226416   5.684   2.868   8.845  0.6919  0.0719  1.0259
  741TIP3   OH226417   0.626   6.100   8.461 -0.2653  0.3239  0.4390
  741TIP3    H126418   0.668   6.105   8.376 -1.1394 -1.7772 -0.1644
  741TIP3    H226419   0.549   6.157   8.453  0.6354  1.6133  0.5022
  742TIP3   OH226420   6.948   6.823   9.405  0.6087  0.2601  0.4281
  742TIP3    H126421   6.861   6.849   9.433 -0.1792 -1.0979 -0.6226
  742TIP3    H226422   6.992   6.904   9.381 -0.6345  0.8879  0.2318
  743TIP3   OH226423   6.512   6.327   7.578 -0.3367 -0.0975  0.8760
  743TIP3    H126424   6.507   6.247   7.630 -0.1170  0.6942  2.1388
  743TIP3    H226425   6.523   6.397   7.642 -1.1502  1.0229 -0.1744
  744TIP3   OH226426   1.820   6.046   7.942  0.1138 -0.6541 -0.0142
  744TIP3    H126427   1.812   6.051   8.037  0.0696  0.0381 -0.0491
  744TIP3    H226428   1.866   5.963   7.926  1.4041 -0.0960  0.6895
  745TIP3   OH226429   7.215   4.402   7.995 -0.2450 -0.0601 -0.0521
  745TIP3    H126430   7.269   4.330   7.962 -0.7348 -0.2463 -0.4647
  745TIP3    H226431   7.160   4.361   8.062  0.1720  0.1451  0.4209
  746TIP3   OH226432   3.728   0.667   8.604  0.6383  0.9113 -0.1809
  746TIP3    H126433   3.754   0.634   8.518  0.7143 -0.3472  0.3018
  746TIP3    H226434   3.633   0.654   8.607  0.6135  1.0973 -0.1287
  747TIP3   OH226435   6.808   6.172   7.231 -0.1621  0.5661  0.1437
  747TIP3    H126436   6.857   6.152   7.311 -1.1587  1.6426  1.0736
  747TIP3    H226437   6.820   6.096   7.175  0.2134 -0.4092  1.5010
  748TIP3   OH226438   5.136   1.174   8.666  0.0196 -0.3314 -0.0958
  748TIP3    H126439   5.104   1.262   8.687 -0.1167 -0.8722  2.1742
  748TIP3    H226440   5.222   1.189   8.625  0.0781  0.8549  0.4286
  749TIP3   OH226441   0.619   5.912   8.237  0.2221  0.5997  0.1109
  749TIP3    H126442   0.698   5.873   8.274  0.0015  0.9345  0.9623
  749TIP3    H226443   0.580   5.843   8.184 -0.0044 -0.2553  1.3397
  750TIP3   OH226444   3.936   5.268   8.693  0.2730 -0.1108 -0.2311
  750TIP3    H126445   3.942   5.295   8.601  0.2569 -0.7185 -0.4093
  750TIP3    H226446   4.010   5.311   8.735 -0.5179  1.3267 -0.2369
  751TIP3   OH226447   1.561   2.394   7.570  0.8476 -0.0177 -0.3663
  751TIP3    H126448   1.584   2.303   7.587  0.5287  0.0520  0.4898
  751TIP3    H226449   1.598   2.442   7.644  1.3169  0.5991 -0.9944
  752TIP3   OH226450   4.194   3.769   9.359  0.1224  0.0347  0.6842
  752TIP3    H126451   4.283   3.761   9.324 -1.5396  0.4656 -4.5023
  752TIP3    H226452   4.174   3.863   9.353 -1.2697 -0.2841 -0.2397
  753TIP3   OH226453   6.684   0.186   9.669  0.4550  0.0348  0.4396
  753TIP3    H126454   6.593   0.181   9.640  0.2012  0.4681  1.1219
  753TIP3    H226455   6.693   0.274   9.704  0.6598 -0.5320  1.8879
  754TIP3   OH226456   0.220   3.909   6.861 -0.2680  0.4797  0.2802
  754TIP3    H126457   0.167   3.839   6.899  1.3466  1.0091  3.9315
  754TIP3    H226458   0.160   3.957   6.804 -2.1120 -2.2441 -0.2299
  755TIP3   OH226459   6.637   2.344   7.236  0.4187 -0.5146 -0.8213
  755TIP3    H126460   6.666   2.430   7.268 -0.6173 -0.1744 -0.7437
  755TIP3    H226461   6.542   2.352   7.231  0.3467 -1.5279 -1.2256
  756TIP3   OH226462   4.318   4.788   9.218  0.0884  0.5496  0.2741
  756TIP3    H126463   4.276   4.773   9.132  0.1471 -1.5664  0.5628
  756TIP3    H226464   4.266   4.858   9.257 -1.2109  0.1618 -0.6752
  757TIP3   OH226465   7.230   5.582   9.174  0.0093  0.1046 -0.1443
  757TIP3    H126466   7.170   5.612   9.242 -1.6407  0.2841 -1.6081
  757TIP3    H226467   7.257   5.494   9.202  2.0558  1.4036  2.3660
  758TIP3   OH226468   7.385   3.128   9.437 -0.2333 -0.6489  0.2825
  758TIP3    H126469   7.367   3.040   9.469  0.2852 -0.3487  1.4432
  758TIP3    H226470   7.365   3.124   9.343  0.2943 -2.1385  0.2039
  759TIP3   OH226471   5.092   0.598   9.268  0.4835  0.2098  0.0016
  759TIP3    H126472   5.082   0.561   9.356  0.0330  0.6214  0.1246
  759TIP3    H226473   5.185   0.586   9.248  0.8187  1.0748  0.9645
  760TIP3   OH226474   0.161   1.142   9.282  0.0528  0.0759  0.3117
  760TIP3    H126475   0.244   1.122   9.326  1.0210  1.5232 -0.7537
  760TIP3    H226476   0.181   1.129   9.189 -0.8294  0.7262  0.0256
  761TIP3   OH226477   3.159   6.634   8.373 -0.0415 -0.1882  1.0689
  761TIP3    H126478   3.227   6.687   8.414  1.1146 -1.9036  1.4982
  761TIP3    H226479   3.105   6.602   8.446  0.6160 -1.3671  1.0628
  762TIP3   OH226480   1.722   7.128   9.230  0.0795 -0.1646  0.5271
  762TIP3    H126481   1.733   7.111   9.323  0.5856 -0.5760  0.4015
  762TIP3    H226482   1.771   7.209   9.215 -0.1914  0.0228  0.6619
  763TIP3   OH226483   2.647   2.044   7.435 -0.2169 -0.9898 -0.2989
  763TIP3    H126484   2.738   2.035   7.406  0.1930  0.4383  0.4325
  763TIP3    H226485   2.596   1.990   7.374  1.0219 -1.1027 -1.2569
  764TIP3   OH226486   3.871   3.467   8.188  0.2728  0.0925  0.0064
  764TIP3    H126487   3.800   3.408   8.163 -0.6086  1.6483 -1.3896
  764TIP3    H226488   3.876   3.530   8.116  1.5274  1.4071  1.1818
  765TIP3   OH226489   6.840   6.663   8.652  0.1768  0.2594  0.1875
  765TIP3    H126490   6.902   6.617   8.595  0.2738  1.6081 -0.8611
  765TIP3    H226491   6.884   6.745   8.674 -2.0830  2.4870 -2.6947
  766TIP3   OH226492   5.026   0.527   8.439 -0.5057 -0.1574  0.0929
  766TIP3    H126493   5.101   0.518   8.497 -0.1419  1.2043 -0.1469
  766TIP3    H226494   5.063   0.534   8.351 -0.9187  0.4061 -0.0412
  767TIP3   OH226495   6.096   5.463   8.571 -0.2683  0.3739 -0.5950
  767TIP3    H126496   6.049   5.383   8.596 -3.0394  1.7102 -1.1764
  767TIP3    H226497   6.112   5.508   8.654  1.5579 -0.8228 -0.2335
  768TIP3   OH226498   6.676   0.911   8.902  0.6263 -0.4518  0.1401
  768TIP3    H126499   6.658   0.998   8.867 -0.3674 -0.3108  0.9510
  768TIP3    H226500   6.726   0.927   8.982  0.7470 -0.6558  0.1090
  769TIP3   OH226501   4.754   3.254   8.385  0.0187  0.5362 -0.2569
  769TIP3    H126502   4.845   3.252   8.357  0.4502 -1.7328  1.0200
  769TIP3    H226503   4.756   3.294   8.472 -0.2113  0.5600 -0.2612
  770TIP3   OH226504   3.466   4.790   9.354  0.0817  0.1391  0.4358
  770TIP3    H126505   3.509   4.705   9.353 -0.4651 -0.1434 -0.7634
  770TIP3    H226506   3.373   4.770   9.342  0.0210  0.9210 -0.5569
  771TIP3   OH226507   4.758   6.081   6.812 -0.6095  0.1747  0.3497
  771TIP3    H126508   4.752   6.157   6.754 -0.6898  0.0183  0.1523
  771TIP3    H226509   4.774   6.008   6.753 -0.3848  0.0585  0.5520
  772TIP3   OH226510   4.710   6.283   7.933 -0.1929  0.4718  0.1485
  772TIP3    H126511   4.625   6.240   7.941 -0.1836  0.3698 -0.2417
  772TIP3    H226512   4.759   6.256   8.010  0.2193 -1.1480 -0.6265
  773TIP3   OH226513   7.360   0.026   8.818  0.3119  0.8691 -0.5832
  773TIP3    H126514   7.335  -0.032   8.747 -0.8060 -1.7990  1.7933
  773TIP3    H226515   7.282   0.079   8.835 -0.8019 -1.1884  1.0439
  774TIP3   OH226516   4.594   1.693   9.249 -0.2104 -0.1742  0.0785
  774TIP3    H126517   4.680   1.714   9.213  0.0237 -1.2925 -0.0612
  774TIP3    H226518   4.535   1.694   9.173  0.1366 -1.7342 -0.2612
  775TIP3   OH226519   2.355   7.186   7.351  0.0020 -0.0502  0.0067
  775TIP3    H126520   2.292   7.177   7.279  0.2247 -1.0211 -0.0842
  775TIP3    H226521   2.400   7.268   7.334 -0.7677  0.3140 -0.3088
  776TIP3   OH226522   6.459   1.325   8.886 -0.4591  0.4245  0.3615
  776TIP3    H126523   6.465   1.378   8.966  1.8554  0.2307  0.3701
  776TIP3    H226524   6.433   1.387   8.818 -1.1862  0.8437  0.9957
  777TIP3   OH226525   1.018   4.880   8.728 -0.3655  0.5242 -0.0995
  777TIP3    H126526   1.086   4.883   8.661  0.0440  2.3367  0.3607
  777TIP3    H226527   0.950   4.940   8.697 -0.8454  0.2497  0.4042
  778TIP3   OH226528   0.083   4.947   8.709 -0.2688 -0.0027  0.5891
  778TIP3    H126529  -0.007   4.978   8.712 -0.2705 -0.0616  1.3582
  778TIP3    H226530   0.096   4.902   8.793  0.6894  0.5980  0.7815
  779TIP3   OH226531   6.750   3.448   8.893  0.0513  0.3377  0.3481
  779TIP3    H126532   6.826   3.499   8.920 -1.5198  2.9596  0.1364
  779TIP3    H226533   6.771   3.417   8.805  1.4445 -0.2675  0.8763
  780TIP3   OH226534   6.405   4.300   8.106  0.1582  0.5634  0.2812
  780TIP3    H126535   6.499   4.304   8.086  0.2232 -0.2583  0.4237
  780TIP3    H226536   6.400   4.314   8.201  0.1242  0.6867  0.2620
  781TIP3   OH226537   2.397   3.153   8.609 -0.2536 -0.2412  0.5294
  781TIP3    H126538   2.346   3.229   8.638 -0.4943 -0.7851  1.5759
  781TIP3    H226539   2.450   3.187   8.536  0.1375  1.1118  1.3918
  782TIP3   OH226540   2.588   1.455   8.527  0.2989 -0.1511  0.0999
  782TIP3    H126541   2.570   1.491   8.614 -1.6393 -0.1988 -0.2365
  782TIP3    H226542   2.663   1.505   8.495  0.7802  0.1430  1.6212
  783TIP3   OH226543   4.375   4.305   9.343  0.0786  0.2560 -0.2439
  783TIP3    H126544   4.353   4.319   9.435  0.0037 -2.0211  0.1397
  783TIP3    H226545   4.454   4.250   9.345 -0.5052 -0.6978 -1.5040
  784TIP3   OH226546   1.158   4.001   7.615 -0.2006  0.4482  0.0718
  784TIP3    H126547   1.229   3.950   7.575  0.4576  1.8736 -0.6513
  784TIP3    H226548   1.174   4.090   7.586 -0.6427  1.2922  2.2405
  785TIP3   OH226549   6.190   5.132   7.728 -0.1110 -0.3677  0.0019
  785TIP3    H126550   6.269   5.174   7.695 -0.8175  0.1147 -1.1300
  785TIP3    H226551   6.172   5.176   7.812  0.2383  0.2359 -0.2386
  786TIP3   OH226552   1.290   4.314   9.330  0.7578 -0.1689 -0.1729
  786TIP3    H126553   1.243   4.251   9.276  0.6754 -1.2528  1.1083
  786TIP3    H226554   1.222   4.375   9.359  0.4031 -0.8220  0.4069
  787TIP3   OH226555   4.388   7.367   7.574 -0.2425  0.0498  0.0825
  787TIP3    H126556   4.440   7.353   7.653 -1.0856  1.2860  0.8789
  787TIP3    H226557   4.300   7.384   7.605 -0.9146 -0.8648 -1.2064
  788TIP3   OH226558   6.747   7.259   7.458 -0.4681  0.2494  0.2967
  788TIP3    H126559   6.759   7.172   7.420  1.9990  0.4319  0.5001
  788TIP3    H226560   6.798   7.318   7.402  0.8019  0.9785  2.1282
  789TIP3   OH226561   2.028   3.647   8.513  0.0954  0.4377 -0.3444
  789TIP3    H126562   1.954   3.678   8.463 -1.8136 -2.1773  0.6404
  789TIP3    H226563   2.017   3.687   8.600 -0.0860  0.1488 -0.2348
  790TIP3   OH226564   6.940   1.281   8.931  0.2157  0.7681 -0.1548
  790TIP3    H126565   6.907   1.225   8.861  1.7962  0.4304 -0.6691
  790TIP3    H226566   7.012   1.330   8.891  0.9385  0.8021  1.1205
  791TIP3   OH226567   3.122   6.256   8.226  0.1062  0.7728  0.7274
  791TIP3    H126568   3.080   6.342   8.221  0.7283  1.0531  0.2161
  791TIP3    H226569   3.114   6.220   8.138 -1.1623 -0.2004  1.1970
  792TIP3   OH226570   2.881   6.701   9.054  0.2556  0.1824 -0.1137
  792TIP3    H126571   2.789   6.702   9.081 -0.0013 -0.6602 -0.9418
  792TIP3    H226572   2.903   6.794   9.040  0.0110  0.5401  1.6191
  793TIP3   OH226573   3.135   4.756   8.141 -0.0642  0.4603  0.4854
  793TIP3    H126574   3.082   4.785   8.215  0.9853  1.1566  0.9910
  793TIP3    H226575   3.189   4.831   8.120 -2.0456  1.1924 -2.6456
  794TIP3   OH226576   5.180   5.817   9.314 -0.0733  0.7713 -0.0116
  794TIP3    H126577   5.108   5.760   9.288 -1.2557  1.3363  1.8281
  794TIP3    H226578   5.137   5.897   9.343  1.4804  2.1662 -1.3658
  795TIP3   OH226579   7.427   4.254   7.895 -0.4876 -0.0876  0.1943
  795TIP3    H126580   7.450   4.300   7.814 -1.5704  0.3814  0.1269
  795TIP3    H226581   7.480   4.175   7.894 -1.7438 -0.9760 -1.8904
  796TIP3   OH226582   2.414   1.779   8.236  0.0099  0.2934  0.4466
  796TIP3    H126583   2.484   1.728   8.195 -0.8391  0.9274 -1.9510
  796TIP3    H226584   2.422   1.867   8.199 -1.6927  0.5345  0.5323
  797TIP3   OH226585   2.409   2.345   8.553 -0.0242 -0.0432  0.1568
  797TIP3    H126586   2.369   2.272   8.505 -1.6347  0.3870  0.7666
  797TIP3    H226587   2.361   2.422   8.523 -0.8352  0.2876  2.1429
  798TIP3   OH226588   0.305   6.008   7.989 -0.0646 -0.0604  0.4130
  798TIP3    H126589   0.379   6.060   8.019  0.4605 -0.8721  0.5550
  798TIP3    H226590   0.259   5.983   8.069  0.0677 -0.3703  0.3940
  799TIP3   OH226591   0.767   7.376   9.781  0.3542  0.2911  0.3446
  799TIP3    H126592   0.809   7.342   9.860  0.9298  1.8977  0.7765
  799TIP3    H226593   0.674   7.356   9.793  0.7381 -1.9454  0.0877
  800TIP3   OH226594   0.791   1.397   9.337  0.3959  0.1536 -0.4763
  800TIP3    H126595   0.878   1.367   9.364  0.4596  0.5616 -0.2227
  800TIP3    H226596   0.763   1.332   9.272  1.4395  0.7332 -1.5421
  801TIP3   OH226597   5.938   2.613   9.059 -0.1423  0.1518 -0.1770
  801TIP3    H126598   5.898   2.700   9.060  0.3602  0.3854 -0.0959
  801TIP3    H226599   6.008   2.618   9.124  0.4007 -0.0639 -0.7344
  802TIP3   OH226600   5.390   4.734   8.720 -0.0399  0.2934  0.4427
  802TIP3    H126601   5.429   4.655   8.683 -0.9719 -0.7281  1.5693
  802TIP3    H226602   5.423   4.737   8.810 -2.0459 -0.2847  1.2451
  803TIP3   OH226603   0.099   3.258   9.529 -0.4405  0.5173  0.2800
  803TIP3    H126604   0.013   3.221   9.509  0.3736 -0.7185 -1.1319
  803TIP3    H226605   0.122   3.220   9.614 -0.8447  0.0147  0.1718
  804TIP3   OH226606   2.822   6.605   8.181  0.0186  0.2039 -0.0018
  804TIP3    H126607   2.820   6.585   8.274 -1.5367  0.4989  0.0490
  804TIP3    H226608   2.745   6.659   8.166  1.8459  2.7720 -0.8963
  805TIP3   OH226609   7.399   4.049   7.541 -0.0453 -0.0472  0.5474
  805TIP3    H126610   7.429   3.984   7.604 -2.2153 -1.8254 -0.1149
  805TIP3    H226611   7.429   4.016   7.456  1.9764  1.7980  0.4519
  806TIP3   OH226612   2.670   6.732   7.862  0.1001  0.2539 -0.1858
  806TIP3    H126613   2.714   6.647   7.858  0.2597  0.2922  0.5348
  806TIP3    H226614   2.577   6.712   7.862  0.1398  0.0674  0.1245
  807TIP3   OH226615   5.068   4.427   9.160  0.0170  0.5169  0.2727
  807TIP3    H126616   5.065   4.368   9.085  1.4183  0.8787 -0.0995
  807TIP3    H226617   5.049   4.371   9.235 -0.2023 -0.0936 -0.2279
  808TIP3   OH226618   0.453   6.125   8.825 -0.7495  0.5358  0.0503
  808TIP3    H126619   0.409   6.168   8.752 -0.2460  1.0795  0.0612
  808TIP3    H226620   0.540   6.165   8.828 -0.9998  1.0511  1.3886
  809TIP3   OH226621   0.431   5.937   9.036  0.2775 -0.3456 -0.3693
  809TIP3    H126622   0.445   5.866   8.972 -4.4519  0.3864 -2.6239
  809TIP3    H226623   0.410   6.013   8.983  1.8320  2.0056  2.1076
  810TIP3   OH226624   0.237   4.829   9.249 -0.5003 -0.5255 -0.9809
  810TIP3    H126625   0.182   4.841   9.327 -0.3681 -1.4657 -0.7331
  810TIP3    H226626   0.210   4.745   9.214  0.9085 -1.0933 -0.7534
  811TIP3   OH226627   2.517   0.571   7.949  0.1164  0.3050 -0.6479
  811TIP3    H126628   2.462   0.495   7.970 -1.1709  1.6683  1.2100
  811TIP3    H226629   2.601   0.533   7.922  0.2086 -1.7816  2.1969
  812TIP3   OH226630   5.455   4.061   9.084  0.1490  0.8390  0.0755
  812TIP3    H126631   5.409   4.135   9.125 -1.3026  0.4340 -0.7465
  812TIP3    H226632   5.451   3.991   9.149  2.8212  1.8541  1.4642
  813TIP3   OH226633   2.715   6.914   7.017  0.3745 -0.0435 -0.4059
  813TIP3    H126634   2.621   6.899   7.023  0.4125 -0.7889 -1.5262
  813TIP3    H226635   2.725   6.982   6.950  0.6998 -0.8226 -1.1594
  814TIP3   OH226636   5.818   3.178   8.022 -0.0730  0.3258  0.2201
  814TIP3    H126637   5.813   3.250   7.958  0.7065 -0.6702 -1.0236
  814TIP3    H226638   5.909   3.148   8.017 -0.5388 -1.1908  0.1622
  815TIP3   OH226639   6.320   2.414   9.083 -0.4684 -0.0113  0.1267
  815TIP3    H126640   6.297   2.419   8.990 -0.1628 -1.8053 -0.0964
  815TIP3    H226641   6.243   2.374   9.124  0.0758 -0.8869  0.3220
  816TIP3   OH226642   2.293   2.763   9.366 -0.1212  0.2902 -0.1203
  816TIP3    H126643   2.361   2.696   9.366 -1.1223 -0.7975 -1.7314
  816TIP3    H226644   2.337   2.841   9.333  0.2873 -0.5112 -1.5555
  817TIP3   OH226645   2.877   5.838   9.508  0.5788 -0.3418 -0.2948
  817TIP3    H126646   2.791   5.838   9.466 -0.1111 -2.0059  1.0237
  817TIP3    H226647   2.898   5.931   9.518 -0.6335  0.0957 -1.4548
  818TIP3   OH226648   6.006   6.299   6.822 -1.2587  0.1773 -0.4276
  818TIP3    H126649   5.961   6.378   6.791  0.5409  0.4691 -2.5473
  818TIP3    H226650   6.000   6.305   6.918 -2.0459  2.3641 -0.5399
  819TIP3   OH226651   0.976   6.859   8.013  0.1905 -0.1849  0.1222
  819TIP3    H126652   0.977   6.917   7.936  1.1323 -0.2316  0.0937
  819TIP3    H226653   0.930   6.781   7.983 -0.1924  0.1382 -0.1428
  820TIP3   OH226654   7.244   3.634   7.910  0.1972 -0.3473 -0.0080
  820TIP3    H126655   7.201   3.718   7.898  0.6926  0.0893  1.0780
  820TIP3    H226656   7.290   3.643   7.994  0.6821 -1.5161 -0.1307
  821TIP3   OH226657   3.289   7.227   7.713 -0.1160  0.4163  0.1048
  821TIP3    H126658   3.305   7.225   7.807  1.4455  1.0198 -0.1123
  821TIP3    H226659   3.326   7.144   7.680 -0.3168  0.3743 -0.0139
  822TIP3   OH226660   3.999   5.933   7.666  0.6026 -0.5340 -0.0285
  822TIP3    H126661   3.934   5.920   7.735  1.1573  1.1204  0.8642
  822TIP3    H226662   4.040   5.847   7.654 -1.2761 -1.4493 -0.1685
  823TIP3   OH226663   4.995   0.742   6.807 -0.2887  0.1997 -0.2285
  823TIP3    H126664   4.989   0.671   6.870  0.5083 -0.6754 -1.1090
  823TIP3    H226665   5.088   0.763   6.803 -0.4833  1.1116 -0.1841
  824TIP3   OH226666   6.424   0.001   8.598 -0.6561 -0.0159  0.0348
  824TIP3    H126667   6.331   0.022   8.604 -0.7991  0.0107 -1.7192
  824TIP3    H226668   6.468   0.086   8.599 -0.1297  0.0277  5.5514
  825TIP3   OH226669   5.566   4.288   7.160  0.1492 -0.2068 -0.1163
  825TIP3    H126670   5.630   4.233   7.115 -1.1393 -1.9079  0.0029
  825TIP3    H226671   5.484   4.274   7.112 -0.5658  0.3877  0.8769
  826TIP3   OH226672   3.894   4.895   7.365 -0.4412  0.3044  0.0128
  826TIP3    H126673   3.822   4.948   7.400  0.9149  2.0505  0.2442
  826TIP3    H226674   3.967   4.911   7.424  0.9840  0.8338 -1.8134
  827TIP3   OH226675   7.242   2.680   7.675  0.0470  0.4441 -0.2193
  827TIP3    H126676   7.157   2.722   7.660 -0.4545 -0.5924 -0.3804
  827TIP3    H226677   7.227   2.588   7.653  1.7237  0.5701 -2.1888
  828TIP3   OH226678   0.474   5.019   9.650 -0.4096  0.1491 -0.2447
  828TIP3    H126679   0.521   5.101   9.637 -0.8240  0.8429  2.1210
  828TIP3    H226680   0.384   5.039   9.628 -0.3065 -0.0256 -0.8362
  829TIP3   OH226681   2.793   2.943   9.109 -0.3254  0.2025  0.4821
  829TIP3    H126682   2.794   2.850   9.130 -0.1269  0.3919  1.3474
  829TIP3    H226683   2.803   2.987   9.193  0.5373  0.9917 -0.0023
  830TIP3   OH226684   5.692   3.741   9.056  0.6850 -0.6597  0.2763
  830TIP3    H126685   5.655   3.781   9.135  2.4774 -0.4950  1.0857
  830TIP3    H226686   5.712   3.815   8.999 -0.7569 -0.7890 -0.4357
  831TIP3   OH226687   3.832   6.344   8.434  0.0001 -0.6258  0.2734
  831TIP3    H126688   3.779   6.270   8.403 -1.7508  0.2755  0.9714
  831TIP3    H226689   3.810   6.416   8.375 -2.6093  0.8256  2.7548
  832TIP3   OH226690   5.486   5.338   9.608 -0.0306 -0.2687  0.2583
  832TIP3    H126691   5.547   5.409   9.633 -1.0623  1.4918 -1.8493
  832TIP3    H226692   5.528   5.297   9.532 -0.7668  0.0164 -0.3146
  833TIP3   OH226693   2.417   5.748   8.105 -0.1359 -0.0254  0.2584
  833TIP3    H126694   2.430   5.806   8.181 -0.6429 -0.1461  0.4406
  833TIP3    H226695   2.332   5.772   8.071  0.3776  0.4854 -0.6859
  834TIP3   OH226696   0.731   0.498   8.226  0.2160  0.0623  0.0059
  834TIP3    H126697   0.654   0.443   8.209  0.0622 -0.3514  1.8550
  834TIP3    H226698   0.773   0.457   8.301  1.5225  1.0478 -0.1629
  835TIP3   OH226699   2.553   6.674   8.200 -0.9364  0.2081 -0.6656
  835TIP3    H126700   2.535   6.614   8.272 -0.4435 -0.9827 -1.5042
  835TIP3    H226701   2.508   6.755   8.224  1.4614  0.8169  2.3237
  836TIP3   OH226702   1.187   4.660   9.055  0.0317 -0.1308  0.0795
  836TIP3    H126703   1.105   4.690   9.016  0.5883  0.0701 -0.9716
  836TIP3    H226704   1.251   4.669   8.985  0.9210 -0.4427  0.8392
  837TIP3   OH226705   6.612   2.851   7.953 -0.2564  0.7182 -0.4564
  837TIP3    H126706   6.563   2.783   8.000  1.6212 -0.0740  0.4429
  837TIP3    H226707   6.635   2.810   7.869  2.7800 -0.7213  0.9293
  838TIP3   OH226708   2.424   5.579   8.623 -0.1579  0.3877 -0.4634
  838TIP3    H126709   2.513   5.549   8.601 -0.3753 -0.1047 -0.6889
  838TIP3    H226710   2.434   5.673   8.637  0.5784  0.1882  0.4725
  839TIP3   OH226711   7.093   7.391   8.119 -0.6284 -0.0392 -0.0682
  839TIP3    H126712   7.065   7.347   8.199 -0.1256 -2.5948 -1.2150
  839TIP3    H226713   7.018   7.383   8.060 -0.6483  0.9840 -0.2086
  840TIP3   OH226714   2.970   3.834   8.048 -0.1093  0.3700  0.4147
  840TIP3    H126715   2.901   3.774   8.022 -0.3034  0.1450  1.4141
  840TIP3    H226716   2.935   3.921   8.029  0.3064  0.1925 -1.3496
  841TIP3   OH226717   0.071   6.002   7.798  0.0530  0.8782 -0.3778
  841TIP3    H126718   0.017   5.953   7.860 -1.4069  2.1934 -0.5223
  841TIP3    H226719   0.158   6.005   7.839 -0.2977 -0.2278  0.4919
  842TIP3   OH226720   4.002   4.479   7.002  0.4846  0.0503  0.0608
  842TIP3    H126721   3.943   4.446   7.070 -1.3268  1.0929 -0.9313
  842TIP3    H226722   4.041   4.400   6.964 -3.0261 -1.0626 -1.6563
  843TIP3   OH226723   0.931   4.852   7.956 -0.8387  0.4417  0.2281
  843TIP3    H126724   1.002   4.802   7.915 -1.3570  0.5007 -0.7735
  843TIP3    H226725   0.882   4.787   8.006 -1.0009  0.0881 -0.3721
  844TIP3   OH226726   0.973   3.815   7.977 -0.1339  0.2724 -0.3863
  844TIP3    H126727   0.945   3.793   7.888 -1.0171  2.3943 -0.6951
  844TIP3    H226728   0.926   3.754   8.033 -0.8663 -0.0015 -1.2789
  845TIP3   OH226729   6.521   0.687   6.906 -0.2793  0.1104  0.2618
  845TIP3    H126730   6.570   0.763   6.877  2.0206 -1.5256 -0.4542
  845TIP3    H226731   6.528   0.689   7.002 -1.7240  1.6475  0.3826
  846TIP3   OH226732   0.060   0.185   8.536 -0.5902 -0.2579  0.2249
  846TIP3    H126733   0.125   0.240   8.581 -0.4291 -1.5596  1.6659
  846TIP3    H226734  -0.020   0.196   8.587 -1.0965  0.1156 -0.6261
  847TIP3   OH226735   1.178   3.931   8.810  0.2184 -0.0647  0.1449
  847TIP3    H126736   1.130   4.000   8.763  0.8483 -0.1292 -0.6141
  847TIP3    H226737   1.128   3.919   8.891 -1.3978 -0.5376 -0.8571
  848TIP3   OH226738   5.983   5.219   7.965 -0.2808  0.3342 -0.0296
  848TIP3    H126739   6.000   5.313   7.969  1.2971  0.0672 -0.0949
  848TIP3    H226740   5.999   5.188   8.054 -1.6627  0.2296  0.2174
  849TIP3   OH226741   4.583   2.543   8.406  0.0096 -0.1462  0.0000
  849TIP3    H126742   4.501   2.589   8.423 -0.8896 -0.6182 -2.5963
  849TIP3    H226743   4.649   2.592   8.455 -1.7928  0.0924  2.4031
  850TIP3   OH226744   2.328   6.749   9.180 -0.2201 -0.3613 -0.4680
  850TIP3    H126745   2.264   6.687   9.216 -0.4860  0.7605  1.0714
  850TIP3    H226746   2.388   6.767   9.252 -1.2129  2.5377 -0.2327
  851TIP3   OH226747   4.495   6.991   9.441  0.0685 -0.4418 -0.3738
  851TIP3    H126748   4.512   7.065   9.500 -1.8549  0.1791 -0.5362
  851TIP3    H226749   4.407   6.962   9.464 -0.1103 -1.1875 -1.8905
  852TIP3   OH226750   6.607   7.151   7.896  0.4447  0.1580 -0.2266
  852TIP3    H126751   6.651   7.215   7.841 -2.2713  1.2037 -1.3382
  852TIP3    H226752   6.575   7.084   7.835 -1.0261  0.3714  0.2778
  853TIP3   OH226753   5.705   0.421   9.252  0.0789 -0.2315 -0.2379
  853TIP3    H126754   5.734   0.486   9.315  0.7683 -0.9395  0.1910
  853TIP3    H226755   5.674   0.348   9.305 -0.5680 -0.3077 -0.7110
  854TIP3   OH226756   5.045   0.762   9.019  0.0684  0.4779  0.3983
  854TIP3    H126757   5.063   0.773   9.112 -0.4326  0.8178  0.4526
  854TIP3    H226758   4.967   0.706   9.016 -0.7845  1.6518  0.2120
  855TIP3   OH226759   3.597   0.334   7.150  0.3313  0.3980  0.6296
  855TIP3    H126760   3.567   0.411   7.101  0.3593  2.1783  3.1776
  855TIP3    H226761   3.685   0.318   7.116 -0.4022  0.1810 -1.3154
  856TIP3   OH226762   6.591   3.344   9.401 -0.0285  0.3823 -0.4277
  856TIP3    H126763   6.499   3.359   9.379 -0.6516  1.3612  2.4349
  856TIP3    H226764   6.588   3.295   9.483  1.9628  2.1071  0.7631
  857TIP3   OH226765   7.093   4.308   9.584  0.4086  0.3585 -0.6748
  857TIP3    H126766   7.009   4.312   9.631  0.6954  1.5927 -0.2157
  857TIP3    H226767   7.093   4.222   9.542 -0.5282 -0.1685  0.3433
  858TIP3   OH226768   4.261   0.563   7.821 -0.5502  0.2514  0.1293
  858TIP3    H126769   4.271   0.469   7.807 -0.9480  0.1949  0.2052
  858TIP3    H226770   4.177   0.571   7.867 -1.1175  0.7271 -0.9361
  859TIP3   OH226771   2.577   5.726   7.362  0.0241  0.1669  0.5622
  859TIP3    H126772   2.620   5.691   7.285  0.0667  1.2621  0.0647
  859TIP3    H226773   2.490   5.752   7.331  0.0946  0.7534  0.8385
  860TIP3   OH226774   1.280   3.022   7.818 -0.4666  0.0513 -0.2084
  860TIP3    H126775   1.295   3.107   7.778 -0.1731  0.3225  0.4727
  860TIP3    H226776   1.199   3.034   7.869  0.8310  0.6256  1.8060
  861TIP3   OH226777   2.790   3.367   8.961  0.5024  0.0254 -0.4872
  861TIP3    H126778   2.762   3.284   9.000  0.4783 -1.3161 -3.1316
  861TIP3    H226779   2.885   3.369   8.975  0.4621 -0.2859 -0.1415
  862TIP3   OH226780   5.331   0.858   6.909  0.0479  0.2030 -0.2659
  862TIP3    H126781   5.256   0.882   6.964 -0.5755 -1.2506 -0.4302
  862TIP3    H226782   5.380   0.940   6.898 -0.0686  0.6449  2.0142
  863TIP3   OH226783   4.071   4.630   7.419  0.0614  0.0071  0.3946
  863TIP3    H126784   4.165   4.630   7.399  0.6656 -1.7984  2.7301
  863TIP3    H226785   4.044   4.721   7.407  1.9353  0.4587 -0.9601
  864TIP3   OH226786   7.171   2.701   8.003 -0.5238 -0.3818  0.3839
  864TIP3    H126787   7.207   2.720   8.090  0.1932 -0.8211  0.1889
  864TIP3    H226788   7.159   2.787   7.963  0.7024 -0.2394  0.3039
  865TIP3   OH226789   0.970   5.172   7.584  0.0178 -0.0862 -0.5142
  865TIP3    H126790   1.033   5.243   7.572 -0.9920  0.9567  0.1511
  865TIP3    H226791   0.989   5.139   7.672 -2.1265  2.1334  0.9073
  866TIP3   OH226792   0.197   5.605   9.246 -0.3644 -0.1667 -0.0642
  866TIP3    H126793   0.121   5.546   9.243  0.5862 -1.4091 -0.8258
  866TIP3    H226794   0.228   5.610   9.156 -0.2112  1.2541  0.0450
  867TIP3   OH226795   6.834   3.420   8.610 -0.7465  0.3861  0.5185
  867TIP3    H126796   6.835   3.516   8.610  2.2895  0.4671  0.1673
  867TIP3    H226797   6.793   3.396   8.527 -6.2171  1.0685  2.5898
  868TIP3   OH226798   3.645   6.907   8.746 -0.8561  0.2963 -0.1130
  868TIP3    H126799   3.703   6.929   8.674  1.5893  1.6102  2.0678
  868TIP3    H226800   3.667   6.817   8.770 -0.6275  0.3580 -0.0934
  869TIP3   OH226801   6.834   2.925   9.100  0.6738  0.1299 -0.0470
  869TIP3    H126802   6.881   3.009   9.095 -0.1102  0.5227 -1.1013
  869TIP3    H226803   6.742   2.949   9.094  0.2319 -0.5766  2.4805
  870TIP3   OH226804   1.627   7.340   8.983  0.5366 -0.1985 -0.3092
  870TIP3    H126805   1.603   7.249   8.999  0.2306 -0.1492 -0.4912
  870TIP3    H226806   1.562   7.372   8.922 -0.7609  0.8066  1.5084
  871TIP3   OH226807   2.850   5.749   8.246 -0.5114  0.0750  0.2735
  871TIP3    H126808   2.944   5.748   8.266 -0.8344  1.1321  2.0588
  871TIP3    H226809   2.831   5.661   8.213  1.1655 -0.0254 -0.5637
  872TIP3   OH226810   2.598   6.831   8.872 -0.1405  0.3056 -0.0779
  872TIP3    H126811   2.607   6.808   8.965  0.2936  0.2731 -0.1235
  872TIP3    H226812   2.656   6.907   8.861  0.4796 -0.2153 -0.5062
  873TIP3   OH226813   6.961   2.168   7.829 -0.0444 -0.1838  0.3089
  873TIP3    H126814   6.955   2.232   7.900 -1.1855 -0.0644  0.1240
  873TIP3    H226815   6.920   2.089   7.864  1.9370 -1.0876  0.7769
  874TIP3   OH226816   0.684   3.220   7.297 -0.2759  0.6499 -0.1619
  874TIP3    H126817   0.673   3.154   7.366  0.9903 -0.2341 -0.7652
  874TIP3    H226818   0.722   3.172   7.224 -0.8962  1.7294 -1.2249
  875TIP3   OH226819   4.481   5.595   7.736  0.3875 -0.1261  0.0662
  875TIP3    H126820   4.450   5.523   7.791  1.1728 -0.0615  0.6043
  875TIP3    H226821   4.514   5.660   7.798  1.5144 -0.1581 -0.4717
  876TIP3   OH226822   2.250   5.604   8.907  0.1957  0.3257 -0.0278
  876TIP3    H126823   2.172   5.577   8.955 -1.0507  2.8611 -0.4684
  876TIP3    H226824   2.269   5.531   8.848 -3.0436  0.3330 -1.2913
  877TIP3   OH226825   6.914   6.450   6.705 -0.2411  0.0383  0.3421
  877TIP3    H126826   6.900   6.537   6.668 -0.8610  0.2373  1.0226
  877TIP3    H226827   6.967   6.404   6.640 -0.4115  0.7308 -0.2915
  878TIP3   OH226828   6.550   4.037   7.773 -0.2315 -0.6960 -0.2494
  878TIP3    H126829   6.563   4.109   7.710  1.0410  0.7790  1.5634
  878TIP3    H226830   6.485   3.980   7.732 -0.4900  0.9246 -2.2570
  879TIP3   OH226831   2.522   5.920   6.248 -0.1886 -0.2482  0.0624
  879TIP3    H126832   2.452   5.958   6.196  0.1723  1.1334  0.5619
  879TIP3    H226833   2.602   5.937   6.197  0.0344  0.1154  0.5310
  880TIP3   OH226834   1.726   1.253   9.160  0.2316 -0.4528  0.4165
  880TIP3    H126835   1.740   1.167   9.120 -0.5343 -0.7205  0.7020
  880TIP3    H226836   1.799   1.306   9.129 -0.2062 -0.7102 -1.1911
  881TIP3   OH226837   0.231   7.259   8.817  0.5409  0.1398 -0.5626
  881TIP3    H126838   0.293   7.234   8.749  1.6593 -0.1997  0.5291
  881TIP3    H226839   0.243   7.353   8.827  0.9114  0.0715 -0.3389
  882TIP3   OH226840   6.540   0.894   7.810 -0.2095 -0.0160 -0.7639
  882TIP3    H126841   6.590   0.813   7.805  0.9160  0.6357 -0.3738
  882TIP3    H226842   6.548   0.922   7.901  2.1419  2.1739 -1.5415
  883TIP3   OH226843   0.663   1.658   7.885  0.2671 -0.0318 -0.2354
  883TIP3    H126844   0.628   1.629   7.969 -1.6060  0.0602 -0.9276
  883TIP3    H226845   0.667   1.753   7.891 -1.0854  0.0811 -0.6365
  884TIP3   OH226846   3.238   1.380   9.241  0.1680 -0.3434 -0.1437
  884TIP3    H126847   3.220   1.347   9.153  0.0334 -0.8518  0.0679
  884TIP3    H226848   3.169   1.341   9.295  0.8727 -0.8907  0.3751
  885TIP3   OH226849   6.319   1.059   9.388  0.3024  0.0607 -0.6206
  885TIP3    H126850   6.406   1.097   9.383  0.5066 -0.0842  1.2683
  885TIP3    H226851   6.322   0.985   9.327  2.5403 -1.7968  1.5123
  886TIP3   OH226852   3.727   3.008   8.476  0.1197 -0.1308 -0.5230
  886TIP3    H126853   3.724   2.968   8.389  2.2959 -1.3489 -0.1201
  886TIP3    H226854   3.810   2.977   8.514 -0.0325  1.5862  1.4040
  887TIP3   OH226855   0.191   6.702   6.649 -0.5173 -0.1145  0.1218
  887TIP3    H126856   0.168   6.688   6.557 -1.4803  0.0148  0.3290
  887TIP3    H226857   0.270   6.650   6.662 -0.8923 -0.8760 -0.5476
  888TIP3   OH226858   3.577   0.572   9.207  0.2874  0.0173  0.4287
  888TIP3    H126859   3.598   0.642   9.145  1.4320 -0.0738  0.7040
  888TIP3    H226860   3.608   0.604   9.291 -0.9391 -0.0168  0.9127
  889TIP3   OH226861   3.410   1.888   8.818 -0.2755 -0.1332  0.1884
  889TIP3    H126862   3.328   1.923   8.853 -0.1912  1.1879 -0.8537
  889TIP3    H226863   3.479   1.934   8.866 -0.1514  0.0903 -0.2018
  890TIP3   OH226864   2.015   7.238   8.326  0.2402 -0.0718 -0.2901
  890TIP3    H126865   2.005   7.163   8.385 -0.3968  1.1625  1.2443
  890TIP3    H226866   2.109   7.241   8.307  0.7490  0.4292  1.9952
  891TIP3   OH226867   3.388   6.018   9.612  0.2015 -0.6790 -0.0761
  891TIP3    H126868   3.389   5.925   9.590  2.2305 -0.7904  0.2596
  891TIP3    H226869   3.351   6.061   9.535 -0.4061 -1.7136 -0.3819
  892TIP3   OH226870   0.780   5.395   7.714 -0.2673  0.9145 -0.0859
  892TIP3    H126871   0.774   5.446   7.795 -1.6840 -1.0158  1.1089
  892TIP3    H226872   0.840   5.324   7.734 -1.0897  0.0791 -0.4987
  893TIP3   OH226873   3.989   6.698   7.185 -0.0216 -0.5028 -0.7796
  893TIP3    H126874   3.969   6.638   7.257 -0.2573  1.4127  0.8047
  893TIP3    H226875   3.998   6.640   7.109 -0.3590 -2.5352  0.6334
  894TIP3   OH226876   6.915   1.580   9.398  0.0448 -0.1679  0.7491
  894TIP3    H126877   6.855   1.549   9.466 -0.9206  0.4112  0.1645
  894TIP3    H226878   6.994   1.527   9.411 -0.3091 -0.4238  1.9919
  895TIP3   OH226879   6.951   1.054   8.772  0.2570  0.3198  0.1149
  895TIP3    H126880   6.984   1.035   8.684  0.0233 -0.1756  0.1284
  895TIP3    H226881   6.856   1.048   8.763  0.2748 -2.6227  0.9993
  896TIP3   OH226882   1.535   5.587   8.928  0.1782  0.2157 -0.5447
  896TIP3    H126883   1.471   5.518   8.944  0.2660  0.3916  0.6219
  896TIP3    H226884   1.527   5.645   9.003  0.4687  1.2033 -1.2546
  897TIP3   OH226885   0.115   1.330   6.975 -0.2769  0.0882 -0.1523
  897TIP3    H126886   0.091   1.279   6.899  1.4191 -1.7321  0.4338
  897TIP3    H226887   0.044   1.317   7.037  0.1517 -1.6871  0.0073
  898TIP3   OH226888   4.910   7.018   7.655  0.2241  0.5638 -0.4248
  898TIP3    H126889   4.867   6.968   7.586  0.9970  0.1928 -0.6498
  898TIP3    H226890   4.989   6.968   7.676  0.4955  1.1699  0.0533
  899TIP3   OH226891   4.471   7.453   9.389 -0.5349 -0.3046  0.0761
  899TIP3    H126892   4.422   7.458   9.471  0.5173  0.4329  0.6758
  899TIP3    H226893   4.476   7.543   9.358  1.1441 -0.2347  0.4612
  900TIP3   OH226894   5.499   1.956   8.433  0.5169  0.2526 -0.0734
  900TIP3    H126895   5.479   1.951   8.340 -0.1807 -1.6903  0.1338
  900TIP3    H226896   5.559   1.883   8.449 -1.5080 -1.2263  1.4359
  901TIP3   OH226897   4.479   6.088   8.641 -0.2400 -0.0197  0.7395
  901TIP3    H126898   4.551   6.117   8.697 -1.3517  1.2899  1.5614
  901TIP3    H226899   4.436   6.020   8.691  0.2016 -0.5588  0.3985
  902TIP3   OH226900   1.726   3.191   9.235  1.0022  0.0012  0.2055
  902TIP3    H126901   1.655   3.174   9.297  0.1327  0.0537 -0.7453
  902TIP3    H226902   1.693   3.158   9.151  1.0886  2.2324 -0.7740
  903TIP3   OH226903   2.566   5.442   7.252 -0.3521  0.4074 -0.0368
  903TIP3    H126904   2.649   5.489   7.246 -0.6807  0.8394 -2.7177
  903TIP3    H226905   2.526   5.454   7.166 -2.1001 -1.8189  0.3655
  904TIP3   OH226906   2.467   2.796   7.319 -0.5309  0.2490  0.1064
  904TIP3    H126907   2.406   2.867   7.298  1.0572  1.7239  0.2035
  904TIP3    H226908   2.411   2.724   7.347 -2.2468  1.2766 -0.5040
  905TIP3   OH226909   6.375   4.256   6.899 -0.4069  0.2818  0.4029
  905TIP3    H126910   6.298   4.263   6.842 -0.4566  0.8750  0.5377
  905TIP3    H226911   6.446   4.295   6.848  0.2436 -1.9085 -0.4794
  906TIP3   OH226912   3.144   6.213   8.730 -0.1137  0.2381  0.6230
  906TIP3    H126913   3.215   6.263   8.691  0.6551 -2.8931 -2.5298
  906TIP3    H226914   3.075   6.211   8.664 -1.1401 -0.7578  1.6598
  907TIP3   OH226915   1.620   3.625   8.515 -0.3597 -0.5925  0.3926
  907TIP3    H126916   1.602   3.621   8.609  0.4357 -0.8931  0.5364
  907TIP3    H226917   1.673   3.547   8.498  0.9382  0.3607  0.0083
  908TIP3   OH226918   6.579   0.550   9.295  0.0441  0.7634  0.0247
  908TIP3    H126919   6.631   0.493   9.239 -2.6521 -0.5579 -1.3576
  908TIP3    H226920   6.593   0.638   9.260  1.4608  0.4894 -0.1425
  909TIP3   OH226921   2.162   6.847   7.645  0.3205 -0.2924 -0.1039
  909TIP3    H126922   2.182   6.928   7.598  0.2948 -0.4491 -0.3890
  909TIP3    H226923   2.070   6.830   7.626  1.0484 -2.0008 -2.5816
  910TIP3   OH226924   4.544   6.938   8.202  0.2593 -0.0731 -0.3743
  910TIP3    H126925   4.638   6.942   8.184 -0.1805  2.0569 -2.7056
  910TIP3    H226926   4.511   6.871   8.142  0.4713 -2.4454  1.9749
  911TIP3   OH226927   1.360   3.747   8.706  0.1014 -0.6506 -0.2503
  911TIP3    H126928   1.287   3.781   8.758 -0.6167 -1.6993 -0.5480
  911TIP3    H226929   1.405   3.687   8.765 -0.1944 -1.1756 -0.5555
  912TIP3   OH226930   0.015   7.245   7.696  0.3434  0.5396  0.0414
  912TIP3    H126931  -0.043   7.250   7.621 -0.0729 -0.1773  0.3103
  912TIP3    H226932   0.010   7.332   7.737  0.0506  0.7131 -0.3641
  913TIP3   OH226933   0.001   5.157   8.433  0.1501 -1.2630  0.4423
  913TIP3    H126934   0.013   5.196   8.346  1.4781  0.0409  1.1809
  913TIP3    H226935  -0.091   5.130   8.433 -0.5632  0.9085 -0.5180
  914TIP3   OH226936   4.947   3.165   8.922  0.1041  0.0752  0.0203
  914TIP3    H126937   5.042   3.172   8.916  0.0976  0.4906  0.3545
  914TIP3    H226938   4.928   3.074   8.899  0.5784  0.0009 -0.0862
  915TIP3   OH226939   6.094   1.086   8.626  0.7157 -0.0494 -0.5440
  915TIP3    H126940   6.117   1.165   8.675  0.2724  1.3596 -2.4771
  915TIP3    H226941   6.178   1.050   8.598  0.9065  0.0622 -0.1168
  916TIP3   OH226942   5.187   2.619   9.125 -0.1536  0.6455  0.2141
  916TIP3    H126943   5.134   2.699   9.120 -1.0137  0.0783 -0.0722
  916TIP3    H226944   5.139   2.556   9.071 -0.5397 -0.6376  1.9608
  917TIP3   OH226945   5.627   3.520   8.423 -0.3101  0.1990 -0.1249
  917TIP3    H126946   5.722   3.533   8.434 -0.4559  1.4231 -0.2101
  917TIP3    H226947   5.614   3.518   8.328 -0.2719 -0.8424 -0.1199
  918TIP3   OH226948   0.891   0.378   7.960  0.1530  0.1456  0.1347
  918TIP3    H126949   0.907   0.404   7.870  0.1424  1.2363  0.4388
  918TIP3    H226950   0.968   0.409   8.008 -0.6398  1.1652  0.7902
  919TIP3   OH226951   5.715   6.734   8.544  0.4736  0.4293  0.7205
  919TIP3    H126952   5.765   6.773   8.615  0.0804  0.7021  0.8523
  919TIP3    H226953   5.743   6.642   8.543 -0.7066  0.0005  2.3225
  920TIP3   OH226954   2.558   3.833   8.641 -0.2795  0.0799 -0.0545
  920TIP3    H126955   2.557   3.890   8.718  1.8851 -0.3419  0.3664
  920TIP3    H226956   2.484   3.862   8.588 -1.4069  0.8345  1.8486
  921TIP3   OH226957   4.577   0.976   8.464 -0.0429  0.1956  0.0976
  921TIP3    H126958   4.618   1.027   8.534  0.9999  0.8910 -0.9884
  921TIP3    H226959   4.579   1.034   8.388 -1.5777 -0.3742 -0.4105
  922TIP3   OH226960   2.897   4.841   7.459  0.1424  0.4283  0.3370
  922TIP3    H126961   2.805   4.825   7.481  0.5625 -0.3792  1.5677
  922TIP3    H226962   2.935   4.754   7.448  0.8947  0.7406  0.4001
  923TIP3   OH226963   1.092   1.014   7.364 -0.0148 -0.2465 -0.5230
  923TIP3    H126964   1.075   0.999   7.271 -0.3098  0.2296 -0.5489
  923TIP3    H226965   1.008   0.997   7.407  0.3195 -1.2452 -0.2462
  924TIP3   OH226966   0.048   2.949   8.375  0.3127 -0.1247  0.0661
  924TIP3    H126967   0.136   2.932   8.339  0.1232 -2.7357  0.6031
  924TIP3    H226968   0.015   2.862   8.398 -3.1429  0.5517 -1.7240
  925TIP3   OH226969   1.388   3.565   9.607  0.1768 -0.1128  0.1241
  925TIP3    H126970   1.339   3.626   9.553 -1.3096  0.1980  1.7418
  925TIP3    H226971   1.480   3.584   9.587 -0.3077  0.5819 -1.5896
  926TIP3   OH226972   4.566   3.269   8.189  0.0878  0.6566  0.7663
  926TIP3    H126973   4.506   3.259   8.263  1.7456 -0.5335  2.0259
  926TIP3    H226974   4.653   3.268   8.228  0.9859  1.4528 -1.0895
  927TIP3   OH226975   6.262   1.866   9.645 -0.0700  0.0990  0.0431
  927TIP3    H126976   6.321   1.938   9.666  0.8918 -0.5227 -0.4744
  927TIP3    H226977   6.267   1.857   9.550 -0.7293 -0.1981  0.0275
  928TIP3   OH226978   6.017   2.903   7.653 -0.6386 -0.5520  0.1925
  928TIP3    H126979   6.104   2.894   7.692 -0.6789  0.5704  0.5685
  928TIP3    H226980   5.965   2.835   7.694 -0.4119 -0.0410  1.3641
  929TIP3   OH226981   1.026   7.040   9.290 -0.3037 -0.3324  0.2919
  929TIP3    H126982   1.103   7.015   9.240 -0.1128 -0.4694  0.6466
  929TIP3    H226983   1.004   6.961   9.341 -1.7648 -0.9017 -1.1472
  930TIP3   OH226984   5.633   6.131   9.395  0.1750 -0.3679 -0.0172
  930TIP3    H126985   5.585   6.122   9.313  0.7379 -1.1215 -0.2693
  930TIP3    H226986   5.647   6.042   9.426  1.4276 -0.1786  0.0343
  931TIP3   OH226987   2.338   0.144   9.338  0.0847  0.0325 -0.6470
  931TIP3    H126988   2.315   0.226   9.381  1.5280  0.1695 -0.0739
  931TIP3    H226989   2.433   0.139   9.346  0.0004 -1.8195 -0.4488
  932TIP3   OH226990   3.499   5.705   9.050 -0.4140 -0.3179 -0.2283
  932TIP3    H126991   3.522   5.737   9.138 -0.6985 -0.3921 -0.1272
  932TIP3    H226992   3.576   5.655   9.022  0.9097  2.0761 -1.2137
  933TIP3   OH226993   6.245   3.247   8.747 -0.4435 -0.2583 -0.3126
  933TIP3    H126994   6.324   3.302   8.751 -0.3389 -0.4747  0.9795
  933TIP3    H226995   6.222   3.246   8.654  0.8397  0.1396 -0.6628
  934TIP3   OH226996   6.801   5.494   7.028  0.5965 -0.2971 -0.1198
  934TIP3    H126997   6.785   5.402   7.007  1.2076 -0.9718  2.0829
  934TIP3    H226998   6.721   5.523   7.071  0.7719 -0.1032  0.0788
  935TIP3   OH226999   4.136   7.019   7.704  0.3272 -0.1083  0.2712
  935TIP3    H127000   4.204   7.025   7.771  0.5500  0.0623  0.0322
  935TIP3    H227001   4.064   7.072   7.739  0.2873 -0.3470  0.5577
  936TIP3   OH227002   0.834   2.233   8.395 -0.4401  0.0715 -0.4743
  936TIP3    H127003   0.809   2.216   8.486  0.8745 -1.0340 -0.2891
  936TIP3    H227004   0.780   2.308   8.369 -0.7387  0.5006  1.2591
  937TIP3   OH227005   6.868   5.209   9.362 -0.1674 -0.2104  0.0063
  937TIP3    H127006   6.952   5.162   9.363  0.4988  0.5664 -4.0653
  937TIP3    H227007   6.892   5.299   9.385 -0.1258 -0.2326  0.0536
  938TIP3   OH227008   3.296   4.026   9.541 -0.1709 -0.1319  0.3784
  938TIP3    H127009   3.217   4.042   9.593 -1.1170  2.4386 -1.6677
  938TIP3    H227010   3.360   4.089   9.575 -1.2514  2.6437 -2.2523
  939TIP3   OH227011   2.854   1.417   7.236 -0.4019 -0.2568 -0.0990
  939TIP3    H127012   2.949   1.409   7.247 -0.4628  0.1274  0.8287
  939TIP3    H227013   2.821   1.327   7.241 -0.0292 -0.4655 -1.1479
  940TIP3   OH227014   2.034   4.415   8.092  0.6371  0.7446  0.5250
  940TIP3    H127015   1.966   4.481   8.078 -0.5041 -0.3605  0.6789
  940TIP3    H227016   1.991   4.346   8.143  1.6465 -0.3487 -0.0509
  941TIP3   OH227017   4.113   0.206   9.515  0.2372 -0.6600  0.3346
  941TIP3    H127018   4.019   0.193   9.502 -0.0886  1.0233  0.7831
  941TIP3    H227019   4.143   0.244   9.433  0.0119  1.0842  1.0069
  942TIP3   OH227020   6.933   1.579   8.553  0.4821 -0.3627 -0.8078
  942TIP3    H127021   6.941   1.484   8.563 -1.5088 -0.4415  0.5027
  942TIP3    H227022   7.018   1.613   8.582  0.5114 -1.6482  0.7638
  943TIP3   OH227023   5.860   6.565   6.848 -0.0532  0.2050 -0.4066
  943TIP3    H127024   5.909   6.640   6.816  0.4066  0.5128  0.9399
  943TIP3    H227025   5.778   6.601   6.880  0.5694  0.3201  1.1567
  944TIP3   OH227026   1.658   6.936   7.365 -0.9145 -0.0403  0.6148
  944TIP3    H127027   1.690   6.886   7.290  0.3460  0.9118  0.4873
  944TIP3    H227028   1.631   6.869   7.428 -3.0712 -0.8628 -1.0847
  945TIP3   OH227029   2.381   4.844   7.995  0.1108  0.1186  0.9486
  945TIP3    H127030   2.373   4.788   7.918 -2.6533  0.4215  0.9070
  945TIP3    H227031   2.400   4.931   7.961  1.3263 -0.1782  0.8179
  946TIP3   OH227032   1.967   1.871   9.407  0.1177  0.6640 -0.0194
  946TIP3    H127033   1.875   1.899   9.408  0.0560  0.4576  0.2655
  946TIP3    H227034   1.965   1.779   9.431  0.3728  0.5616 -0.3799
  947TIP3   OH227035   6.203   1.301   8.751  0.0716 -0.3064 -0.2144
  947TIP3    H127036   6.254   1.262   8.822 -1.1882 -2.8095 -0.5885
  947TIP3    H227037   6.264   1.361   8.708  1.4792 -0.2670  1.6882
  948TIP3   OH227038   2.310   4.353   6.791 -0.6305 -0.5932  0.3744
  948TIP3    H127039   2.301   4.367   6.697 -0.3567 -1.7979  0.1586
  948TIP3    H227040   2.405   4.346   6.805 -0.7447 -2.1950  0.4540
  949TIP3   OH227041   4.672   3.286   9.051  0.1385 -0.1188 -0.0121
  949TIP3    H127042   4.586   3.247   9.033  0.2494  0.0147 -0.8836
  949TIP3    H227043   4.727   3.259   8.977  1.6390 -2.4448  1.8175
  950TIP3   OH227044   1.821   6.546   6.792 -0.0822  0.0085  0.3675
  950TIP3    H127045   1.811   6.494   6.713  1.0272 -1.5857  1.2219
  950TIP3    H227046   1.912   6.573   6.791 -0.0167 -0.1680  1.1726
  951TIP3   OH227047   3.034   1.293   8.755  0.1810  0.2581  0.2893
  951TIP3    H127048   3.027   1.317   8.663  0.7303 -0.1136  0.1462
  951TIP3    H227049   2.956   1.332   8.796  0.6154  1.5611 -0.0725
  952TIP3   OH227050   2.308   7.083   8.810  0.4365 -0.3666  0.0726
  952TIP3    H127051   2.231   7.140   8.809 -0.4560 -1.5312 -0.3703
  952TIP3    H227052   2.274   6.998   8.783  2.1220 -0.6165 -1.3910
  953TIP3   OH227053   4.778   4.671   7.707 -0.7414 -0.2632 -0.0854
  953TIP3    H127054   4.775   4.590   7.656 -0.6552  0.0713 -0.6283
  953TIP3    H227055   4.871   4.692   7.712 -0.8254  0.3260 -0.7962
  954TIP3   OH227056   2.672   6.893   8.534 -0.2511  0.2789  0.4426
  954TIP3    H127057   2.628   6.870   8.453  0.2300 -0.9202  0.4858
  954TIP3    H227058   2.661   6.815   8.590 -0.0254  0.8329  1.2793
  955TIP3   OH227059   4.670   3.677   8.871  0.1936  0.6286  0.0255
  955TIP3    H127060   4.635   3.742   8.932  1.4712  3.1864 -1.7783
  955TIP3    H227061   4.738   3.632   8.921 -0.6172  0.7594  1.2809
  956TIP3   OH227062   0.485   6.827   9.399  0.4822  0.3639  0.3874
  956TIP3    H127063   0.466   6.795   9.487  0.7525 -0.3373  0.1980
  956TIP3    H227064   0.404   6.811   9.350  0.1370  1.2713  0.6399
  957TIP3   OH227065   1.350   2.833   7.991  0.4004  0.2436  0.5238
  957TIP3    H127066   1.267   2.801   8.027  0.2791 -0.5089 -0.3895
  957TIP3    H227067   1.326   2.906   7.935 -0.1453 -2.0000 -2.4542
  958TIP3   OH227068   1.946   0.384   9.126 -0.1777  0.4460  0.6140
  958TIP3    H127069   1.906   0.321   9.065 -0.0981  1.4721 -0.5449
  958TIP3    H227070   1.883   0.455   9.130 -0.5054  0.1043  2.3168
  959TIP3   OH227071   6.665   6.260   7.957 -0.0557 -0.1071  0.2565
  959TIP3    H127072   6.698   6.188   8.010 -1.4119 -0.5215  0.5756
  959TIP3    H227073   6.687   6.339   8.007 -0.0804 -0.4117  0.7550
  960TIP3   OH227074   1.351   1.835   9.420  0.5691  0.2106 -0.2798
  960TIP3    H127075   1.265   1.872   9.439  0.5881 -0.9800  2.9100
  960TIP3    H227076   1.335   1.741   9.412  1.2290  0.2523 -2.6942
  961TIP3   OH227077   0.142   3.091   9.750  0.4113  0.5879  0.4697
  961TIP3    H127078   0.227   3.080   9.791 -0.3063 -0.9290  1.6326
  961TIP3    H227079   0.128   3.010   9.701 -0.2370  0.9570  0.0260
  962TIP3   OH227080   1.855   1.621   9.453 -0.3739  0.4272  0.0499
  962TIP3    H127081   1.774   1.594   9.410  0.3205  0.7660 -1.5637
  962TIP3    H227082   1.831   1.635   9.544 -1.8910 -0.4756 -0.1830
  963TIP3   OH227083   5.372   1.867   7.330 -0.3548  0.1782 -0.2210
  963TIP3    H127084   5.465   1.846   7.323 -0.2943  1.0475 -3.7651
  963TIP3    H227085   5.370   1.950   7.379  0.6632 -0.0529  0.2439
  964TIP3   OH227086   3.405   4.257   9.637  0.0864  0.3344  0.7119
  964TIP3    H127087   3.327   4.300   9.602  0.1664  0.1624  0.3154
  964TIP3    H227088   3.478   4.307   9.602  0.1865 -0.2264  0.0917
  965TIP3   OH227089   0.831   7.332   7.368  0.1328  0.1142 -0.1494
  965TIP3    H127090   0.768   7.331   7.439  1.1931 -2.5337  0.8915
  965TIP3    H227091   0.778   7.335   7.288 -1.1558  0.6492  0.7041
  966TIP3   OH227092   0.837   1.467   7.772  0.2789 -0.0101 -0.5384
  966TIP3    H127093   0.765   1.521   7.804  0.9566  0.5114  0.1582
  966TIP3    H227094   0.859   1.410   7.845  1.5249  0.8516 -0.2053
  967TIP3   OH227095   7.450   5.690   9.337  0.5142  0.0868 -0.0219
  967TIP3    H127096   7.400   5.645   9.270 -0.2153 -1.8890  1.7423
  967TIP3    H227097   7.541   5.682   9.310  0.1639  0.5485 -1.4256
  968TIP3   OH227098   2.691   2.234   8.934 -0.4191  0.4857  0.4853
  968TIP3    H127099   2.617   2.237   8.873 -0.2304  1.9690  0.2758
  968TIP3    H227100   2.733   2.150   8.918 -0.6108  0.6804 -1.1429
  969TIP3   OH227101   1.549   2.303   8.539 -0.3868 -0.4984 -0.3664
  969TIP3    H127102   1.456   2.283   8.544 -1.0547  2.3358  0.3723
  969TIP3    H227103   1.583   2.244   8.472 -2.9039 -1.0081 -1.2962
  970TIP3   OH227104   2.139   0.647   9.574 -0.1655 -0.4212  0.9509
  970TIP3    H127105   2.087   0.569   9.554 -0.2744 -0.0767 -0.2180
  970TIP3    H227106   2.229   0.621   9.557 -0.2653 -0.1033 -0.1933
  971TIP3   OH227107   6.595   3.866   8.237 -0.0584 -0.3111  0.4590
  971TIP3    H127108   6.570   3.943   8.286  1.3449  0.1520  0.5124
  971TIP3    H227109   6.513   3.825   8.211 -0.8420 -0.2907  2.7154
  972TIP3   OH227110   6.295   5.345   7.904 -0.6269  0.2298 -0.1784
  972TIP3    H127111   6.224   5.340   7.968 -0.6638  1.3365 -0.1118
  972TIP3    H227112   6.333   5.432   7.917  0.5846 -0.2422 -0.3869
  973TIP3   OH227113   6.965   6.632   7.375 -0.4748 -0.2620 -0.2197
  973TIP3    H127114   6.974   6.659   7.284  0.6597  0.1182 -0.0057
  973TIP3    H227115   6.913   6.702   7.415 -0.4007 -0.0874 -0.4252
  974TIP3   OH227116   2.900   0.629   8.856 -0.2182  0.2089 -0.2971
  974TIP3    H127117   2.871   0.539   8.840 -2.1059  0.9758 -1.5205
  974TIP3    H227118   2.966   0.621   8.925 -0.8454 -2.0362  0.1135
  975TIP3   OH227119   4.309   4.602   7.676 -0.3046 -0.8911  0.0496
  975TIP3    H127120   4.369   4.676   7.673 -0.3035 -0.8495  0.8736
  975TIP3    H227121   4.231   4.632   7.630 -0.6795 -0.0167  1.2060
  976TIP3   OH227122   4.872   3.907   9.406 -0.1757  0.0506 -0.1425
  976TIP3    H127123   4.832   3.820   9.402 -1.0967  0.4659 -0.3568
  976TIP3    H227124   4.825   3.958   9.340  0.5639  0.6303 -0.2357
  977TIP3   OH227125   6.861   4.306   7.725 -0.2444 -0.6163 -0.0686
  977TIP3    H127126   6.912   4.368   7.673  0.7700 -1.5047 -0.1867
  977TIP3    H227127   6.927   4.248   7.764 -1.1240 -1.2882  0.4639
  978TIP3   OH227128   3.515   6.254   8.387 -0.2945  0.9161  0.1101
  978TIP3    H127129   3.450   6.187   8.363  1.7326 -1.0039 -0.3690
  978TIP3    H227130   3.598   6.218   8.357  0.8895  3.8538 -0.4664
  979TIP3   OH227131   3.827   1.764   9.474 -0.3474 -0.4070 -0.2761
  979TIP3    H127132   3.809   1.734   9.385  1.6871 -0.0181 -0.8669
  979TIP3    H227133   3.860   1.686   9.519  0.5258 -0.1635 -0.4697
  980TIP3   OH227134   0.321   6.260   8.624 -0.2568  0.5825  0.4292
  980TIP3    H127135   0.342   6.266   8.531  2.0074  3.1079  0.9819
  980TIP3    H227136   0.237   6.304   8.632  0.1632  1.5485 -0.2765
  981TIP3   OH227137   2.058   7.380   7.282  0.3606 -0.0115  0.3311
  981TIP3    H127138   2.084   7.310   7.223 -0.7213  0.3955 -0.6756
  981TIP3    H227139   2.141   7.418   7.312  0.9465 -0.2503 -0.9066
  982TIP3   OH227140   1.955   6.061   8.882 -0.1437  0.1870  0.1243
  982TIP3    H127141   1.937   5.970   8.905 -1.4314  0.6545  1.0683
  982TIP3    H227142   2.033   6.084   8.933  0.3338 -0.4519 -0.3110
  983TIP3   OH227143   3.367   2.687   7.168  0.5171 -0.3370 -0.2165
  983TIP3    H127144   3.457   2.677   7.135  1.2514 -1.3135  1.9103
  983TIP3    H227145   3.376   2.745   7.244 -0.3864 -1.6776  0.9581
  984TIP3   OH227146   1.762   6.255   9.324 -0.1196  0.1189 -0.0153
  984TIP3    H127147   1.815   6.297   9.256 -1.8356  2.1433 -0.2087
  984TIP3    H227148   1.798   6.288   9.406  0.1105  0.0016 -0.0689
  985TIP3   OH227149   7.493   6.275   9.298 -0.4899 -1.0049 -0.1550
  985TIP3    H127150   7.472   6.333   9.372  0.5007 -0.2470 -0.4485
  985TIP3    H227151   7.442   6.312   9.226  0.2149 -0.4250 -0.3651
  986TIP3   OH227152   1.370   6.349   7.483  0.4391 -0.5800 -0.4666
  986TIP3    H127153   1.301   6.347   7.417  1.4595  1.9596 -1.7727
  986TIP3    H227154   1.444   6.303   7.442  0.6753 -0.0867 -0.6020
  987TIP3   OH227155   6.097   2.134   8.887  0.2835 -0.7298  0.4203
  987TIP3    H127156   6.098   2.039   8.901  1.4858 -0.5275  1.9766
  987TIP3    H227157   6.050   2.145   8.804  0.3025 -2.6886  0.0891
  988TIP3   OH227158   1.260   4.562   8.019  0.1410  0.3271 -0.5302
  988TIP3    H127159   1.206   4.492   7.981  0.3278  0.3750 -0.8896
  988TIP3    H227160   1.337   4.517   8.053 -0.3485  0.1942  0.4355
  989TIP3   OH227161   1.114   0.353   8.893 -0.3096 -0.3120 -0.1321
  989TIP3    H127162   1.076   0.393   8.815  0.2843 -0.0449 -0.2840
  989TIP3    H227163   1.178   0.291   8.860 -1.5020 -1.7368  0.0753
  990TIP3   OH227164   5.635   6.989   9.294 -0.0511  0.2906  0.4851
  990TIP3    H127165   5.650   6.993   9.389 -0.5917  0.0719  0.5833
  990TIP3    H227166   5.541   6.974   9.285 -0.0641  0.6918 -0.0977
  991TIP3   OH227167   2.204   4.724   7.230 -0.2647  0.2607 -0.1754
  991TIP3    H127168   2.157   4.671   7.165  1.0057 -1.1760  0.0029
  991TIP3    H227169   2.209   4.667   7.307 -0.1714  1.2518  0.5694
  992TIP3   OH227170   2.507   2.900   8.819  0.4333  0.3098 -0.5487
  992TIP3    H127171   2.463   2.824   8.781  1.2636  0.2141 -1.3504
  992TIP3    H227172   2.585   2.913   8.764  1.0972  0.8308  0.4873
  993TIP3   OH227173   5.921   0.764   7.373 -0.3395  0.2418  0.0436
  993TIP3    H127174   5.951   0.763   7.464 -0.7760 -1.8551  0.2256
  993TIP3    H227175   5.831   0.794   7.377 -0.2008  0.6388  0.2317
  994TIP3   OH227176   1.823   5.088   9.238 -0.2731 -0.3048  0.1803
  994TIP3    H127177   1.855   5.129   9.158 -0.2223 -0.4299  0.1366
  994TIP3    H227178   1.896   5.036   9.270 -1.0276 -2.1575 -0.9775
  995TIP3   OH227179   2.383   6.081   8.726 -0.0414  0.3002 -0.1800
  995TIP3    H127180   2.426   6.128   8.798  1.3701  0.2091 -0.9215
  995TIP3    H227181   2.290   6.103   8.735  0.1362  0.5039  1.4899
  996TIP3   OH227182   4.520   4.806   9.400 -0.2016  0.1659 -0.0743
  996TIP3    H127183   4.572   4.873   9.356 -0.4496 -0.1029 -0.8139
  996TIP3    H227184   4.455   4.780   9.334  1.2182 -2.3229 -0.6508
  997TIP3   OH227185   2.033   2.492   8.582 -0.0664  0.2759 -0.6198
  997TIP3    H127186   2.065   2.484   8.492  1.1085 -1.9142 -0.0671
  997TIP3    H227187   1.995   2.580   8.586  1.4768  1.1211 -2.7394
  998TIP3   OH227188   6.050   3.018   8.005  0.7091 -0.3021  0.1207
  998TIP3    H127189   6.026   2.927   7.987 -2.7904  0.5648 -0.3164
  998TIP3    H227190   6.087   3.049   7.922 -0.5186 -0.6668 -0.5964
  999TIP3   OH227191   3.409   0.919   8.666  0.0036  0.0911  0.0321
  999TIP3    H127192   3.323   0.884   8.688 -0.1830  0.8416  0.5074
  999TIP3    H227193   3.405   1.012   8.689  1.3153 -0.0934  1.1505
 1000TIP3   OH227194   1.179   1.012   8.001  0.4716 -0.9266  0.3057
 1000TIP3    H127195   1.178   0.931   8.052 -1.4377 -1.3572 -0.3217
 1000TIP3    H227196   1.239   0.994   7.929 -0.2410 -1.9636 -0.0551
 1001TIP3   OH227197   5.133   1.550   7.970 -0.0352 -0.2853  0.0641
 1001TIP3    H127198   5.134   1.504   7.887  0.9617 -0.2343  0.0399
 1001TIP3    H227199   5.196   1.504   8.025  0.3863  0.5438  0.3050
 1002TIP3   OH227200   4.987   6.265   6.978  0.0994 -0.6613 -0.2188
 1002TIP3    H127201   4.943   6.273   6.894  0.3524 -0.3677 -0.3236
 1002TIP3    H227202   5.026   6.351   6.994  1.7059 -1.2642 -0.7267
 1003TIP3   OH227203   1.664   6.863   7.991  0.7382 -0.1325  0.0462
 1003TIP3    H127204   1.592   6.859   7.927 -0.6018 -0.5424  1.5138
 1003TIP3    H227205   1.742   6.875   7.938 -0.3567 -0.1405 -1.6543
 1004TIP3   OH227206   4.218   0.295   7.762  0.0152  0.2020 -0.7189
 1004TIP3    H127207   4.276   0.221   7.780 -0.6080 -0.0763  0.2391
 1004TIP3    H227208   4.131   0.263   7.785 -0.4117  0.8869 -1.3380
 1005TIP3   OH227209   2.045   0.839   9.777 -0.2113 -0.2936 -1.0374
 1005TIP3    H127210   2.097   0.851   9.857  0.8695 -1.2521 -1.5591
 1005TIP3    H227211   2.092   0.771   9.729 -1.4251 -0.4665 -2.0117
 1006TIP3   OH227212   3.835   0.194   9.473  0.1877 -0.2264  0.3530
 1006TIP3    H127213   3.810   0.265   9.414  1.3201  0.0617  0.1934
 1006TIP3    H227214   3.817   0.114   9.425  1.1079  0.0048 -0.4163
 1007TIP3   OH227215   0.911   7.190   7.856 -0.3958  0.1162 -0.7120
 1007TIP3    H127216   0.900   7.267   7.800  0.1900 -0.0468 -1.0605
 1007TIP3    H227217   0.958   7.127   7.801  0.2272 -0.0289 -0.0260
 1008TIP3   OH227218   2.197   5.976   7.008  0.2077 -0.0350 -0.0311
 1008TIP3    H127219   2.216   5.936   7.093 -1.9138 -0.9747  0.0724
 1008TIP3    H227220   2.159   5.905   6.956 -0.0792  0.9384 -1.2039
 1009TIP3   OH227221   6.041   4.266   6.970  0.0899  0.0370  0.1178
 1009TIP3    H127222   6.081   4.267   6.883  0.3565 -2.6784  0.1268
 1009TIP3    H227223   6.076   4.345   7.013  1.0181  0.7099 -1.7396
 1010TIP3   OH227224   1.846   4.165   8.422  0.5707 -0.2798  0.2088
 1010TIP3    H127225   1.917   4.150   8.359  1.3300  1.0575  0.7139
 1010TIP3    H227226   1.845   4.086   8.476  2.1120 -0.0484  0.6061
 1011TIP3   OH227227   7.243   3.741   9.624  0.6083  0.5559  0.2107
 1011TIP3    H127228   7.319   3.689   9.597  0.9039  1.1645 -0.1625
 1011TIP3    H227229   7.173   3.677   9.636  0.7810  0.1293 -0.8958
 1012TIP3   OH227230   1.234   6.864   7.630  0.6816  0.0481  0.3455
 1012TIP3    H127231   1.223   6.951   7.668  2.0869  0.8110 -0.9014
 1012TIP3    H227232   1.167   6.811   7.673 -0.8091  1.9382  0.4981
 1013TIP3   OH227233   6.172   0.502   8.148 -0.3254 -0.0957  0.4748
 1013TIP3    H127234   6.250   0.447   8.161 -1.7297 -2.0329  1.2288
 1013TIP3    H227235   6.168   0.557   8.226  0.2211 -0.0392  0.4675
 1014TIP3   OH227236   0.307   3.639   8.352 -0.4876  0.4930  0.1999
 1014TIP3    H127237   0.350   3.578   8.412 -1.3631  0.4603  0.8135
 1014TIP3    H227238   0.244   3.686   8.406  0.1088  1.8994 -0.2929
 1015TIP3   OH227239   1.948   3.988   9.582  0.0587  0.1635 -0.3608
 1015TIP3    H127240   2.019   4.049   9.604  0.4249 -1.2655  3.1908
 1015TIP3    H227241   1.880   4.006   9.647 -1.0138 -1.3519 -0.9910
 1016TIP3   OH227242   0.607   7.493   7.854 -0.3227 -0.1238 -0.2902
 1016TIP3    H127243   0.596   7.406   7.816  0.9027 -0.4596  0.0657
 1016TIP3    H227244   0.627   7.549   7.779 -0.7814 -0.2163 -0.4819
 1017TIP3   OH227245   0.447   6.050   9.513  0.0176 -0.3031 -0.7463
 1017TIP3    H127246   0.525   6.105   9.506  0.3236 -0.3071  1.7347
 1017TIP3    H227247   0.377   6.103   9.474  0.5313  1.4025  0.5100
 1018TIP3   OH227248   0.960   0.641   8.221  0.1724 -0.0879  0.1071
 1018TIP3    H127249   0.877   0.596   8.209  0.4123 -0.2205 -1.3292
 1018TIP3    H227250   1.023   0.588   8.173  0.5523  1.4487 -1.2105
 1019TIP3   OH227251   2.564   6.973   8.013 -0.1210  0.3925 -0.7977
 1019TIP3    H127252   2.616   6.895   7.995 -3.3765 -1.8526 -1.2586
 1019TIP3    H227253   2.523   6.996   7.929  0.6433  2.5828 -0.6442
 1020TIP3   OH227254   3.259   6.727   9.962  0.0202 -0.1439 -0.8030
 1020TIP3    H127255   3.312   6.724   9.882 -0.9958  1.0590 -1.5479
 1020TIP3    H227256   3.254   6.819   9.985 -1.2990 -0.2822 -0.4481
 1021TIP3   OH227257   5.472   0.234   8.159  0.0965 -0.4504 -0.2655
 1021TIP3    H127258   5.521   0.310   8.191 -0.8573 -0.6443  1.8273
 1021TIP3    H227259   5.433   0.263   8.077  0.4432  1.0281  0.0684
 1022TIP3   OH227260   1.659   0.043   6.788 -0.0991  0.3112 -0.4382
 1022TIP3    H127261   1.651  -0.006   6.870  5.1119  1.8520  1.4400
 1022TIP3    H227262   1.634   0.133   6.812 -0.0166  0.4748 -0.9605
 1023TIP3   OH227263   2.618   1.464   9.308  0.0002  0.3346 -0.2375
 1023TIP3    H127264   2.632   1.559   9.301 -0.5756  0.4251 -0.2639
 1023TIP3    H227265   2.529   1.451   9.273 -0.4675 -0.0304  1.0376
 1024TIP3   OH227266   0.002   2.179   8.824 -0.5547  0.3891  0.0637
 1024TIP3    H127267   0.034   2.091   8.800 -1.5923  0.3273 -1.1911
 1024TIP3    H227268  -0.069   2.196   8.762 -0.6378  1.9573  0.5606
 1025TIP3   OH227269   1.815   7.449   7.353 -0.4063 -0.0100 -0.6675
 1025TIP3    H127270   1.906   7.425   7.333 -0.5913 -2.0097  0.6575
 1025TIP3    H227271   1.762   7.390   7.300 -0.8859 -1.0731  0.9338
 1026TIP3   OH227272   1.681   5.176   8.194 -0.6167 -0.3933 -0.1383
 1026TIP3    H127273   1.617   5.108   8.217 -0.4826 -0.5277 -0.1667
 1026TIP3    H227274   1.665   5.246   8.257 -0.2413 -0.7638  0.3658
 1027TIP3   OH227275   0.399   5.375   9.481 -0.3202 -0.2499 -0.2531
 1027TIP3    H127276   0.441   5.421   9.409 -1.1424 -0.9309 -1.1871
 1027TIP3    H227277   0.471   5.335   9.530  0.3038  0.9115 -0.1896
 1028TIP3   OH227278   5.024   0.134   9.558  0.7688 -0.0940  0.2918
 1028TIP3    H127279   5.045   0.094   9.474 -0.2075 -1.3731  0.6098
 1028TIP3    H227280   4.989   0.061   9.610 -0.5353  1.0650  1.1057
 1029TIP3   OH227281   5.330   6.612   8.253 -0.2329  0.6875 -0.4553
 1029TIP3    H127282   5.375   6.642   8.332 -0.9472 -1.8421  1.0194
 1029TIP3    H227283   5.386   6.544   8.217 -1.6412 -0.7937  0.0374
 1030TIP3   OH227284   0.953   1.148   9.735  0.0334  0.1789  0.0340
 1030TIP3    H127285   1.006   1.213   9.782  0.8788  0.2576 -0.9656
 1030TIP3    H227286   1.010   1.071   9.729 -0.7802 -0.4970  0.7846
 1031TIP3   OH227287   3.920   4.079   7.465  0.2978  0.0727  0.3392
 1031TIP3    H127288   3.869   4.155   7.494 -0.6894  0.1482 -1.4708
 1031TIP3    H227289   3.982   4.115   7.401  1.3292 -0.3376  1.0706
 1032TIP3   OH227290   6.626   3.111   7.166 -0.0906  0.0031  0.1966
 1032TIP3    H127291   6.693   3.081   7.105  0.3229  2.1185 -0.4647
 1032TIP3    H227292   6.609   3.202   7.141 -2.5908 -0.1944  0.9169
 1033TIP3   OH227293   4.111   5.021   8.669  0.2093 -0.2456  0.4045
 1033TIP3    H127294   4.038   5.032   8.608 -0.5892  0.4827  1.4583
 1033TIP3    H227295   4.176   4.970   8.620 -1.2411 -1.4304 -0.3678
 1034TIP3   OH227296   4.254   3.828   9.004  0.3767  0.5425  0.0702
 1034TIP3    H127297   4.331   3.803   9.056  0.6098  2.2904  0.6226
 1034TIP3    H227298   4.196   3.870   9.067 -0.9155 -0.4493 -0.4167
 1035TIP3   OH227299   2.349   3.959   8.158 -0.1044  0.9505 -0.0838
 1035TIP3    H127300   2.398   3.938   8.238 -0.4414 -0.9438 -0.3263
 1035TIP3    H227301   2.416   3.981   8.094  0.1863  2.2487  0.6346
 1036TIP3   OH227302   1.414   4.788   7.452 -0.2511  0.8226  0.3996
 1036TIP3    H127303   1.461   4.854   7.401 -1.1392  1.5193  0.4415
 1036TIP3    H227304   1.344   4.759   7.394 -0.0821  0.1742  0.5167
 1037TIP3   OH227305   3.438   3.488   7.111 -0.3449 -0.3836  0.2434
 1037TIP3    H127306   3.423   3.397   7.139 -0.1829 -0.8391 -1.0860
 1037TIP3    H227307   3.532   3.495   7.099 -0.5132 -0.6450 -1.5270
 1038TIP3   OH227308   0.100   6.106   9.869 -0.0641 -0.0963  0.0326
 1038TIP3    H127309   0.163   6.045   9.908 -1.8636 -1.4238  1.0479
 1038TIP3    H227310   0.021   6.053   9.858 -1.8910  2.1667  1.4115
 1039TIP3   OH227311   7.330   7.505   8.378 -0.3973  0.2938 -0.2243
 1039TIP3    H127312   7.419   7.478   8.352 -0.6194 -0.3421 -0.3467
 1039TIP3    H227313   7.319   7.468   8.466 -0.6766  0.0455 -0.3620
 1040TIP3   OH227314   2.690   2.102   9.410 -0.1369  0.6189  0.2049
 1040TIP3    H127315   2.608   2.053   9.402  0.4183 -0.3849  0.3713
 1040TIP3    H227316   2.669   2.176   9.466 -0.7493 -0.0863  0.9402
 1041TIP3   OH227317   2.596   5.828   7.904 -0.1406 -0.2321  0.0539
 1041TIP3    H127318   2.539   5.805   7.977 -2.2554  2.0962 -0.7221
 1041TIP3    H227319   2.559   5.782   7.829 -0.9898  1.1349 -0.4140
 1042TIP3   OH227320   1.121   2.329   6.845 -0.0113 -0.0235 -0.3414
 1042TIP3    H127321   1.212   2.309   6.820  0.1081  0.2398 -0.1222
 1042TIP3    H227322   1.068   2.269   6.792  0.2889 -0.1601 -0.4912
 1043TIP3   OH227323   2.054   6.140   7.619 -0.0026  0.8051 -0.2533
 1043TIP3    H127324   2.044   6.061   7.671  1.7430  1.5471  1.3454
 1043TIP3    H227325   1.968   6.181   7.619 -0.6637 -0.5521 -0.2376
 1044TIP3   OH227326   5.623   7.120   8.239 -0.2091  0.2529  0.1916
 1044TIP3    H127327   5.696   7.162   8.285 -0.5316  0.9940  0.0475
 1044TIP3    H227328   5.663   7.048   8.190 -0.1774 -2.2750  3.6095
 1045TIP3   OH227329   0.902   0.105   9.697  0.0840 -0.3498 -0.1024
 1045TIP3    H127330   0.841   0.048   9.744 -0.0748  0.4403  0.6862
 1045TIP3    H227331   0.930   0.169   9.763 -0.2439  0.8754 -1.1153
 1046TIP3   OH227332   7.064   5.469   7.658  0.0657  0.3045  0.6144
 1046TIP3    H127333   7.152   5.433   7.658  0.7930  2.0174 -0.0499
 1046TIP3    H227334   7.060   5.523   7.737 -0.4206  0.2248  0.6526
 1047TIP3   OH227335   6.269   6.841   8.639  0.0630  0.5525 -0.6952
 1047TIP3    H127336   6.232   6.903   8.702  1.8438  1.0349 -0.0629
 1047TIP3    H227337   6.246   6.755   8.674  0.4960  0.8244  0.2913
 1048TIP3   OH227338   1.028   6.677   7.708  0.4273  0.4512  0.0216
 1048TIP3    H127339   0.963   6.649   7.644 -0.3716  0.7208  0.6984
 1048TIP3    H227340   0.992   6.649   7.793  2.5759 -2.1008  0.2473
 1049TIP3   OH227341   6.854   5.310   7.855  0.6546  0.6863 -0.1137
 1049TIP3    H127342   6.877   5.391   7.900  0.5693  1.4715 -1.4345
 1049TIP3    H227343   6.775   5.280   7.899  0.8149  1.1834  0.5416
 1050TIP3   OH227344   1.902   5.684   7.396  0.2947 -0.0937  0.2473
 1050TIP3    H127345   1.939   5.610   7.445 -0.1856 -0.8019 -0.4352
 1050TIP3    H227346   1.840   5.723   7.457  0.2820 -0.4828  0.4919
 1051TIP3   OH227347   4.432   2.615   7.834  0.0755  0.6096  0.1058
 1051TIP3    H127348   4.443   2.553   7.906 -0.2235 -0.3092 -0.6230
 1051TIP3    H227349   4.501   2.592   7.772 -0.7395  0.2282 -0.6957
 1052TIP3   OH227350   4.110   1.144   6.645 -0.1568 -0.0072 -0.0807
 1052TIP3    H127351   4.079   1.234   6.639  1.1213  0.4035 -0.8814
 1052TIP3    H227352   4.047   1.093   6.594 -1.5379  0.2175  1.3039
 1053TIP3   OH227353   0.358   7.228   9.393 -0.2338 -0.0822 -0.0436
 1053TIP3    H127354   0.302   7.305   9.387  2.9488  2.4945  0.7386
 1053TIP3    H227355   0.366   7.197   9.302 -0.0568  1.7347 -0.6853
 1054TIP3   OH227356   2.133   1.864   7.652  0.2375  0.8473  0.0687
 1054TIP3    H127357   2.189   1.903   7.585 -0.2148  2.1543  0.4262
 1054TIP3    H227358   2.181   1.786   7.681  0.7267  0.6151 -1.3226
 1055TIP3   OH227359   1.433   4.114   8.122 -0.2849 -0.1609  1.2349
 1055TIP3    H127360   1.479   4.086   8.201 -1.4431 -3.6188  0.8494
 1055TIP3    H227361   1.439   4.039   8.063 -0.2069  1.9846 -1.6733
 1056TIP3   OH227362   2.755   0.714   8.639  0.2392  0.0496 -0.1510
 1056TIP3    H127363   2.816   0.694   8.710 -0.5070 -0.1222  0.4476
 1056TIP3    H227364   2.779   0.802   8.611  0.6795  0.0332  0.1609
 1057TIP3   OH227365   2.212   6.536   7.865  0.7595  0.0435 -0.2074
 1057TIP3    H127366   2.229   6.557   7.774  2.2492 -0.6290 -0.1246
 1057TIP3    H227367   2.296   6.551   7.909  0.0958  0.2613  1.0292
 1058TIP3   OH227368   4.125   5.466   8.724 -0.1443 -0.5636 -0.0806
 1058TIP3    H127369   4.107   5.509   8.641  1.2495  1.9583  0.8115
 1058TIP3    H227370   4.219   5.452   8.724 -0.2758 -1.5501  0.6302
 1059TIP3   OH227371   4.254   5.199   9.686 -0.4614 -0.1689  0.5843
 1059TIP3    H127372   4.308   5.216   9.763  2.2338 -0.6582 -1.0340
 1059TIP3    H227373   4.277   5.269   9.624 -1.7284 -0.3908 -0.1860
 1060TIP3   OH227374   1.968   0.417   8.787 -0.6871 -0.4399 -0.1557
 1060TIP3    H127375   1.891   0.443   8.839  0.3816  0.3055  1.1303
 1060TIP3    H227376   1.962   0.322   8.781 -0.3367 -0.6866  2.2753
 1061TIP3   OH227377   2.210   3.872   9.619  0.0860 -0.2232 -0.3430
 1061TIP3    H127378   2.276   3.847   9.684 -1.4316 -0.6476  1.0933
 1061TIP3    H227379   2.136   3.814   9.636 -0.9656  0.7421 -1.4249
 1062TIP3   OH227380   7.148   3.580   7.509 -0.2173  0.0756 -0.1424
 1062TIP3    H127381   7.135   3.541   7.595  0.3188  0.7470  0.2503
 1062TIP3    H227382   7.137   3.507   7.448 -1.7378 -0.1870  0.4042
 1063TIP3   OH227383   4.073   0.261   8.086 -0.1896 -0.2100 -0.1445
 1063TIP3    H127384   4.097   0.202   8.014 -1.5125  0.3631 -1.1065
 1063TIP3    H227385   4.138   0.243   8.154 -0.5953 -2.8274 -0.3459
 1064TIP3   OH227386   7.003   1.873   8.502 -0.3650 -0.6714 -0.5029
 1064TIP3    H127387   6.964   1.852   8.587  0.1289  1.1557  0.2441
 1064TIP3    H227388   7.079   1.815   8.496 -0.2151 -0.6124  0.4998
 1065TIP3   OH227389   3.546   7.446   7.074  0.7979  0.2263  0.4234
 1065TIP3    H127390   3.546   7.352   7.055  2.3397  0.1013  0.9131
 1065TIP3    H227391   3.615   7.482   7.018  0.7299  0.9416  0.7839
 1066TIP3   OH227392   1.137   5.808   6.846 -0.1175 -0.1815  0.2677
 1066TIP3    H127393   1.153   5.734   6.905  0.1838 -0.5397 -0.2557
 1066TIP3    H227394   1.088   5.770   6.773  1.2745 -0.1837 -0.7073
 1067TIP3   OH227395   6.474   3.970   9.594  0.4410 -0.0766  0.6002
 1067TIP3    H127396   6.520   3.922   9.663  0.1870  0.6143  1.2589
 1067TIP3    H227397   6.469   3.908   9.521  3.8706  0.3005 -0.1626
 1068TIP3   OH227398   3.561   6.996   9.465 -0.1987 -0.1312 -0.1314
 1068TIP3    H127399   3.631   7.036   9.517 -0.8457 -1.0054  1.5184
 1068TIP3    H227400   3.606   6.939   9.404  0.5708  0.1167  0.1932
 1069TIP3   OH227401   4.287   5.914   8.784  0.1015 -0.0235 -0.1146
 1069TIP3    H127402   4.216   5.856   8.812  0.8675  0.1121  2.3293
 1069TIP3    H227403   4.265   5.999   8.820  1.0691  0.2154 -0.0428
 1070TIP3   OH227404   4.422   0.126   7.820 -0.4202 -0.2709 -0.1325
 1070TIP3    H127405   4.473   0.103   7.742 -0.2602  1.7766 -0.6831
 1070TIP3    H227406   4.482   0.109   7.893 -0.2567 -1.3476 -0.4978
 1071TIP3   OH227407   4.095   2.508   7.870  0.0305  0.2946 -0.2580
 1071TIP3    H127408   4.065   2.587   7.915 -1.4162 -0.6572  0.5118
 1071TIP3    H227409   4.159   2.469   7.930 -1.5918 -0.7541  0.8459
 1072TIP3   OH227410   6.665   2.623   7.297  0.2668 -0.2642  0.1935
 1072TIP3    H127411   6.694   2.695   7.241 -1.1952  1.6617  1.7627
 1072TIP3    H227412   6.569   2.628   7.293  0.1231 -0.2156  2.6121
 1073TIP3   OH227413   3.017   6.972   7.893 -0.2897  0.7490 -0.4292
 1073TIP3    H127414   2.981   6.890   7.858 -1.7475  0.3790  1.7358
 1073TIP3    H227415   3.102   6.946   7.929 -0.0016  0.5591 -1.2233
 1074TIP3   OH227416   1.810   2.361   9.032 -0.1444  0.0510  0.4111
 1074TIP3    H127417   1.848   2.309   9.104 -0.8805  0.1652  0.8978
 1074TIP3    H227418   1.836   2.315   8.953  2.4716  1.0507  0.5806
 1075TIP3   OH227419   5.821   1.026   7.926 -0.1272  0.5687 -0.4093
 1075TIP3    H127420   5.732   1.057   7.913 -0.6698 -1.0370 -0.7906
 1075TIP3    H227421   5.817   0.932   7.907  2.3547  0.9806 -3.9070
 1076TIP3   OH227422   6.322   5.589   9.476  0.3118 -1.0166  0.1262
 1076TIP3    H127423   6.410   5.557   9.458  0.1489 -2.1265  1.1807
 1076TIP3    H227424   6.277   5.515   9.516 -0.9014 -0.2605  0.2175
 1077TIP3   OH227425   2.301   2.034   7.514  0.8533  0.7105  0.0376
 1077TIP3    H127426   2.374   2.018   7.575 -0.1009  0.8475  1.2609
 1077TIP3    H227427   2.280   2.126   7.526 -0.0113  0.4935  0.2823
 1078TIP3   OH227428   6.865   5.817   9.106  0.0069  0.1227 -0.3700
 1078TIP3    H127429   6.807   5.830   9.180  0.2153 -0.3022 -0.1277
 1078TIP3    H227430   6.873   5.904   9.066 -0.1115  0.3533  0.1000
 1079TIP3   OH227431   3.727   7.153   8.119 -0.3589  0.1021  0.1452
 1079TIP3    H127432   3.792   7.222   8.109 -0.2789 -0.1494 -1.3059
 1079TIP3    H227433   3.732   7.128   8.211  0.7095  0.9371  0.3306
 1080TIP3   OH227434   0.102   5.736   8.570 -0.1304  0.4240  0.0592
 1080TIP3    H127435   0.178   5.680   8.553 -0.5415 -1.2354  2.8898
 1080TIP3    H227436   0.059   5.746   8.485  0.2070 -3.3554 -0.7435
 1081TIP3   OH227437   6.053   5.700   9.255  0.3056 -0.3107 -0.4362
 1081TIP3    H127438   6.057   5.629   9.320 -0.0951 -0.4050 -0.5155
 1081TIP3    H227439   6.017   5.774   9.303  1.4114  0.0621 -0.1583
 1082TIP3   OH227440   5.766   3.532   9.434  0.3923  0.3842 -0.2173
 1082TIP3    H127441   5.825   3.607   9.443  1.7457 -0.3514 -2.1436
 1082TIP3    H227442   5.771   3.510   9.341 -0.6641 -1.5372  0.1365
 1083TIP3   OH227443   3.449   7.037   7.642  0.0478 -0.2788 -0.2758
 1083TIP3    H127444   3.535   7.077   7.656 -0.2810  0.3564 -0.0293
 1083TIP3    H227445   3.457   6.992   7.558  0.4109  0.3563 -0.5919
 1084TIP3   OH227446   1.001   4.871   8.317  0.0710  0.1911 -0.6636
 1084TIP3    H127447   0.996   4.778   8.335  0.7149  0.4597  1.1002
 1084TIP3    H227448   1.083   4.882   8.269  1.1793  0.1111  1.1581
 1085TIP3   OH227449   0.350   3.030   8.049 -0.8500 -0.0309  0.0505
 1085TIP3    H127450   0.333   2.953   8.104  0.3729 -0.1091  0.3508
 1085TIP3    H227451   0.271   3.082   8.055  0.0258  1.1571  3.8635
 1086TIP3   OH227452   0.914   6.114   8.009 -0.2304  0.1235 -0.8443
 1086TIP3    H127453   0.952   6.033   7.973  1.0025  1.4164 -2.6379
 1086TIP3    H227454   0.932   6.180   7.942 -2.6378  1.5746 -0.1673
 1087TIP3   OH227455   1.944   0.070   8.088  0.4149  0.0737 -0.3629
 1087TIP3    H127456   1.918  -0.011   8.044 -0.4846  0.2444 -0.1503
 1087TIP3    H227457   2.032   0.088   8.054  0.8921 -1.3385  0.0652
 1088TIP3   OH227458   5.651   5.207   8.101  0.0001  0.4628  0.2764
 1088TIP3    H127459   5.717   5.189   8.034  0.3356 -0.7560  0.9014
 1088TIP3    H227460   5.606   5.286   8.070  1.1016  0.7563 -0.6432
 1089TIP3   OH227461   3.661   4.934   9.055 -0.3762 -0.2210 -0.1264
 1089TIP3    H127462   3.635   4.968   9.141  0.4464 -1.0588  0.4728
 1089TIP3    H227463   3.755   4.954   9.049  0.3777 -3.0343  0.6353
 1090TIP3   OH227464   7.400   5.135   7.410  0.1268  0.3939 -0.3837
 1090TIP3    H127465   7.350   5.136   7.492  0.4590 -2.4404 -0.0457
 1090TIP3    H227466   7.334   5.141   7.341 -0.4617 -0.5319  0.0865
 1091TIP3   OH227467   2.113   6.938   6.834  0.0418 -0.2289  0.4317
 1091TIP3    H127468   2.168   6.987   6.895 -2.0246 -1.0057  3.0974
 1091TIP3    H227469   2.038   6.996   6.818  1.2102  0.6444 -2.8135
 1092TIP3   OH227470   2.543   0.231   8.822 -0.3082 -0.1632  0.6951
 1092TIP3    H127471   2.495   0.154   8.852 -1.6809  0.2365 -0.3969
 1092TIP3    H227472   2.488   0.306   8.847 -0.5456  0.2740 -0.9989
 1093TIP3   OH227473   0.673   3.627   7.403 -0.4286  0.0259 -0.1129
 1093TIP3    H127474   0.661   3.568   7.329 -3.5711 -2.2685  1.9556
 1093TIP3    H227475   0.723   3.575   7.467  2.5950  2.0954 -0.5845
 1094TIP3   OH227476   6.623   7.083   9.128  0.6259 -0.5850 -0.0742
 1094TIP3    H127477   6.658   7.090   9.039 -0.7779 -0.4763 -0.6376
 1094TIP3    H227478   6.655   6.998   9.160  0.2505 -1.1144 -1.0820
 1095TIP3   OH227479   1.372   6.817   7.877 -0.4825 -0.0739 -0.5514
 1095TIP3    H127480   1.399   6.726   7.887  0.2576  0.0462 -1.3930
 1095TIP3    H227481   1.351   6.826   7.784 -1.0243  0.4990 -0.3824
 1096TIP3   OH227482   5.456   4.494   8.542  0.0984 -0.3772 -0.5600
 1096TIP3    H127483   5.443   4.403   8.570 -0.8164 -0.0868 -0.0306
 1096TIP3    H227484   5.375   4.518   8.498  0.8262 -0.2238 -1.8794
 1097TIP3   OH227485   1.746   1.496   7.102  0.1514  0.0415 -0.1248
 1097TIP3    H127486   1.688   1.464   7.034  0.3468 -1.2208  0.2888
 1097TIP3    H227487   1.834   1.485   7.066  0.1966  0.9398 -0.3196
 1098TIP3   OH227488   5.056   6.444   7.233  0.0571 -0.1646  0.5693
 1098TIP3    H127489   5.005   6.471   7.156 -0.4568  0.1935  1.0294
 1098TIP3    H227490   5.127   6.509   7.238  0.7711 -0.8537 -0.2627
 1099TIP3   OH227491   5.061   4.261   7.500 -0.2532 -0.8835  0.3548
 1099TIP3    H127492   5.022   4.336   7.453  0.9895  0.3377  1.1915
 1099TIP3    H227493   5.027   4.184   7.454 -2.5220  0.1308  0.1996
 1100TIP3   OH227494   5.578   0.438   9.031  0.1157 -0.0212  0.2179
 1100TIP3    H127495   5.492   0.472   9.055 -0.5823 -1.0663 -0.7257
 1100TIP3    H227496   5.626   0.433   9.114 -0.3707  1.4974  0.6166
 1101TIP3   OH227497   6.053   1.853   8.556  0.3853 -0.0582 -0.7081
 1101TIP3    H127498   6.109   1.827   8.629  0.7367 -0.9207 -1.2767
 1101TIP3    H227499   6.010   1.933   8.587  0.0771 -0.7274  0.6772
 1102TIP3   OH227500   5.778   5.089   7.827  0.2834  0.8348  0.6077
 1102TIP3    H127501   5.800   5.001   7.795  2.8628  1.0702  1.5551
 1102TIP3    H227502   5.862   5.129   7.850 -0.8805  3.2997  0.9251
 1103TIP3   OH227503   3.963   1.123   7.856  0.4939 -0.4778  0.3191
 1103TIP3    H127504   3.980   1.109   7.763  1.2413  1.7006  0.0554
 1103TIP3    H227505   3.934   1.214   7.861  2.1842  0.0229  2.3925
 1104TIP3   OH227506   2.396   0.352   8.057  0.1256  0.1221 -0.1970
 1104TIP3    H127507   2.310   0.355   8.098  0.2533  0.8654  0.0396
 1104TIP3    H227508   2.419   0.259   8.055  0.3728  0.0883  1.9556
 1105TIP3   OH227509   4.092   4.165   7.771  0.1358  0.3301  0.1495
 1105TIP3    H127510   4.106   4.083   7.723 -0.2684  0.1254  0.3729
 1105TIP3    H227511   4.068   4.228   7.703 -0.3674  0.0585  0.0682
 1106TIP3   OH227512   3.975   1.313   7.217  0.4702 -0.6861  0.7553
 1106TIP3    H127513   3.907   1.247   7.197 -0.0659  0.4240 -1.3271
 1106TIP3    H227514   4.017   1.330   7.133  1.0309  1.1719  1.3782
 1107TIP3   OH227515   0.920   6.261  10.173  0.6634 -0.7447  0.1113
 1107TIP3    H127516   0.875   6.247  10.090  0.8695 -0.4209 -0.0586
 1107TIP3    H227517   0.854   6.300  10.231  0.6954 -0.3776 -0.1006
 1108TIP3   OH227518   5.465   6.595   8.485  0.1745 -0.3223 -0.2243
 1108TIP3    H127519   5.502   6.508   8.474 -0.7458 -1.3860  3.6487
 1108TIP3    H227520   5.541   6.653   8.491  0.9522 -1.3712  0.3795
 1109TIP3   OH227521   1.108   3.513   7.832 -0.0835 -0.5261 -0.2738
 1109TIP3    H127522   1.118   3.573   7.906 -0.5498 -1.0033  0.1860
 1109TIP3    H227523   1.017   3.485   7.836 -0.7167  1.0007 -2.2438
 1110TIP3   OH227524   5.206   0.242   9.096 -0.2809 -0.1628 -0.8376
 1110TIP3    H127525   5.205   0.232   9.001  1.3115 -0.1019 -0.8791
 1110TIP3    H227526   5.127   0.196   9.126 -0.5577 -0.5641 -2.1513
 1111TIP3   OH227527   5.932   5.974   8.660  0.5845  0.1653 -0.3571
 1111TIP3    H127528   6.024   5.973   8.634  0.8952  0.1166  0.7234
 1111TIP3    H227529   5.913   6.067   8.677  0.5571  0.1256 -0.1682
 1112TIP3   OH227530   5.440   6.272   8.876  0.0321 -0.5870  0.0951
 1112TIP3    H127531   5.425   6.361   8.906 -2.1890 -1.1677  0.8913
 1112TIP3    H227532   5.355   6.229   8.883  0.9230 -2.6443 -0.7409
 1113TIP3   OH227533   5.727   1.313   8.040 -0.1591  0.2280  0.3061
 1113TIP3    H127534   5.691   1.225   8.033 -1.9607  1.0052 -1.1961
 1113TIP3    H227535   5.661   1.362   8.089  0.0674  1.0876 -0.2166
 1114TIP3   OH227536   7.036   0.049   7.444 -0.6526  0.6876 -0.1709
 1114TIP3    H127537   7.034   0.143   7.427 -1.1256  0.7938  0.4213
 1114TIP3    H227538   7.126   0.030   7.470 -0.7580  1.1283  0.5210
 1115TIP3   OH227539   5.010   4.432   8.862 -0.3668 -0.0436 -0.0431
 1115TIP3    H127540   4.937   4.397   8.913 -0.8154  0.2822 -0.4556
 1115TIP3    H227541   4.971   4.501   8.809  0.3187  0.3967  0.0227
 1116TIP3   OH227542   7.436   1.484   8.077  0.0149 -0.7865  0.1536
 1116TIP3    H127543   7.525   1.469   8.046  0.8446  0.7436  1.6403
 1116TIP3    H227544   7.382   1.423   8.026  1.4020  0.6064 -3.2939
 1117TIP3   OH227545   3.466   5.431   9.295 -0.2441  0.0641 -0.2834
 1117TIP3    H127546   3.426   5.465   9.215 -1.3064  0.9351  0.6017
 1117TIP3    H227547   3.513   5.505   9.332 -0.5924 -0.0680  0.4268
 1118TIP3   OH227548   1.251   5.184   8.317 -0.1350  0.0318  0.0012
 1118TIP3    H127549   1.171   5.214   8.359  0.9476  2.0496  0.7541
 1118TIP3    H227550   1.307   5.156   8.390  0.3157 -0.1535 -0.4127
 1119TIP3   OH227551   1.068   6.662   8.339 -0.5082 -0.3420  0.5806
 1119TIP3    H127552   1.136   6.711   8.292  0.4084 -1.0441  1.1465
 1119TIP3    H227553   0.986   6.686   8.295  0.1496  0.2274 -0.3574
 1120TIP3   OH227554   4.238   1.095   9.343 -0.1267 -0.0484 -0.1829
 1120TIP3    H127555   4.266   1.166   9.400 -0.3804 -1.1520  1.3800
 1120TIP3    H227556   4.292   1.020   9.369 -1.9259 -1.2323  0.3663
 1121TIP3   OH227557   4.335   2.303   7.354 -0.5620 -0.7179  0.0509
 1121TIP3    H127558   4.378   2.319   7.270 -1.4466 -0.1105 -0.3025
 1121TIP3    H227559   4.398   2.336   7.419 -1.6034  3.0260 -0.5703
 1122TIP3   OH227560   5.003   1.676   7.573  0.1235 -0.4993  0.3187
 1122TIP3    H127561   4.960   1.602   7.616 -1.7225  0.5125  0.3140
 1122TIP3    H227562   4.985   1.663   7.480  0.8062 -0.6562  0.2046
 1123TIP3   OH227563   1.827   6.741   8.747  0.1814  0.0094  0.8578
 1123TIP3    H127564   1.912   6.723   8.707  0.1332  1.3258  0.1171
 1123TIP3    H227565   1.765   6.692   8.693  0.3637 -0.2453  0.8719
 1124TIP3   OH227566   1.893   4.585   7.912  0.1690 -0.3142 -0.4160
 1124TIP3    H127567   1.926   4.670   7.884 -0.2291 -0.1313 -0.3336
 1124TIP3    H227568   1.800   4.587   7.892 -0.0543 -0.3208  0.5792
 1125TIP3   OH227569   5.781   3.397   7.835 -0.1469 -0.2886 -0.0459
 1125TIP3    H127570   5.761   3.408   7.742 -0.7829  0.6655  0.1796
 1125TIP3    H227571   5.827   3.478   7.859  0.4818 -0.7554  0.3580
 1126TIP3   OH227572   7.259   0.457   7.378 -0.8027  0.6621 -0.0904
 1126TIP3    H127573   7.253   0.489   7.288 -0.6026  1.3194  0.1278
 1126TIP3    H227574   7.351   0.435   7.389 -1.1162 -1.0405 -0.5844
 1127TIP3   OH227575   5.554   3.179   9.319  0.1898 -0.4496  0.1000
 1127TIP3    H127576   5.515   3.246   9.375  2.3156  0.4943  0.5622
 1127TIP3    H227577   5.536   3.096   9.364 -0.6360  0.0204  0.6450
 1128TIP3   OH227578   6.376   2.735   7.292  0.0385 -0.2031 -0.3089
 1128TIP3    H127579   6.334   2.663   7.244 -2.5403  0.4727  0.7910
 1128TIP3    H227580   6.360   2.812   7.238  0.0935  0.0372  0.0179
 1129TIP3   OH227581   5.284   3.118   6.917 -0.2336 -0.1993  0.4165
 1129TIP3    H127582   5.352   3.094   6.854  1.5341 -1.0361  2.5140
 1129TIP3    H227583   5.254   3.035   6.953 -1.2678  0.2682  0.6841
 1130TIP3   OH227584   0.424   2.322   7.439  0.3212  0.1401 -0.8345
 1130TIP3    H127585   0.372   2.298   7.516  1.8634 -0.4954  0.0673
 1130TIP3    H227586   0.361   2.325   7.367 -1.5852  2.7595  0.7507
 1131TIP3   OH227587   4.217   4.211   8.846  0.2176 -0.5109  0.2119
 1131TIP3    H127588   4.310   4.228   8.864 -0.1592  0.0145  1.7374
 1131TIP3    H227589   4.198   4.128   8.891  0.2593 -1.3640 -1.2593
 1132TIP3   OH227590   7.283   2.209   8.004  0.2959  0.3544  0.3268
 1132TIP3    H127591   7.341   2.140   7.970  1.1439  1.3899 -0.4290
 1132TIP3    H227592   7.289   2.278   7.939  0.4872  1.6671  1.6932
 1133TIP3   OH227593   2.378   4.642   9.463 -0.5452 -0.5533 -0.3275
 1133TIP3    H127594   2.298   4.690   9.486 -0.7722 -0.6693 -0.8428
 1133TIP3    H227595   2.358   4.551   9.486 -0.0484 -0.3856  0.8161
 1134TIP3   OH227596   6.209   6.381   9.487 -0.9193 -0.1028 -0.8195
 1134TIP3    H127597   6.281   6.396   9.547 -0.6162  2.0538 -1.6549
 1134TIP3    H227598   6.231   6.299   9.443 -0.1324 -0.6378  0.5156
 1135TIP3   OH227599   4.412   3.407   8.390  0.5453  0.0981  1.0233
 1135TIP3    H127600   4.330   3.371   8.422 -0.0906  1.7230  1.3406
 1135TIP3    H227601   4.447   3.457   8.464  0.4425  1.6256  0.0870
 1136TIP3   OH227602   4.745   0.513   7.457 -0.0063 -0.0004  0.1724
 1136TIP3    H127603   4.702   0.541   7.376 -0.8291 -0.2549  0.5028
 1136TIP3    H227604   4.680   0.458   7.501 -0.1374  1.2442  1.6596
 1137TIP3   OH227605   1.548   2.515   8.118 -0.1426 -0.2726  0.2917
 1137TIP3    H127606   1.526   2.578   8.186  1.5129  1.2532 -0.4947
 1137TIP3    H227607   1.582   2.439   8.166  0.9033  0.7275  1.1984
 1138TIP3   OH227608   4.749   7.479   9.023 -0.3574  0.3902  0.0928
 1138TIP3    H127609   4.676   7.427   9.057  0.1039 -0.0183  0.4947
 1138TIP3    H227610   4.725   7.569   9.041 -1.4618  0.3808 -1.1850
 1139TIP3   OH227611   3.019   3.534   8.098 -0.4995 -0.7730  0.4684
 1139TIP3    H127612   3.031   3.618   8.053 -1.9225 -1.3034 -1.0367
 1139TIP3    H227613   3.102   3.519   8.143 -0.0730  1.2477  0.4756
 1140TIP3   OH227614   1.769   3.499   7.173 -0.1475 -0.4583  0.0661
 1140TIP3    H127615   1.692   3.552   7.195  0.4043  0.5478 -0.3572
 1140TIP3    H227616   1.780   3.511   7.079  0.9560 -0.0028  0.2435
 1141TIP3   OH227617   6.560   4.914   6.760 -0.2978 -0.1715 -0.3776
 1141TIP3    H127618   6.588   4.842   6.816 -1.0251 -1.2442 -1.3380
 1141TIP3    H227619   6.527   4.871   6.681 -0.8766  1.2174 -0.9219
 1142TIP3   OH227620   4.613   6.585   7.518 -0.8356  0.2107 -0.4925
 1142TIP3    H127621   4.596   6.676   7.542 -1.5126 -0.1610  0.5251
 1142TIP3    H227622   4.536   6.559   7.467 -1.8767 -0.5170  1.3687
 1143TIP3   OH227623   4.792   2.131   9.088 -0.1888  0.3439 -0.2872
 1143TIP3    H127624   4.702   2.141   9.118  0.3154  1.3515  0.9940
 1143TIP3    H227625   4.796   2.182   9.007 -0.6333  0.7531 -0.0541
 1144TIP3   OH227626   3.022   4.480   7.575  0.5333 -0.0569 -0.0451
 1144TIP3    H127627   3.082   4.430   7.630 -0.7606 -2.4499 -0.6596
 1144TIP3    H227628   2.982   4.544   7.634 -1.0951 -2.7524  2.0150
 1145TIP3   OH227629   7.269   5.075   7.656 -0.3241  0.0273  0.1974
 1145TIP3    H127630   7.182   5.061   7.693  0.0354  0.7447  1.3898
 1145TIP3    H227631   7.305   5.148   7.707  1.5545 -1.2282  0.7846
 1146TIP3   OH227632   3.380   0.362   8.842  0.0425  0.2724  0.2662
 1146TIP3    H127633   3.457   0.358   8.899 -0.1359 -1.7494  0.4320
 1146TIP3    H227634   3.348   0.452   8.852  2.3712  1.1823  0.1590
 1147TIP3   OH227635   5.872   2.868   9.137  0.0738 -0.1950  0.1358
 1147TIP3    H127636   5.790   2.908   9.108 -0.4662 -1.0873  0.4031
 1147TIP3    H227637   5.872   2.878   9.233  1.9995  3.0318 -0.0473
 1148TIP3   OH227638   5.069   6.230   7.480 -0.0582  0.1501  0.1685
 1148TIP3    H127639   4.989   6.235   7.532  1.1409 -2.9945  2.6239
 1148TIP3    H227640   5.107   6.317   7.486 -0.9050  0.4132  3.0829
 1149TIP3   OH227641   3.015   4.240   9.085  0.4679  0.1093 -0.0002
 1149TIP3    H127642   2.927   4.204   9.076 -0.3295  2.0601 -0.4787
 1149TIP3    H227643   3.067   4.195   9.019 -0.3801 -0.4151 -0.3191
 1150TIP3   OH227644   0.630   0.767   9.024  0.3282 -0.5050 -0.3272
 1150TIP3    H127645   0.644   0.845   8.970 -2.8524  0.2513 -0.2928
 1150TIP3    H227646   0.678   0.785   9.104 -0.2889  1.4863 -0.3344
 1151TIP3   OH227647   2.291   3.272   9.809  0.3942 -0.5813  0.7581
 1151TIP3    H127648   2.273   3.364   9.823  0.6376 -0.1961 -1.1248
 1151TIP3    H227649   2.379   3.259   9.845  0.2795 -0.1416  1.2083
 1152TIP3   OH227650   5.921   3.601   8.398 -0.0256 -0.3349 -0.3772
 1152TIP3    H127651   5.975   3.675   8.368 -1.1036  0.7603  0.2971
 1152TIP3    H227652   5.919   3.541   8.324 -0.7887  1.2574 -1.7084
 1153TIP3   OH227653   7.265   3.878   8.623 -0.3456  0.3635 -0.0759
 1153TIP3    H127654   7.197   3.944   8.631  1.1844  1.9570  0.5768
 1153TIP3    H227655   7.271   3.860   8.529  0.1283  2.2377 -0.4515
 1154TIP3   OH227656   3.814   1.656   8.305 -0.0128  0.2453  0.7381
 1154TIP3    H127657   3.755   1.666   8.379  2.7965  1.2988  3.0030
 1154TIP3    H227658   3.883   1.598   8.337  1.7066  1.3719 -0.7262
 1155TIP3   OH227659   2.585   2.971   8.319 -0.2146  0.0645 -0.5024
 1155TIP3    H127660   2.628   2.914   8.254 -0.7789 -0.3073 -0.5659
 1155TIP3    H227661   2.603   2.929   8.403  1.3878  1.1092 -0.3003
 1156TIP3   OH227662   2.026   4.541   7.624  0.2625  0.2903  0.1457
 1156TIP3    H127663   1.958   4.604   7.601  0.9798  0.3805 -1.8776
 1156TIP3    H227664   1.984   4.455   7.612  0.2559  0.3529 -0.2941
 1157TIP3   OH227665   2.307   5.171   7.555  0.7064 -0.0788 -0.0503
 1157TIP3    H127666   2.323   5.256   7.597  0.3743  0.3971 -0.8767
 1157TIP3    H227667   2.233   5.186   7.496  0.1806 -1.1218  0.3055
 1158TIP3   OH227668   0.290   0.416   7.752 -0.1445  0.1539  0.6735
 1158TIP3    H127669   0.317   0.506   7.734 -0.9202  0.1245 -0.8076
 1158TIP3    H227670   0.217   0.401   7.692  0.1369 -1.5477  0.7271
 1159TIP3   OH227671   6.466   7.464   7.370  0.6274  0.1603 -0.1244
 1159TIP3    H127672   6.534   7.455   7.304  0.7390 -0.5476  0.0828
 1159TIP3    H227673   6.424   7.378   7.374  1.5001 -0.2279  1.6878
 1160TIP3   OH227674   5.587   1.780   8.658 -0.3435  0.1672  0.0172
 1160TIP3    H127675   5.664   1.724   8.658 -0.7262 -0.3700  0.1619
 1160TIP3    H227676   5.618   1.864   8.689 -0.0250 -0.3472  1.1376
 1161TIP3   OH227677   4.450   5.241   7.581 -0.6544 -0.3978 -0.2405
 1161TIP3    H127678   4.461   5.240   7.676 -0.4776  0.5252 -0.2490
 1161TIP3    H227679   4.375   5.183   7.564 -1.4801  0.4201  0.5581
 1162TIP3   OH227680   6.517   7.065   7.468  0.0912 -0.0537  0.7318
 1162TIP3    H127681   6.469   6.983   7.479 -0.7844  0.2677 -0.4511
 1162TIP3    H227682   6.609   7.040   7.473 -0.1281 -0.6462  3.3988
 1163TIP3   OH227683   6.650   5.101   9.186 -0.0712  0.1637  1.0191
 1163TIP3    H127684   6.685   5.111   9.275  0.7537 -0.7990  0.8269
 1163TIP3    H227685   6.723   5.125   9.129  0.0595 -1.1315  0.6082
 1164TIP3   OH227686   1.788   4.503   8.254 -0.4430 -0.1082  1.1003
 1164TIP3    H127687   1.880   4.526   8.243  0.1842 -1.6958  2.5171
 1164TIP3    H227688   1.780   4.480   8.347 -2.3504  0.3042  1.0711
 1165TIP3   OH227689   2.247   6.570   9.601 -0.3869  0.1986  0.5090
 1165TIP3    H127690   2.194   6.649   9.613 -1.2314 -0.6013  2.4805
 1165TIP3    H227691   2.333   6.594   9.634 -0.5774  0.3566  0.8930
 1166TIP3   OH227692   6.776   4.043   9.478 -0.1132  0.1478  0.1295
 1166TIP3    H127693   6.745   4.118   9.528  0.6423  0.7709 -0.3287
 1166TIP3    H227694   6.758   3.968   9.534 -1.6040  0.5714  0.2634
 1167TIP3   OH227695   0.724   3.367   8.565 -0.6786  0.2422  0.0664
 1167TIP3    H127696   0.770   3.383   8.483 -1.5488 -0.9265 -0.6745
 1167TIP3    H227697   0.671   3.289   8.549  0.6658 -1.2750  2.3669
 1168TIP3   OH227698   5.338   4.030   8.822  0.0826 -0.1889 -0.6776
 1168TIP3    H127699   5.393   4.036   8.900  0.5570 -0.6326 -0.9710
 1168TIP3    H227700   5.332   4.121   8.790  2.5294 -0.3624 -1.8999
 1169TIP3   OH227701   6.672   5.230   8.856  0.0319 -0.0002 -0.0214
 1169TIP3    H127702   6.748   5.273   8.895  0.6106 -0.0071 -1.0988
 1169TIP3    H227703   6.602   5.240   8.921  0.7832  0.5415  0.7217
 1170TIP3   OH227704   0.794   1.109   8.878  0.2259  0.1550  0.3034
 1170TIP3    H127705   0.783   1.048   8.805  1.9376  1.3524 -1.0591
 1170TIP3    H227706   0.707   1.118   8.916 -0.6212 -0.8911 -1.2842
 1171TIP3   OH227707   6.453   5.948   8.648  1.2902 -0.3785 -0.1858
 1171TIP3    H127708   6.536   5.986   8.679  1.2681 -1.3979  1.2553
 1171TIP3    H227709   6.479   5.889   8.578  1.5586  0.6930 -1.0052
 1172TIP3   OH227710   6.792   0.124   8.040 -0.3144  0.1300  0.2607
 1172TIP3    H127711   6.833   0.051   7.994 -1.5457 -0.4240 -0.0231
 1172TIP3    H227712   6.788   0.194   7.976  1.4982  0.7242  0.7397
 1173TIP3   OH227713   3.258   2.435   7.105 -0.3890  0.1684  0.2896
 1173TIP3    H127714   3.313   2.369   7.062 -0.6571 -0.5680  1.0646
 1173TIP3    H227715   3.316   2.511   7.116 -0.0657  0.0574 -0.5566
 1174TIP3   OH227716   0.744   3.775   8.883  0.2518  0.5098 -0.2720
 1174TIP3    H127717   0.770   3.738   8.799 -1.8195 -1.6329 -0.0753
 1174TIP3    H227718   0.733   3.699   8.941 -0.5268  1.7390  1.2838
 1175TIP3   OH227719   0.848   6.368   9.308 -0.3447 -0.3848 -0.3706
 1175TIP3    H127720   0.776   6.430   9.319  0.3557  0.5472 -0.8578
 1175TIP3    H227721   0.922   6.410   9.351  0.1943 -0.7926 -0.8830
 1176TIP3   OH227722   7.482   0.888   8.733  0.2294  0.3248  0.2913
 1176TIP3    H127723   7.540   0.864   8.805 -0.3013 -1.1318  0.2774
 1176TIP3    H227724   7.398   0.905   8.774  0.3924  1.4188  0.2022
 1177TIP3   OH227725   5.876   4.252   9.248  0.3797 -0.3181  0.3001
 1177TIP3    H127726   5.936   4.183   9.278 -0.6454 -1.4569 -0.2055
 1177TIP3    H227727   5.821   4.210   9.183 -0.7542  0.8044  0.4932
 1178TIP3   OH227728   1.883   2.276   8.759  0.7781 -0.1215  0.1072
 1178TIP3    H127729   1.922   2.332   8.691  1.9308 -0.3199  0.5736
 1178TIP3    H227730   1.876   2.190   8.718  0.5183 -0.0077 -0.0887
 1179TIP3   OH227731   4.013   0.807   7.217  0.0508 -0.2658 -0.0994
 1179TIP3    H127732   4.031   0.845   7.131 -0.9655  0.0982 -0.1581
 1179TIP3    H227733   4.100   0.785   7.252  0.6451  1.7061 -0.2359
 1180TIP3   OH227734   1.718   3.727   8.922  0.6004  0.3194  0.5090
 1180TIP3    H127735   1.750   3.796   8.980  0.8200  0.6086  0.0527
 1180TIP3    H227736   1.670   3.774   8.854 -0.0681 -0.0478  0.7135
 1181TIP3   OH227737   1.636   0.300   9.251 -0.5467  0.7271  0.2831
 1181TIP3    H127738   1.552   0.338   9.276 -1.5749 -0.8324 -0.7008
 1181TIP3    H227739   1.698   0.373   9.259 -2.1216  2.1316  0.2236
 1182TIP3   OH227740   4.316   2.834   7.702  0.6044 -0.0412 -0.0265
 1182TIP3    H127741   4.347   2.775   7.771  0.8892 -3.5064 -2.8348
 1182TIP3    H227742   4.396   2.867   7.661  0.4704  0.1282 -0.1503
 1183TIP3   OH227743   1.873   7.060   7.139 -0.0942  0.6558 -0.9327
 1183TIP3    H127744   1.915   6.983   7.177 -0.6302  0.8074 -0.0230
 1183TIP3    H227745   1.866   7.122   7.211 -2.1054  0.5420 -0.9964
 1184TIP3   OH227746   6.728   6.597   8.987  0.2618 -0.5174 -0.4154
 1184TIP3    H127747   6.647   6.634   8.953 -0.8547 -0.5688  2.0024
 1184TIP3    H227748   6.702   6.515   9.030  0.8827  1.0659  3.3748
 1185TIP3   OH227749   4.105   0.099   8.831  0.3998  0.3057  0.0462
 1185TIP3    H127750   4.032   0.046   8.800  0.6924 -0.3487  0.4485
 1185TIP3    H227751   4.174   0.086   8.766  0.9026 -0.8130  0.7779
 1186TIP3   OH227752   0.493   5.730   8.859 -0.5096  0.1937 -0.2313
 1186TIP3    H127753   0.570   5.673   8.852  1.2086  2.3112  0.2878
 1186TIP3    H227754   0.496   5.784   8.780 -0.5591  1.3375  0.5279
 1187TIP3   OH227755   0.799   3.869   7.335  0.8973 -0.5062  0.3999
 1187TIP3    H127756   0.860   3.830   7.272 -0.9535 -1.3805 -0.9564
 1187TIP3    H227757   0.756   3.794   7.375 -1.0387  0.0477 -0.5153
 1188TIP3   OH227758   5.148   3.979   9.392  0.5271  0.1270 -0.1871
 1188TIP3    H127759   5.166   4.067   9.425 -0.0782 -0.0827  0.7555
 1188TIP3    H227760   5.054   3.967   9.406  0.9480 -1.4705  1.7387
 1189TIP3   OH227761   7.382   6.704   8.581 -0.1055 -0.7166  0.3416
 1189TIP3    H127762   7.344   6.658   8.655 -0.6136  1.8517  1.8263
 1189TIP3    H227763   7.476   6.684   8.586 -0.2049 -0.9796  1.4049
 1190TIP3   OH227764   4.736   2.791   9.530  0.0859 -0.9054 -0.6535
 1190TIP3    H127765   4.659   2.828   9.574  2.2262  1.7734  1.1577
 1190TIP3    H227766   4.712   2.700   9.512 -2.3344 -1.1290  2.7706
 1191TIP3   OH227767   5.281   6.054   8.676  0.0687  0.2917  0.3615
 1191TIP3    H127768   5.268   6.001   8.597 -2.8907 -1.1331  1.6567
 1191TIP3    H227769   5.210   6.118   8.675 -0.4132 -0.1619  2.1411
 1192TIP3   OH227770   0.361   7.085   9.152 -0.7612 -0.9707  0.1502
 1192TIP3    H127771   0.409   7.167   9.144 -2.0001 -0.1000  1.2524
 1192TIP3    H227772   0.273   7.105   9.118 -1.1152 -1.7875  0.5517
 1193TIP3   OH227773   6.880   1.191   9.280 -0.4135  0.2083  0.2844
 1193TIP3    H127774   6.855   1.204   9.371 -0.7035 -0.6146  0.3322
 1193TIP3    H227775   6.861   1.275   9.238 -0.9994  0.3606  0.8276
 1194TIP3   OH227776   6.816   3.951   8.683  0.2689 -0.4897 -0.0371
 1194TIP3    H127777   6.762   3.901   8.745 -0.9273  0.5219 -0.2105
 1194TIP3    H227778   6.811   4.041   8.715  2.2973 -0.4153  0.2175
 1195TIP3   OH227779   2.696   1.980   9.896  0.1054 -0.0363  0.4074
 1195TIP3    H127780   2.646   1.959   9.974 -0.5076  1.1083  0.3395
 1195TIP3    H227781   2.631   2.006   9.831  0.7383  1.4652  0.3153
 1196TIP3   OH227782   7.331   0.292   6.951  0.3563 -0.1825 -0.6214
 1196TIP3    H127783   7.356   0.200   6.942  0.6816 -0.0844 -0.7479
 1196TIP3    H227784   7.403   0.340   6.910 -0.2901  0.0876 -1.4778
 1197TIP3   OH227785   2.251   5.215   7.894 -0.0968  0.0794 -0.3757
 1197TIP3    H127786   2.238   5.309   7.898  0.2815  0.1025  1.3833
 1197TIP3    H227787   2.166   5.177   7.916 -0.3221 -0.0026 -1.3680
 1198TIP3   OH227788   6.163   7.258   8.105  0.6648  0.1282 -0.2375
 1198TIP3    H127789   6.258   7.252   8.120  0.5925  0.4887  0.3843
 1198TIP3    H227790   6.149   7.209   8.024  1.1810 -1.1742  0.4337
 1199TIP3   OH227791   3.181   0.600   8.488 -0.4946 -0.0422 -0.0511
 1199TIP3    H127792   3.187   0.512   8.526 -0.5860 -0.8947 -1.9190
 1199TIP3    H227793   3.098   0.634   8.520 -0.5782 -0.7167  0.4892
 1200TIP3   OH227794   6.549   1.199   7.512 -0.0177  0.1044 -0.1890
 1200TIP3    H127795   6.529   1.106   7.500 -1.5072  0.3261  0.4226
 1200TIP3    H227796   6.585   1.226   7.428  0.1198 -0.9438 -0.4879
 1201TIP3   OH227797   4.778   0.863   6.728  0.3607  0.6576  0.2020
 1201TIP3    H127798   4.853   0.809   6.752 -0.7269 -0.5960  0.9020
 1201TIP3    H227799   4.790   0.944   6.776  1.3050  0.5048  0.2314
 1202TIP3   OH227800   5.855   1.763   8.005 -0.7141 -0.4065 -0.6253
 1202TIP3    H127801   5.926   1.731   8.060 -0.2332  0.8366 -0.5076
 1202TIP3    H227802   5.835   1.690   7.947  0.6638 -0.7695 -0.6676
 1203TIP3   OH227803   2.632   5.891   9.376  0.6267  0.7820  0.3213
 1203TIP3    H127804   2.583   5.811   9.359  1.5649  0.1924  0.2711
 1203TIP3    H227805   2.566   5.956   9.397 -0.2803  0.3919 -1.1520
 1204TIP3   OH227806   4.802   0.675   9.833 -0.2845  0.4370  0.3396
 1204TIP3    H127807   4.867   0.649   9.899 -1.2306 -2.2819  0.3032
 1204TIP3    H227808   4.816   0.614   9.760 -0.8312  1.8681 -1.0345
 1205TIP3   OH227809   6.715   1.281   7.294  0.1610  0.2875 -0.2151
 1205TIP3    H127810   6.763   1.208   7.256  0.2899  0.4700 -0.4054
 1205TIP3    H227811   6.641   1.295   7.235 -1.3073 -1.2986  1.1343
 1206TIP3   OH227812   3.031   1.798   7.552  0.2784  0.1226 -0.1888
 1206TIP3    H127813   3.033   1.778   7.458  1.0814  2.5115 -0.7577
 1206TIP3    H227814   3.104   1.748   7.588  0.4175 -0.2595 -0.9723
 1207TIP3   OH227815   1.858   6.429   6.560  0.1319 -0.0543  0.1266
 1207TIP3    H127816   1.829   6.494   6.496  3.4270  0.1787 -1.3329
 1207TIP3    H227817   1.833   6.345   6.522  1.5947  0.1100 -1.3104
 1208TIP3   OH227818   5.603   6.505   7.564  0.2155 -0.0928 -0.6183
 1208TIP3    H127819   5.576   6.596   7.553  0.0326  0.1325  1.4043
 1208TIP3    H227820   5.536   6.466   7.620  1.2338 -0.9903  0.0194
 1209TIP3   OH227821   7.257   4.657   8.093  0.0495 -0.2139  0.1862
 1209TIP3    H127822   7.217   4.580   8.054 -0.6027 -0.7990  1.8951
 1209TIP3    H227823   7.193   4.727   8.081 -0.1166 -0.3722  0.1489
 1210TIP3   OH227824   5.690   0.071   9.032  0.4730  0.5687  0.2764
 1210TIP3    H127825   5.616   0.090   9.089  1.0479 -0.0507  1.2561
 1210TIP3    H227826   5.767   0.092   9.085  1.0316 -0.5498 -0.0698
 1211TIP3   OH227827   0.862   4.340   8.586  0.0290  0.2008 -0.2839
 1211TIP3    H127828   0.791   4.344   8.522  0.8842  0.6188 -1.2303
 1211TIP3    H227829   0.886   4.247   8.588  0.5473  0.3055 -1.2009
 1212TIP3   OH227830   0.185   2.166   7.751  0.1477  0.2049 -0.2456
 1212TIP3    H127831   0.208   2.157   7.658  1.0026  0.3472 -0.0537
 1212TIP3    H227832   0.115   2.102   7.764  0.3774 -0.1852 -0.8654
 1213TIP3   OH227833   2.160   5.115   8.481 -0.3843  0.6891 -0.1945
 1213TIP3    H127834   2.223   5.051   8.449 -1.0612 -0.1833  0.1902
 1213TIP3    H227835   2.171   5.191   8.423 -0.5178 -0.2736 -1.5220
 1214TIP3   OH227836   7.386   7.449   9.345 -0.1562 -0.3693  0.1303
 1214TIP3    H127837   7.389   7.377   9.282  1.5560  0.5062 -0.8488
 1214TIP3    H227838   7.403   7.527   9.293  0.6613  0.4565  1.5722
 1215TIP3   OH227839   4.495   7.408   8.761  0.9562  0.3914  0.4095
 1215TIP3    H127840   4.443   7.439   8.687 -1.3058  1.1728  2.2017
 1215TIP3    H227841   4.579   7.452   8.751  0.6165  0.6921 -1.5135
 1216TIP3   OH227842   2.179   2.619   9.171  0.0208  0.0942  0.5697
 1216TIP3    H127843   2.211   2.689   9.228  0.7529 -0.1894  0.5170
 1216TIP3    H227844   2.118   2.570   9.226 -0.0148  0.4017  0.8069
 1217TIP3   OH227845   4.276   5.504   9.068  0.0059  0.5893  0.2351
 1217TIP3    H127846   4.188   5.493   9.106 -1.2327  2.0488 -1.9789
 1217TIP3    H227847   4.317   5.418   9.078 -1.3858  0.0512  1.9578
 1218TIP3   OH227848   0.068   2.094   9.593 -0.2627 -0.3154 -0.6114
 1218TIP3    H127849   0.024   2.178   9.602  0.4209 -0.0357  0.2700
 1218TIP3    H227850   0.002   2.030   9.619 -0.9403 -0.1117 -1.7504
 1219TIP3   OH227851   5.554   5.614   7.127 -0.1221  0.8231  0.5039
 1219TIP3    H127852   5.519   5.532   7.160 -0.2251  0.2435 -0.9881
 1219TIP3    H227853   5.481   5.653   7.078  0.6689  0.6010 -0.8833
 1220TIP3   OH227854   7.006   6.860   8.733  0.1911 -0.5348  0.1535
 1220TIP3    H127855   7.094   6.854   8.696 -0.2890 -1.9190 -0.8817
 1220TIP3    H227856   6.982   6.952   8.723  1.9107  0.1181  1.4997
 1221TIP3   OH227857   1.813   2.349   9.442 -0.2927  0.6213  0.3126
 1221TIP3    H127858   1.878   2.367   9.510 -0.8530 -0.0300  1.0414
 1221TIP3    H227859   1.758   2.428   9.439  0.6430  1.2639 -0.4640
 1222TIP3   OH227860   0.389   1.449   8.986  0.0822  0.4904 -0.3800
 1222TIP3    H127861   0.453   1.503   9.033  0.4848 -0.6501  0.4194
 1222TIP3    H227862   0.437   1.416   8.911  0.2606  0.1075 -0.0992
 1223TIP3   OH227863   4.299   1.816   7.580 -0.7993  0.2357 -0.2281
 1223TIP3    H127864   4.223   1.771   7.543 -0.6234  0.6941 -1.1726
 1223TIP3    H227865   4.292   1.906   7.546  1.0433 -0.1176 -1.6751
 1224TIP3   OH227866   5.509   5.411   7.998  0.3008 -0.9140 -0.1946
 1224TIP3    H127867   5.463   5.379   7.920 -1.2310  1.9348 -0.5911
 1224TIP3    H227868   5.445   5.402   8.068 -0.0281  0.7978 -0.2470
 1225TIP3   OH227869   1.468   5.808   9.117 -0.0842  0.4900 -0.0750
 1225TIP3    H127870   1.555   5.846   9.124  0.1043 -0.0261  0.3994
 1225TIP3    H227871   1.411   5.871   9.162  0.3368 -0.1308  1.3698
 1226TIP3   OH227872   4.290   1.602   8.229  0.3691  0.5662  0.2068
 1226TIP3    H127873   4.287   1.660   8.153 -0.2051 -0.5321 -0.6334
 1226TIP3    H227874   4.346   1.648   8.292  0.1295  1.9059 -0.5214
 1227TIP3   OH227875   5.731   2.430   8.742 -0.8408  0.4975  0.8046
 1227TIP3    H127876   5.788   2.500   8.709 -0.1058 -1.0036 -1.3471
 1227TIP3    H227877   5.780   2.392   8.815  0.3446  0.1055 -0.1606
 1228TIP3   OH227878   0.098   5.855   9.002  0.4454 -0.0082  0.0521
 1228TIP3    H127879   0.165   5.788   8.993  0.0071 -0.4710  0.2133
 1228TIP3    H227880   0.118   5.918   8.932 -1.1060 -1.9695 -2.3000
 1229TIP3   OH227881   2.021   5.450   9.247  0.0253  0.5377 -0.1370
 1229TIP3    H127882   1.966   5.489   9.179 -0.2964  1.0487  0.4046
 1229TIP3    H227883   2.061   5.374   9.205  0.4296  1.2712 -1.1217
 1230TIP3   OH227884   0.255   2.370   9.056  0.0435 -0.1161 -0.2424
 1230TIP3    H127885   0.234   2.355   8.964  0.2754  0.2426 -0.3547
 1230TIP3    H227886   0.201   2.445   9.081 -1.7797 -1.6029  0.5569
 1231TIP3   OH227887   3.833   0.230   9.203 -0.9167  0.2285 -0.5105
 1231TIP3    H127888   3.772   0.209   9.132 -1.5997 -2.5955  0.7678
 1231TIP3    H227889   3.911   0.177   9.184 -0.6120  0.4190  0.1841
 1232TIP3   OH227890   2.617   0.758   9.423 -0.3473  0.3868  0.4686
 1232TIP3    H127891   2.680   0.696   9.458 -1.1047  0.7197  2.5506
 1232TIP3    H227892   2.568   0.708   9.358 -0.8329 -1.2064  1.9795
 1233TIP3   OH227893   2.676   3.843   9.706  0.3624  0.0654 -0.1340
 1233TIP3    H127894   2.737   3.791   9.654 -0.8833 -0.1084 -1.4549
 1233TIP3    H227895   2.601   3.786   9.720  0.1401  0.5608  0.7891
 1234TIP3   OH227896   0.059   4.116   8.935 -0.7092  0.4305 -0.7904
 1234TIP3    H127897   0.062   4.032   8.889 -1.7707  0.3213 -0.6807
 1234TIP3    H227898  -0.005   4.168   8.886  0.0955  1.2565 -0.9811
 1235TIP3   OH227899   5.161   3.819   9.162 -0.5501 -0.0071  0.4304
 1235TIP3    H127900   5.172   3.866   9.244 -0.4537  1.3625 -0.3372
 1235TIP3    H227901   5.092   3.867   9.115  1.1503  0.8430 -1.3543
 1236TIP3   OH227902   2.817   0.431   9.328  0.0384 -0.1476 -1.0642
 1236TIP3    H127903   2.875   0.399   9.260  0.4001 -0.4104 -0.6377
 1236TIP3    H227904   2.875   0.467   9.395 -0.3246  0.4257 -1.0496
 1237TIP3   OH227905   2.638   0.209   8.233 -0.0161 -0.3637  0.1194
 1237TIP3    H127906   2.566   0.258   8.271  1.0267  0.9757  0.4444
 1237TIP3    H227907   2.716   0.258   8.257  0.8452 -0.4806 -2.1309
 1238TIP3   OH227908   4.507   2.369   8.095 -0.1497  0.4626  0.1617
 1238TIP3    H127909   4.565   2.443   8.114  1.3656 -0.1752 -1.6592
 1238TIP3    H227910   4.525   2.306   8.166  2.0192 -0.0335 -0.7444
 1239TIP3   OH227911   0.635   4.377   8.441  0.0323 -0.1171 -0.2289
 1239TIP3    H127912   0.636   4.308   8.375 -0.1594 -0.4992  0.1617
 1239TIP3    H227913   0.545   4.381   8.471  0.1974 -0.2341  0.3017
 1240TIP3   OH227914   6.202   4.301   9.425  0.3987  0.6909  0.3413
 1240TIP3    H127915   6.244   4.287   9.510  0.1262  0.5373  0.4501
 1240TIP3    H227916   6.136   4.233   9.419 -0.2347  1.2906  0.4221
 1241TIP3   OH227917   1.346   5.204   7.501 -0.2618 -0.0491  0.2097
 1241TIP3    H127918   1.292   5.262   7.555  1.4015  2.4206 -0.5826
 1241TIP3    H227919   1.422   5.183   7.556 -0.4203 -0.7445  0.1684
 1242TIP3   OH227920   2.347   4.189   7.924  0.0596  0.5606 -0.0383
 1242TIP3    H127921   2.371   4.252   7.991  0.0197 -0.8499  1.3655
 1242TIP3    H227922   2.257   4.163   7.946  0.4620 -0.8018  0.1204
 1243TIP3   OH227923   6.645   4.500   7.504 -0.8897  0.0011  0.3739
 1243TIP3    H127924   6.665   4.509   7.411  0.6351 -1.5447  0.4932
 1243TIP3    H227925   6.728   4.517   7.548 -1.3238 -0.3885  1.3743
 1244TIP3   OH227926   5.274   2.936   9.622 -0.0047 -0.2754  0.0340
 1244TIP3    H127927   5.258   3.019   9.666 -0.2858 -0.2899 -0.0385
 1244TIP3    H227928   5.193   2.918   9.574 -0.1411 -0.8519  0.4746
 1245TIP3   OH227929   1.303   2.325   8.052 -0.2425  0.1405 -0.0271
 1245TIP3    H127930   1.351   2.406   8.033 -0.5429  0.3658  0.1676
 1245TIP3    H227931   1.291   2.326   8.147 -1.7514  0.7311 -0.1891
 1246TIP3   OH227932   1.723   1.058   6.941 -0.1481  0.2917  0.2859
 1246TIP3    H127933   1.694   1.145   6.914 -1.1626 -0.4955 -1.3123
 1246TIP3    H227934   1.671   0.998   6.888  0.0112 -1.3227  1.8584
 1247TIP3   OH227935   5.261   4.332   8.836 -0.5026 -0.3284  0.0783
 1247TIP3    H127936   5.284   4.324   8.743  0.8218 -1.1912  0.4459
 1247TIP3    H227937   5.190   4.396   8.838 -0.7035 -0.4580 -1.5457
 1248TIP3   OH227938   4.578   7.307   9.186  0.0325 -0.5647  1.0904
 1248TIP3    H127939   4.490   7.318   9.149 -0.2271 -0.4373  1.7357
 1248TIP3    H227940   4.571   7.342   9.275  0.9984  0.3653  0.8172
 1249TIP3   OH227941   2.286   1.426   8.691  1.0789 -0.6421  0.2628
 1249TIP3    H127942   2.267   1.464   8.606 -0.4706  0.5978  1.0999
 1249TIP3    H227943   2.363   1.473   8.723  0.7117  0.0081  0.2031
 1250TIP3   OH227944   6.713   3.479   8.125 -0.6725  0.5550  0.1111
 1250TIP3    H127945   6.758   3.530   8.057  0.7388 -0.7675  0.0143
 1250TIP3    H227946   6.714   3.536   8.202  1.4113  0.4931  0.1787
 1251TIP3   OH227947   3.838   0.161   8.193  0.0567  0.5098 -0.1456
 1251TIP3    H127948   3.807   0.210   8.269  0.4934 -1.0670  1.1081
 1251TIP3    H227949   3.920   0.203   8.169 -0.1070  1.0462  0.2127
 1252TIP3   OH227950   7.195   2.394   8.822  0.0597  0.2780 -0.0387
 1252TIP3    H127951   7.130   2.336   8.861 -1.4835  0.2067 -2.4930
 1252TIP3    H227952   7.152   2.430   8.745  3.5824 -1.5441 -3.2266
 1253TIP3   OH227953   4.938   4.979   6.973  0.1534 -0.1373  0.1373
 1253TIP3    H127954   4.847   5.007   6.980  0.9185  3.1937 -1.1547
 1253TIP3    H227955   4.984   5.031   7.039  1.5000  0.6755 -1.3640
 1254TIP3   OH227956   4.274   1.662   8.697  0.3828  0.1637 -0.1267
 1254TIP3    H127957   4.265   1.621   8.784  2.3529 -1.3884 -0.5716
 1254TIP3    H227958   4.202   1.626   8.646  1.3667 -1.9253 -0.1426
 1255TIP3   OH227959   7.115   5.653   8.435 -0.0593 -0.2909 -0.3639
 1255TIP3    H127960   7.192   5.623   8.484 -0.5587 -1.5833 -0.3302
 1255TIP3    H227961   7.126   5.748   8.430  0.7920 -0.2888  0.9210
 1256TIP3   OH227962   7.503   2.073   8.287 -0.5094  0.1198 -0.4627
 1256TIP3    H127963   7.541   2.014   8.352  0.1728  0.7239 -0.3007
 1256TIP3    H227964   7.432   2.117   8.333 -1.0467 -0.5873 -0.5951
 1257TIP3   OH227965   5.105   5.429   7.760  0.5584 -0.3924  0.4193
 1257TIP3    H127966   5.198   5.404   7.752  0.2024 -1.3957 -0.9967
 1257TIP3    H227967   5.104   5.496   7.828  2.5713  0.8965 -0.7114
 1258TIP3   OH227968   5.073   7.132   9.517  0.0866  0.2696 -0.5815
 1258TIP3    H127969   5.119   7.188   9.455 -0.1757 -1.5227 -2.4763
 1258TIP3    H227970   4.998   7.098   9.469 -1.2170  0.2922  1.3262
 1259TIP3   OH227971   1.251   0.408   6.694  0.3905 -0.9281 -0.1118
 1259TIP3    H127972   1.206   0.492   6.700  0.4735 -0.8155 -0.9074
 1259TIP3    H227973   1.322   0.414   6.758  0.2356 -0.4943  0.0211
 1260TIP3   OH227974   5.675   6.268   9.038  0.1084  0.6634  0.1037
 1260TIP3    H127975   5.629   6.276   8.954  1.1832  0.7232 -0.5083
 1260TIP3    H227976   5.681   6.357   9.071 -0.5939  0.6035  0.4073
 1261TIP3   OH227977   1.558   3.729   8.270  0.3078 -0.2302  0.1467
 1261TIP3    H127978   1.469   3.758   8.250 -0.0677 -0.3330  1.5904
 1261TIP3    H227979   1.559   3.715   8.364  1.5017 -1.4885 -0.0159
 1262TIP3   OH227980   4.094   4.614   7.932  0.5939  0.1347 -0.4253
 1262TIP3    H127981   4.190   4.610   7.934  0.5550 -0.9261 -0.0002
 1262TIP3    H227982   4.066   4.529   7.966 -0.5018  0.3902 -0.6603
 1263TIP3   OH227983   0.361   0.362   8.878  0.1308  0.5703 -0.2337
 1263TIP3    H127984   0.391   0.450   8.901  1.1780  0.1402  0.1010
 1263TIP3    H227985   0.353   0.316   8.962 -0.8190  0.4662 -0.3743
 1264TIP3   OH227986   2.460   5.150   8.096  0.3477 -0.0976 -0.3234
 1264TIP3    H127987   2.380   5.165   8.046  1.0528  0.6642 -1.2669
 1264TIP3    H227988   2.499   5.237   8.105 -0.2657 -0.0070  2.5077
 1265TIP3   OH227989   6.988   4.433   7.502  0.6232 -0.4063  0.0834
 1265TIP3    H127990   7.006   4.517   7.545  1.3199 -1.0121  1.0200
 1265TIP3    H227991   6.926   4.454   7.432 -0.0977  0.7075  1.0311
 1266TIP3   OH227992   5.626   6.711   8.095 -0.3644 -0.2287 -0.0544
 1266TIP3    H127993   5.715   6.745   8.090  0.5045 -2.2183  0.8084
 1266TIP3    H227994   5.585   6.762   8.165 -0.2040  1.2275 -0.9686
 1267TIP3   OH227995   4.598   1.021   7.598 -0.1658  0.0474 -0.4185
 1267TIP3    H127996   4.506   0.998   7.589 -0.2964 -0.3700  1.5597
 1267TIP3    H227997   4.597   1.100   7.653  0.7043 -1.1244  1.3583
 1268TIP3   OH227998   5.349   3.221   7.772  0.0263  0.1427  0.2325
 1268TIP3    H127999   5.314   3.132   7.764 -1.1251  0.6771 -0.9279
 1268TIP3    H228000   5.300   3.260   7.844 -1.2975  0.6246 -0.8740
 1269TIP3   OH228001   6.588   2.182   9.450 -0.0617 -0.1542 -0.3630
 1269TIP3    H128002   6.648   2.109   9.437 -0.6506 -0.5386 -1.0275
 1269TIP3    H228003   6.642   2.252   9.485  0.8053 -0.4477 -1.0761
 1270TIP3   OH228004   2.442   5.350   6.762 -0.2718 -0.3158  0.4855
 1270TIP3    H128005   2.495   5.414   6.714 -0.1246  1.4149  2.7823
 1270TIP3    H228006   2.490   5.267   6.753  1.1493  0.5398 -0.1077
 1271TIP3   OH228007   5.648   0.812   7.367 -0.4942  0.5971 -0.6040
 1271TIP3    H128008   5.656   0.874   7.294 -0.9209 -0.5512 -1.6700
 1271TIP3    H228009   5.613   0.733   7.326  2.2243 -1.1790  0.2161
 1272TIP3   OH228010   1.479   0.482   8.224 -0.1593 -0.2489 -0.0113
 1272TIP3    H128011   1.412   0.535   8.267 -0.6586 -1.9683  1.4581
 1272TIP3    H228012   1.430   0.420   8.170  0.4140  0.7532 -1.7513
 1273TIP3   OH228013   0.164   2.436   8.725 -0.7894  0.0651  0.0109
 1273TIP3    H128014   0.071   2.458   8.717 -0.6462  0.2350 -1.2915
 1273TIP3    H228015   0.176   2.359   8.670 -0.0072  0.5003 -0.4469
 1274TIP3   OH228016   4.100   1.855   8.079  0.3798  0.1190 -0.2530
 1274TIP3    H128017   4.144   1.940   8.070  1.4877 -0.3672  0.3073
 1274TIP3    H228018   4.125   1.807   8.000  1.2588 -0.3123  0.2644
 1275TIP3   OH228019   7.256   6.165   9.791  0.4715  0.1097  0.0581
 1275TIP3    H128020   7.235   6.194   9.702  0.9153 -0.9363 -0.4128
 1275TIP3    H228021   7.265   6.246   9.842 -0.3726  0.6983 -0.7108
 1276TIP3   OH228022   6.459   6.156   7.242  0.4007  0.0396 -0.0525
 1276TIP3    H128023   6.493   6.227   7.187 -0.9092  0.5581 -0.2460
 1276TIP3    H228024   6.401   6.201   7.305 -1.0421 -0.9173 -0.6615
 1277TIP3   OH228025   2.209   6.547   8.984  0.6865 -0.2903 -0.2780
 1277TIP3    H128026   2.225   6.563   9.078  0.7696 -0.9546 -0.1743
 1277TIP3    H228027   2.244   6.625   8.941  0.9924 -0.1412  0.2219
 1278TIP3   OH228028   1.889   6.304   8.051 -0.4008 -0.1001 -0.0121
 1278TIP3    H128029   1.847   6.229   8.009  0.3480  0.4450 -1.8335
 1278TIP3    H228030   1.982   6.295   8.030 -0.3000  1.3458 -0.3272
 1279TIP3   OH228031   1.641   4.339   8.526 -0.1076  0.2467 -0.4383
 1279TIP3    H128032   1.570   4.319   8.464  1.2122 -0.8103 -1.6962
 1279TIP3    H228033   1.715   4.288   8.494  0.7873  0.0431  1.7766
 1280TIP3   OH228034   3.936   2.387   8.516 -0.1969  0.0917  0.3523
 1280TIP3    H128035   3.915   2.480   8.520  1.1503  0.5465 -1.6119
 1280TIP3    H228036   3.986   2.370   8.596  0.5814  1.3757  0.1741
 1281TIP3   OH228037   0.234   2.465   7.743  0.1161 -0.0833  0.4713
 1281TIP3    H128038   0.163   2.529   7.751  0.3371  0.0725  1.2528
 1281TIP3    H228039   0.190   2.381   7.735 -0.1565  0.0178  0.9223
 1282TIP3   OH228040   3.838   7.451   8.032 -0.5481 -1.2075 -0.3896
 1282TIP3    H128041   3.784   7.479   7.957  1.8777 -0.2655 -1.9114
 1282TIP3    H228042   3.852   7.532   8.082 -0.6596 -1.4803  0.0882
 1283TIP3   OH228043   3.322   0.412   9.410  0.6558  0.4569 -0.0104
 1283TIP3    H128044   3.392   0.422   9.475  1.6533  0.0382 -0.9914
 1283TIP3    H228045   3.279   0.330   9.434  2.1544 -0.6340 -0.8762
 1284TIP3   OH228046   5.128   4.299   7.984 -0.0811  0.5162  0.1842
 1284TIP3    H128047   5.077   4.312   7.904  0.8192 -0.0972 -0.5084
 1284TIP3    H228048   5.071   4.247   8.041  0.3178 -1.5020 -1.1879
 1285TIP3   OH228049   5.379   3.132   8.096 -0.5714  0.1766  0.5067
 1285TIP3    H128050   5.353   3.199   8.159  2.8058 -0.5726  2.9210
 1285TIP3    H228051   5.455   3.169   8.051  0.3397 -1.3742  0.7207
 1286TIP3   OH228052   5.354   0.197   8.402  0.0545 -0.5352  0.0677
 1286TIP3    H128053   5.381   0.287   8.418 -0.7148 -0.5542  1.6621
 1286TIP3    H228054   5.381   0.180   8.312 -1.6310  1.9609 -1.0046
 1287TIP3   OH228055   0.931   3.567   9.049  0.8384 -0.4320 -0.1866
 1287TIP3    H128056   0.872   3.495   9.030 -2.2050  1.2535  1.9858
 1287TIP3    H228057   0.983   3.537   9.123  1.2516 -1.1892 -0.7752
 1288TIP3   OH228058   1.069   7.409   8.519 -0.3644 -0.9264  0.1634
 1288TIP3    H128059   1.047   7.355   8.595  0.2830 -0.8933  0.3839
 1288TIP3    H228060   0.988   7.414   8.468 -1.6606  1.4361  2.2653
 1289TIP3   OH228061   2.405   1.857   8.519  0.3293 -0.1965 -0.1694
 1289TIP3    H128062   2.427   1.848   8.427 -0.0112 -1.2746 -0.1507
 1289TIP3    H228063   2.328   1.802   8.531  0.9382 -0.8286  0.9693
 1290TIP3   OH228064   2.352   1.904   9.158  0.2717 -0.1564 -0.0048
 1290TIP3    H128065   2.384   1.993   9.175 -1.1274  0.2443  0.6299
 1290TIP3    H228066   2.260   1.915   9.136  0.3756 -1.3585 -1.1253
 1291TIP3   OH228067   4.179   6.502   7.618 -0.0615 -0.0179 -0.1203
 1291TIP3    H128068   4.228   6.568   7.570  1.6024 -0.6912  0.5991
 1291TIP3    H228069   4.169   6.538   7.706  1.6390 -1.0465  0.5371
 1292TIP3   OH228070   5.079   2.664   7.437 -0.2619  0.1484  0.2457
 1292TIP3    H128071   5.032   2.738   7.398 -0.9881 -0.6931 -0.5275
 1292TIP3    H228072   5.172   2.689   7.430 -0.3268 -0.0107 -2.2317
 1293TIP3   OH228073   6.429   3.033   9.257  0.4841 -0.3063  0.0447
 1293TIP3    H128074   6.470   2.980   9.324  0.0538 -0.1247  0.4580
 1293TIP3    H228075   6.357   2.980   9.224 -0.8855  0.5681  1.4985
 1294TIP3   OH228076   0.026   1.615   9.380 -0.3629  0.5758  0.3512
 1294TIP3    H128077  -0.043   1.650   9.323  1.0329 -0.3048 -2.0117
 1294TIP3    H228078   0.011   1.521   9.381  0.6081  0.4128  0.0921
 1295TIP3   OH228079   3.436   6.014   7.849  0.1226 -0.1216  0.2529
 1295TIP3    H128080   3.401   6.085   7.795  0.0471 -0.1126  0.3138
 1295TIP3    H228081   3.360   5.975   7.891 -0.0156 -1.2855 -1.0302
 1296TIP3   OH228082   0.767   1.228   7.065  0.0274 -0.3107 -0.0193
 1296TIP3    H128083   0.862   1.229   7.050  0.1650 -1.0432  0.7156
 1296TIP3    H228084   0.734   1.305   7.018  1.2068  0.9984  1.2285
 1297TIP3   OH228085   0.659   3.791   8.523 -0.2822  0.3879  0.3969
 1297TIP3    H128086   0.729   3.856   8.515  1.0143 -1.1434 -1.9039
 1297TIP3    H228087   0.703   3.712   8.554 -1.2884 -0.1834  0.4236
 1298TIP3   OH228088   4.196   5.392   7.703  0.0456 -0.1906  0.1831
 1298TIP3    H128089   4.105   5.390   7.733 -0.0635  1.7515  0.0943
 1298TIP3    H228090   4.247   5.392   7.783 -0.1284  0.9358  0.3171
 1299TIP3   OH228091   6.488   4.182   8.643  0.5042  0.4589 -0.4506
 1299TIP3    H128092   6.465   4.123   8.571  0.5684  0.4207 -0.4402
 1299TIP3    H228093   6.408   4.188   8.695  0.9466 -0.8981  0.4445
 1300TIP3   OH228094   6.203   5.117   8.753  0.2688 -0.1057 -0.1149
 1300TIP3    H128095   6.262   5.186   8.723  1.0175 -0.8138 -0.3055
 1300TIP3    H228096   6.219   5.112   8.847  0.9954 -0.7351 -0.2658
 1301TIP3   OH228097   1.678   5.371   9.173  0.3732 -0.1717 -0.0783
 1301TIP3    H128098   1.679   5.365   9.269 -1.4614 -0.2073 -0.0287
 1301TIP3    H228099   1.670   5.465   9.155  0.2609 -0.1997 -0.1761
 1302TIP3   OH228100   3.204   7.272   9.016 -0.4601 -0.4929  0.2074
 1302TIP3    H128101   3.174   7.237   8.932 -0.6648  1.2452 -0.4877
 1302TIP3    H228102   3.130   7.260   9.075 -0.9574 -0.1500 -0.3408
 1303TIP3   OH228103   5.737   5.583   8.664 -0.2485  0.1280 -0.0251
 1303TIP3    H128104   5.665   5.547   8.715 -0.3673  0.5383  0.1010
 1303TIP3    H228105   5.799   5.617   8.729 -0.1351  0.1443 -0.1398
 1304TIP3   OH228106   1.291   4.874   9.206  0.9318  0.1643  0.1269
 1304TIP3    H128107   1.374   4.877   9.158  0.9788 -1.5818  0.0369
 1304TIP3    H228108   1.226   4.848   9.141  0.7252 -0.6733  0.6494
 1305TIP3   OH228109   6.164   4.841   8.026 -0.3288 -0.5541  0.1372
 1305TIP3    H128110   6.086   4.828   8.078  0.7589 -3.0843  1.2747
 1305TIP3    H228111   6.235   4.848   8.090  0.6729 -0.6614 -0.9249
 1306TIP3   OH228112   5.671   7.060   7.466  0.0147 -0.2150 -0.7165
 1306TIP3    H128113   5.624   7.124   7.412  1.6259  1.1928 -0.5128
 1306TIP3    H228114   5.689   6.987   7.407 -0.4484  0.2055 -1.3927
 1307TIP3   OH228115   7.001   3.510   8.305  0.0548  0.0706 -0.2390
 1307TIP3    H128116   6.922   3.549   8.341  0.6638  0.7296  0.4339
 1307TIP3    H228117   6.970   3.449   8.239 -1.0811 -0.7515  1.0115
 1308TIP3   OH228118   6.767   2.183   7.629  0.6888 -0.0442 -0.9979
 1308TIP3    H128119   6.822   2.207   7.704 -0.3094  1.5957 -0.7290
 1308TIP3    H228120   6.810   2.106   7.591  0.6087 -1.6514  1.8957
 1309TIP3   OH228121   1.036   5.591   7.640  0.5253 -0.4760 -0.3851
 1309TIP3    H128122   0.992   5.534   7.577 -0.3540 -1.8380  1.3873
 1309TIP3    H228123   0.965   5.638   7.684  0.9876 -0.9160  0.8632
 1310TIP3   OH228124   4.155   1.401   7.652  0.2812 -0.4497 -0.2907
 1310TIP3    H128125   4.225   1.342   7.622  0.4379 -1.6282  2.1894
 1310TIP3    H228126   4.196   1.487   7.655  0.8390 -0.6555 -1.3492
 1311TIP3   OH228127   5.455   5.378   7.225  0.2978  0.0774 -0.3688
 1311TIP3    H128128   5.397   5.389   7.300  0.7558  1.9039 -0.2275
 1311TIP3    H228129   5.480   5.286   7.228 -1.0331 -0.2894  0.7077
 1312TIP3   OH228130   3.570   4.539   9.398  0.3159  0.9278  0.1869
 1312TIP3    H128131   3.494   4.500   9.354  0.1037 -0.1993  1.4647
 1312TIP3    H228132   3.562   4.511   9.489  1.4128  2.1362  0.6891
 1313TIP3   OH228133   1.253   3.282   7.757  0.0582 -0.5407  0.1732
 1313TIP3    H128134   1.234   3.370   7.790  3.2660  0.7156 -0.9551
 1313TIP3    H228135   1.236   3.289   7.663  1.0682 -0.8732 -0.0426
 1314TIP3   OH228136   6.614   0.219   9.053  0.4027 -0.2946 -0.0992
 1314TIP3    H128137   6.533   0.169   9.042 -0.4344  1.4114 -2.5787
 1314TIP3    H228138   6.624   0.226   9.148 -2.2177 -0.8042  0.3139
 1315TIP3   OH228139   1.841   6.344   9.555 -0.1711 -0.7577 -0.2338
 1315TIP3    H128140   1.831   6.425   9.605 -0.7338 -0.4269 -0.8765
 1315TIP3    H228141   1.930   6.315   9.575 -0.3664 -0.6015  0.9094
 1316TIP3   OH228142   3.491   5.606   7.799 -0.4351  0.2737  0.3848
 1316TIP3    H128143   3.479   5.570   7.887 -0.9413 -0.4111  0.0419
 1316TIP3    H228144   3.546   5.684   7.812  0.2440 -0.3286  1.1964
 1317TIP3   OH228145   2.114   1.646   7.857 -0.5026 -0.2930 -0.0962
 1317TIP3    H128146   2.109   1.586   7.931  0.8541  0.9200  1.0501
 1317TIP3    H228147   2.139   1.591   7.782  5.0829 -0.8363  1.6856
 1318TIP3   OH228148   6.379   6.595   9.260 -0.2772 -0.2380  0.3079
 1318TIP3    H128149   6.464   6.580   9.301  0.1268 -0.5093 -0.6019
 1318TIP3    H228150   6.349   6.508   9.235  0.1916  0.0396 -1.3253
 1319TIP3   OH228151   6.833   1.453   9.098 -0.0460  0.0501  0.0615
 1319TIP3    H128152   6.906   1.514   9.100  0.0975 -0.1352  0.9667
 1319TIP3    H228153   6.861   1.384   9.037 -0.1504  0.7821 -0.8458
 1320TIP3   OH228154   5.237   1.915   7.893  0.0201 -0.1094  0.3493
 1320TIP3    H128155   5.319   1.960   7.874  0.2232 -0.6484 -0.0660
 1320TIP3    H228156   5.211   1.875   7.810 -1.0689  0.7040  0.2770
 1321TIP3   OH228157   7.354   0.265   7.878 -0.8035 -0.3684 -0.3674
 1321TIP3    H128158   7.290   0.310   7.934 -1.8901 -0.8608 -1.1660
 1321TIP3    H228159   7.382   0.190   7.930  1.0715  1.1815  1.0034
 1322TIP3   OH228160   6.122   2.957   8.648 -0.5156  0.2187  0.0887
 1322TIP3    H128161   6.050   2.958   8.585 -0.8693  0.2771  0.4900
 1322TIP3    H228162   6.090   3.010   8.721 -0.0705  0.2293  0.2743
 1323TIP3   OH228163   1.300   6.303   8.331  0.2755 -0.9951 -0.4503
 1323TIP3    H128164   1.388   6.342   8.336 -0.7230  1.3593  0.1302
 1323TIP3    H228165   1.254   6.355   8.265 -1.3575 -0.6527  0.8797
 1324TIP3   OH228166   4.688   3.856   8.653  0.7651 -1.1002 -0.0595
 1324TIP3    H128167   4.726   3.927   8.705  0.9606 -1.9720  1.0270
 1324TIP3    H228168   4.679   3.783   8.714 -3.4520 -0.7651  0.0480
 1325TIP3   OH228169   0.312   1.918   9.658 -0.0713 -0.0129 -0.0231
 1325TIP3    H128170   0.243   1.984   9.663 -0.1444 -0.0846 -0.0746
 1325TIP3    H228171   0.282   1.848   9.716  1.4853  1.3381  2.6131
 1326TIP3   OH228172   7.325   5.052   8.723 -0.4203 -0.3872 -0.4856
 1326TIP3    H128173   7.267   5.086   8.791 -0.4167 -0.6600 -0.3443
 1326TIP3    H228174   7.268   5.006   8.663 -0.0524 -3.7504  1.4967
 1327TIP3   OH228175   4.978   5.772   7.719  0.5171  0.4212  0.5602
 1327TIP3    H128176   4.917   5.713   7.675 -0.1352  0.1005  1.8405
 1327TIP3    H228177   4.922   5.830   7.770  1.2799  0.0963  1.8044
 1328TIP3   OH228178   4.822   1.878   8.936 -0.4520  0.3602 -0.3041
 1328TIP3    H128179   4.757   1.810   8.951 -0.7350  0.2410 -1.8611
 1328TIP3    H228180   4.792   1.953   8.986 -0.8898 -0.2183  0.3098
 1329TIP3   OH228181   3.933   1.428   8.986 -0.0153  0.0039  0.0583
 1329TIP3    H128182   3.947   1.464   9.074 -1.2835  0.6878  0.0076
 1329TIP3    H228183   4.001   1.362   8.976  0.0573 -0.2060  1.6281
 1330TIP3   OH228184   4.442   4.960   9.007  0.2746 -0.3746 -0.0858
 1330TIP3    H128185   4.447   4.897   8.935  0.6735 -0.7240  0.2437
 1330TIP3    H228186   4.496   4.923   9.076  0.9859  0.6069 -0.0924
 1331TIP3   OH228187   2.455   0.382   8.436  0.2645  0.2727 -0.0846
 1331TIP3    H128188   2.388   0.318   8.459 -1.0159  1.1099 -1.3181
 1331TIP3    H228189   2.533   0.354   8.485 -0.7116 -1.2481  0.6786
 1332TIP3   OH228190   3.956   6.064   8.886 -0.1985  0.2595  0.2983
 1332TIP3    H128191   3.879   6.062   8.942 -0.5456  0.6806 -0.1568
 1332TIP3    H228192   3.930   6.015   8.808  0.0314  0.3064  0.1890
 1333TIP3   OH228193   1.062   5.085   7.857  0.3357 -0.4566 -0.5668
 1333TIP3    H128194   1.023   5.011   7.904  0.9753 -1.3793 -1.4435
 1333TIP3    H228195   1.139   5.108   7.909 -1.1123  1.1631  0.9926
 1334TIP3   OH228196   6.821   4.304   9.714  0.0511 -0.6631 -0.3057
 1334TIP3    H128197   6.764   4.358   9.660 -1.0263 -1.1648  0.2943
 1334TIP3    H228198   6.790   4.319   9.803  0.9950 -0.8049  0.0626
 1335TIP3   OH228199   7.163   3.024   8.458 -0.0043  0.0868 -0.3526
 1335TIP3    H128200   7.100   3.084   8.418 -1.5637 -1.3037 -0.1011
 1335TIP3    H228201   7.109   2.965   8.512  1.4370 -1.5668 -0.6368
 1336TIP3   OH228202   5.363   7.023   9.234 -0.0368 -0.1187 -0.0340
 1336TIP3    H128203   5.298   6.990   9.171  0.4554 -0.2597 -0.4721
 1336TIP3    H228204   5.316   7.091   9.282 -0.2788  0.3533 -0.9026
 1337TIP3   OH228205   0.067   4.883   7.431  0.2848  0.3184 -0.1167
 1337TIP3    H128206   0.012   4.949   7.474  1.5153  0.9195  0.6119
 1337TIP3    H228207   0.153   4.894   7.472  0.6805 -1.3302 -0.4401
 1338TIP3   OH228208   4.171   2.024   7.798  1.1378 -0.3148 -0.2668
 1338TIP3    H128209   4.220   2.046   7.877  0.3988 -1.7760  0.6433
 1338TIP3    H228210   4.164   2.107   7.750  0.4059  0.9474  1.8676
 1339TIP3   OH228211   7.278   0.382   8.325  0.1458 -0.7383 -0.5152
 1339TIP3    H128212   7.321   0.435   8.258  1.7315 -0.1844  0.8666
 1339TIP3    H228213   7.274   0.294   8.288 -0.0273 -0.2184 -1.7612
 1340TIP3   OH228214   7.413   5.939   8.722  0.1721 -0.1135 -0.1344
 1340TIP3    H128215   7.422   5.847   8.694 -0.1447 -0.5613  1.1689
 1340TIP3    H228216   7.495   5.959   8.766  0.8662  0.7447 -1.7277
 1341TIP3   OH228217   1.704   5.725   8.451 -0.1067 -0.2535 -0.1956
 1341TIP3    H128218   1.754   5.651   8.419 -0.6918 -0.9597  0.4742
 1341TIP3    H228219   1.639   5.742   8.382  0.6366  0.2704 -0.7843
 1342TIP3   OH228220   6.874   3.127   8.656  0.2653  0.4136 -0.1502
 1342TIP3    H128221   6.784   3.115   8.687  0.9004  1.8016  2.5909
 1342TIP3    H228222   6.878   3.218   8.628  0.6805  0.2017 -0.7885
 1343TIP3   OH228223   4.447   1.215   8.692  0.3143  0.0127  0.2323
 1343TIP3    H128224   4.488   1.192   8.609 -1.3336 -1.7433 -0.1843
 1343TIP3    H228225   4.354   1.224   8.671 -0.1799 -0.7068  1.8894
 1344TIP3   OH228226   5.311   2.055   9.604  0.2320  0.4419  0.0703
 1344TIP3    H128227   5.265   1.989   9.553  1.3610  0.5072 -1.0605
 1344TIP3    H228228   5.365   2.005   9.666  0.4772  0.3153 -0.2439
 1345TIP3   OH228229   6.353   6.454   8.934 -0.0586 -0.5022  0.0219
 1345TIP3    H128230   6.297   6.382   8.963  0.1889 -0.7505 -0.1083
 1345TIP3    H228231   6.314   6.483   8.852  0.1970 -0.9033 -0.2468
 1346TIP3   OH228232   5.425   0.332   7.191  0.3868 -0.5645  0.4459
 1346TIP3    H128233   5.441   0.412   7.141 -1.3111  0.0242  0.7583
 1346TIP3    H228234   5.511   0.302   7.219  1.2591 -0.1353 -1.6228
 1347TIP3   OH228235   0.481   7.079   7.992  0.3226  0.3243 -0.2389
 1347TIP3    H128236   0.415   7.105   8.056 -1.1689  0.1493 -1.6490
 1347TIP3    H228237   0.544   7.027   8.042 -1.1734 -0.3987  0.9655
 1348TIP3   OH228238   3.992   3.860   8.736  0.0190 -0.2317  0.1633
 1348TIP3    H128239   4.087   3.855   8.747  0.2360  1.2566 -0.7314
 1348TIP3    H228240   3.958   3.787   8.787  1.5005  0.5435  2.4002
 1349TIP3   OH228241   6.841   0.709   8.670 -0.9748 -0.0223 -0.2365
 1349TIP3    H128242   6.907   0.778   8.682 -1.7330  0.4823  1.2891
 1349TIP3    H228243   6.847   0.686   8.577  0.4883  0.8801 -0.3928
 1350TIP3   OH228244   7.356   6.498   7.722 -0.0082  0.5958 -0.0981
 1350TIP3    H128245   7.341   6.439   7.649  1.2090  1.4927 -1.1096
 1350TIP3    H228246   7.296   6.571   7.706  0.7974  1.1522 -0.6382
 1351TIP3   OH228247   1.735   1.526   9.023 -0.2518 -0.0639  0.1208
 1351TIP3    H128248   1.754   1.540   8.931  0.0366 -0.5424  0.1051
 1351TIP3    H228249   1.818   1.542   9.068 -0.1952 -0.6181  0.2142
 1352TIP3   OH228250   3.601   3.625   7.934  0.2047 -1.1144  0.3681
 1352TIP3    H128251   3.688   3.602   7.968  1.1952  0.6522 -0.7899
 1352TIP3    H228252   3.616   3.644   7.841 -1.4941 -1.0953  0.0637
 1353TIP3   OH228253   1.372   0.669   6.925  1.0599  0.0067 -0.9345
 1353TIP3    H128254   1.358   0.656   6.832 -0.7514  0.2962 -0.7407
 1353TIP3    H228255   1.395   0.582   6.958  1.7640 -0.0855 -1.6373
 1354TIP3   OH228256   2.236   3.229   7.333  0.7655 -0.7298 -0.2540
 1354TIP3    H128257   2.285   3.210   7.413 -0.6267 -1.3587  0.4928
 1354TIP3    H228258   2.145   3.208   7.355  0.2566 -0.3262 -1.8163
 1355TIP3   OH228259   7.399   2.722   8.432 -0.6569 -0.0528 -0.2878
 1355TIP3    H128260   7.398   2.626   8.428  0.4245 -0.1354  0.9330
 1355TIP3    H228261   7.385   2.743   8.524 -0.6893  0.9600 -0.5102
 1356TIP3   OH228262   0.215   5.171   9.612 -0.2697 -0.1438  0.0370
 1356TIP3    H128263   0.141   5.177   9.551 -0.7684 -0.2450  0.6268
 1356TIP3    H228264   0.272   5.243   9.588 -0.1029 -0.6093 -1.0242
 1357TIP3   OH228265   2.829   0.470   8.214  0.1324  0.4452  0.5790
 1357TIP3    H128266   2.860   0.475   8.304 -0.0469 -1.2360  0.7700
 1357TIP3    H228267   2.906   0.488   8.161  0.2751  1.2867  1.0522
 1358TIP3   OH228268   6.226   4.184   8.671  0.3231  0.2901  0.2461
 1358TIP3    H128269   6.180   4.156   8.751 -1.1010  0.4043 -0.5038
 1358TIP3    H228270   6.193   4.272   8.654  0.9749  0.4493 -0.2173
 1359TIP3   OH228271   3.751   6.386   8.694  0.1899 -0.0682 -0.6759
 1359TIP3    H128272   3.772   6.357   8.605  1.2135 -1.6495  0.0458
 1359TIP3    H228273   3.667   6.345   8.714  0.5892 -0.7882 -0.4505
 1360TIP3   OH228274   4.886   1.813   8.226 -0.7746 -0.1032  0.2662
 1360TIP3    H128275   4.841   1.880   8.174  0.4501 -0.0057 -0.7338
 1360TIP3    H228276   4.974   1.809   8.188 -0.9740 -2.7173 -0.1051
 1361TIP3   OH228277   2.561   7.211   8.475 -0.9903  0.1961 -0.0062
 1361TIP3    H128278   2.634   7.150   8.484  0.0149  1.3526 -0.0585
 1361TIP3    H228279   2.516   7.182   8.396 -0.4151 -0.3641 -0.1419
 1362TIP3   OH228280   3.459   5.193   9.569 -0.4033  0.3611 -0.1879
 1362TIP3    H128281   3.479   5.240   9.650  1.9571  0.7750 -0.9371
 1362TIP3    H228282   3.500   5.107   9.581  1.0434  0.8567 -1.3908
 1363TIP3   OH228283   0.722   2.456   7.790 -0.7024 -0.2925  0.1091
 1363TIP3    H128284   0.645   2.404   7.767 -0.8479 -0.2221  0.4341
 1363TIP3    H228285   0.686   2.534   7.831 -0.4357 -0.5655  0.8767
 1364TIP3   OH228286   0.554   4.184   7.935 -0.1354  0.6632 -0.2129
 1364TIP3    H128287   0.525   4.275   7.929  0.4857  0.9224  0.5373
 1364TIP3    H228288   0.650   4.189   7.935 -0.0349  0.2336  2.1560
 1365TIP3   OH228289   4.523   6.285   8.879 -0.3320  0.0051 -0.1002
 1365TIP3    H128290   4.470   6.221   8.926  0.1914 -0.4482 -0.1168
 1365TIP3    H228291   4.599   6.300   8.936 -0.2805  0.3493 -0.2567
 1366TIP3   OH228292   6.487   5.121   8.096 -0.3894 -0.0824 -0.0630
 1366TIP3    H128293   6.544   5.051   8.126 -0.4340  0.1111  0.5050
 1366TIP3    H228294   6.402   5.101   8.136 -0.4258  0.2400  0.0245
 1367TIP3   OH228295   2.149   0.911   8.461  0.7456  0.9673 -0.2267
 1367TIP3    H128296   2.153   0.836   8.402 -3.7922 -0.3053  0.6702
 1367TIP3    H228297   2.214   0.892   8.529  1.0566 -1.1802 -1.0478
 1368TIP3   OH228298   1.016   2.556   9.211 -0.0253  0.3165  0.5876
 1368TIP3    H128299   1.046   2.532   9.298 -2.0472  0.5572  1.3984
 1368TIP3    H228300   0.948   2.492   9.190  1.1434 -0.4114 -1.3120
 1369TIP3   OH228301   5.483   6.607   8.749  0.8524 -0.4069  0.2083
 1369TIP3    H128302   5.413   6.636   8.808  0.4289 -1.5478  0.2956
 1369TIP3    H228303   5.437   6.588   8.667  0.9850 -1.5716  0.3970
 1370TIP3   OH228304   5.344   4.752   7.887  0.1013  0.1560 -1.1145
 1370TIP3    H128305   5.389   4.837   7.890  0.3986 -0.0194  0.4657
 1370TIP3    H228306   5.404   4.696   7.837  1.2857  0.1587  0.2267
 1371TIP3   OH228307   2.181   5.528   8.501  0.0175  0.3519 -0.2448
 1371TIP3    H128308   2.208   5.447   8.458 -0.7651  0.2852 -0.6271
 1371TIP3    H228309   2.260   5.559   8.546  0.2669 -0.7555  0.1213
 1372TIP3   OH228310   0.026   0.194   8.235 -0.9579 -0.2603  0.5039
 1372TIP3    H128311   0.040   0.276   8.188 -1.8860 -1.4938 -2.1034
 1372TIP3    H228312   0.040   0.217   8.327  0.1648  2.4816 -0.2356
 1373TIP3   OH228313   6.214   4.481   8.034  0.4540  1.0687 -0.5334
 1373TIP3    H128314   6.264   4.532   7.971 -0.6426  1.5145 -1.0733
 1373TIP3    H228315   6.249   4.392   8.027  0.0169  0.9878 -2.1600
 1374TIP3   OH228316   2.263   5.575   7.212  0.2808 -0.4355 -0.4753
 1374TIP3    H128317   2.318   5.571   7.134  2.5146 -2.5657  1.0641
 1374TIP3    H228318   2.219   5.489   7.215 -1.1056  0.2472 -0.2428
 1375TIP3   OH228319   6.462   6.821   9.675 -0.1572  0.2773  0.2080
 1375TIP3    H128320   6.376   6.842   9.638 -1.4445 -3.0198  1.0366
 1375TIP3    H228321   6.486   6.900   9.724 -1.0140  2.6013 -2.7863
 1376TIP3   OH228322   0.758   3.290   8.131  0.1650 -0.6827  0.3749
 1376TIP3    H128323   0.676   3.240   8.140 -0.3345 -0.0637 -0.5454
 1376TIP3    H228324   0.745   3.366   8.187 -1.3065  1.1182 -2.1704
 1377TIP3   OH228325   4.017   0.973   6.992 -0.1570  0.7537  0.0635
 1377TIP3    H128326   4.031   0.991   6.899 -1.5737  1.5950 -0.0133
 1377TIP3    H228327   4.064   1.043   7.037  0.2523  0.5381 -0.0252
 1378TIP3   OH228328   4.828   3.636   9.378 -0.3083 -0.4414 -0.5855
 1378TIP3    H128329   4.836   3.605   9.288 -1.0889 -0.4311 -0.6656
 1378TIP3    H228330   4.804   3.558   9.428  1.8923 -0.8494 -0.0554
 1379TIP3   OH228331   5.994   0.184   7.873  0.6508  0.1946  0.4762
 1379TIP3    H128332   5.989   0.118   7.803  0.9331  1.3847 -0.7018
 1379TIP3    H228333   5.934   0.151   7.941  0.5831 -1.1332 -0.1882
 1380TIP3   OH228334   4.043   1.416   6.971 -0.0305  0.0274  0.5750
 1380TIP3    H128335   3.954   1.404   6.939 -0.5110 -0.5594  2.0448
 1380TIP3    H228336   4.055   1.511   6.973 -1.4558  0.2343  2.4005
 1381TIP3   OH228337   3.465   6.758   8.216 -0.3965 -0.3403  0.4750
 1381TIP3    H128338   3.444   6.666   8.231  0.7330 -0.5261  1.0620
 1381TIP3    H228339   3.424   6.804   8.289 -1.3088 -0.3117 -0.0384
 1382TIP3   OH228340   0.018   6.923   7.723  0.5208 -0.7631 -0.2353
 1382TIP3    H128341  -0.056   6.907   7.665 -0.8044  0.1537  1.1397
 1382TIP3    H228342   0.036   7.016   7.715  0.4214 -0.6562  0.7130
 1383TIP3   OH228343   5.231   1.835   7.638  0.4443  0.6592  0.3076
 1383TIP3    H128344   5.172   1.781   7.584  1.1078 -0.3353  0.5469
 1383TIP3    H228345   5.224   1.923   7.601  0.7416  0.0341 -1.2783
 1384TIP3   OH228346   0.822   0.052   8.493 -0.0343 -0.3919  0.2674
 1384TIP3    H128347   0.777  -0.033   8.502  1.8226 -1.3222  1.3819
 1384TIP3    H228348   0.777   0.109   8.556 -1.2759 -0.5326 -0.4630
 1385TIP3   OH228349   2.380   6.166   7.291  0.7819 -0.8316 -0.1833
 1385TIP3    H128350   2.414   6.198   7.207  1.5279 -1.4880 -0.1465
 1385TIP3    H228351   2.394   6.239   7.351 -0.2145 -0.1720 -0.7271
 1386TIP3   OH228352   5.954   2.404   9.295 -0.2946  0.1261 -0.1672
 1386TIP3    H128353   5.905   2.336   9.341 -3.1546  1.4797 -0.9556
 1386TIP3    H228354   5.996   2.359   9.222 -1.9631 -0.8640 -0.5555
 1387TIP3   OH228355   1.561   6.180   7.376  0.1628 -0.2759  0.1197
 1387TIP3    H128356   1.591   6.094   7.347 -0.9475 -0.5799 -0.1587
 1387TIP3    H228357   1.516   6.217   7.301  1.6903  1.0991 -0.1758
 1388TIP3   OH228358   4.831   1.290   8.671 -0.2581  0.4157  0.2724
 1388TIP3    H128359   4.766   1.360   8.668 -0.2775  0.3658 -1.2307
 1388TIP3    H228360   4.914   1.334   8.687  0.0158  1.0663 -2.4615
 1389TIP3   OH228361   2.092   1.433   8.054  0.2594 -0.1612 -0.0085
 1389TIP3    H128362   2.063   1.356   8.105  1.3846 -0.8528 -0.3755
 1389TIP3    H228363   2.100   1.503   8.119  0.1366 -0.6142  0.5000
 1390TIP3   OH228364   4.528   0.829   7.232  0.6547 -0.1376  0.2208
 1390TIP3    H128365   4.529   0.903   7.292 -2.2291  0.3911 -0.2205
 1390TIP3    H228366   4.600   0.847   7.171  0.7056  1.7330  0.7575
 1391TIP3   OH228367   1.324   3.197   9.186  0.4417 -0.4017 -0.1151
 1391TIP3    H128368   1.381   3.120   9.179  0.8409 -0.2793  1.4982
 1391TIP3    H228369   1.241   3.162   9.220  0.0108 -0.3605 -1.0825
 1392TIP3   OH228370   2.745   0.845   8.240 -0.2565 -0.5341  0.1109
 1392TIP3    H128371   2.689   0.772   8.212 -0.8215  0.4485 -1.4047
 1392TIP3    H228372   2.696   0.924   8.217  0.8624  0.3452  0.6416
 1393TIP3   OH228373   3.760   1.499   8.087  0.6079 -0.2701  0.6988
 1393TIP3    H128374   3.831   1.504   8.023  0.5048  0.0005  0.6018
 1393TIP3    H228375   3.778   1.571   8.148 -0.5501  0.9565 -0.3378
 1394TIP3   OH228376   0.833   4.009   8.405  0.1422 -0.0079 -0.1277
 1394TIP3    H128377   0.801   3.950   8.337 -0.4997  0.9981 -0.7362
 1394TIP3    H228378   0.775   4.085   8.400  0.3755  0.2849  1.2481
 1395TIP3   OH228379   2.825   5.017   8.704  0.6976  0.4383 -0.5768
 1395TIP3    H128380   2.779   4.960   8.766 -0.2065 -0.6718 -2.1892
 1395TIP3    H228381   2.901   5.049   8.752 -0.1485 -0.1065  1.1963
 1396TIP3   OH228382   4.820   2.510   8.806 -0.0101  0.4848 -0.9239
 1396TIP3    H128383   4.790   2.438   8.862  0.0539  0.5843 -0.7601
 1396TIP3    H228384   4.765   2.503   8.728 -1.6094  1.6160  0.0239
 1397TIP3   OH228385   2.315   3.700   8.102  0.1270  0.0755  0.2191
 1397TIP3    H128386   2.385   3.672   8.160  0.9776  0.7798 -0.4351
 1397TIP3    H228387   2.311   3.795   8.112  0.5478  0.2631 -1.1154
 1398TIP3   OH228388   6.615   6.580   9.380 -0.3021 -0.2433  0.3761
 1398TIP3    H128389   6.636   6.589   9.473 -0.5963  0.8661  0.3448
 1398TIP3    H228390   6.695   6.545   9.341  0.6830  1.5328  0.6730
 1399TIP3   OH228391   7.464   4.617   7.390  0.3347  0.3184  0.0782
 1399TIP3    H128392   7.453   4.712   7.380 -0.4009  0.3257  0.8608
 1399TIP3    H228393   7.391   4.590   7.445  1.4802 -0.4611  1.2671
 1400TIP3   OH228394   6.083   1.566   8.503  0.1848  0.0414  0.1293
 1400TIP3    H128395   6.020   1.610   8.446 -0.8534 -2.4993 -0.8513
 1400TIP3    H228396   6.116   1.635   8.561 -1.5307  1.9768 -1.0651
 1401TIP3   OH228397   4.582   2.288   9.530 -0.5904  0.1040  0.1286
 1401TIP3    H128398   4.497   2.272   9.570  0.0245 -1.1110  1.0202
 1401TIP3    H228399   4.609   2.203   9.495  0.4303  0.3712  0.2215
 1402TIP3   OH228400   6.650   1.751   9.323  0.1884  0.1737  0.0524
 1402TIP3    H128401   6.730   1.716   9.362  0.7744  0.5692 -0.7639
 1402TIP3    H228402   6.670   1.843   9.305  0.1460 -0.1079 -1.6330
 1403TIP3   OH228403   3.800   3.036   8.002  0.1308  0.1246 -0.1013
 1403TIP3    H128404   3.761   2.983   7.933  0.0537 -1.3412  0.9949
 1403TIP3    H228405   3.882   3.068   7.965 -0.3848  0.1959 -1.1976
 1404TIP3   OH228406   6.439   7.451   7.866 -0.4289 -0.0835  0.1516
 1404TIP3    H128407   6.500   7.406   7.807 -0.3610  0.6283 -0.3313
 1404TIP3    H228408   6.356   7.450   7.819 -0.4969  0.0453  0.2713
 1405TIP3   OH228409   1.332   0.725   7.413  0.3335  0.0426  0.1695
 1405TIP3    H128410   1.367   0.639   7.393  1.7002  0.5285  0.3478
 1405TIP3    H228411   1.263   0.739   7.348 -0.1288 -1.2911  0.3394
 1406TIP3   OH228412   4.945   4.942   8.965 -0.2862  0.1175  0.3079
 1406TIP3    H128413   4.908   4.943   8.876 -0.9634  0.4848  0.5886
 1406TIP3    H228414   4.976   4.852   8.976 -0.4886 -0.0192 -0.1880
 1407TIP3   OH228415   6.807   7.177   8.172  0.2980 -0.4695 -0.0016
 1407TIP3    H128416   6.731   7.145   8.221  0.6269 -3.4238 -1.2427
 1407TIP3    H228417   6.806   7.127   8.091  2.8282  0.4088 -0.6525
 1408TIP3   OH228418   1.606   2.821   8.086  0.4728 -0.5000  0.1876
 1408TIP3    H128419   1.524   2.827   8.037  1.6364 -1.3764 -1.9829
 1408TIP3    H228420   1.626   2.912   8.109 -0.2358 -0.0686 -0.8022
 1409TIP3   OH228421   6.056   5.579   8.990 -0.3974  0.2144  0.1465
 1409TIP3    H128422   6.127   5.516   8.983  0.4332  1.2661 -1.8470
 1409TIP3    H228423   6.076   5.630   9.069  1.2460  0.6705 -0.5276
 1410TIP3   OH228424   7.454   6.199   8.113  0.0946 -0.1257 -0.6877
 1410TIP3    H128425   7.387   6.259   8.080 -1.8539 -0.5077  2.2031
 1410TIP3    H228426   7.413   6.113   8.113  1.1952 -0.6787 -0.4115
 1411TIP3   OH228427   6.554   6.238   9.424  0.1330 -0.5035 -0.1081
 1411TIP3    H128428   6.557   6.311   9.486  1.9173 -0.2926 -0.3630
 1411TIP3    H228429   6.526   6.163   9.476 -2.3246  0.4163  0.0345
 1412TIP3   OH228430   3.195   0.601   9.274  0.1192 -0.4462 -0.4104
 1412TIP3    H128431   3.245   0.531   9.316  1.2843 -0.1134 -1.2012
 1412TIP3    H228432   3.252   0.678   9.281 -1.2109  0.4893  0.6036
 1413TIP3   OH228433   2.184   0.086   8.767  0.0357 -0.0191 -0.2993
 1413TIP3    H128434   2.144   0.072   8.681 -0.6941  1.6496 -0.2832
 1413TIP3    H228435   2.109   0.092   8.827  0.5495 -1.5146  0.5331
 1414TIP3   OH228436   1.571   0.790   8.498  0.2663 -0.5331  0.0973
 1414TIP3    H128437   1.592   0.769   8.407 -0.2889 -2.3228  0.3393
 1414TIP3    H228438   1.501   0.854   8.492 -1.4132 -2.3370 -0.8190
 1415TIP3   OH228439   3.169   7.283   9.791  0.1665 -0.5195  0.3600
 1415TIP3    H128440   3.110   7.272   9.866 -1.5369 -1.6115 -1.0563
 1415TIP3    H228441   3.197   7.194   9.770 -1.0793 -0.5124 -1.5631
 1416TIP3   OH228442   4.415   3.664   9.210 -0.2977 -0.3039 -0.6030
 1416TIP3    H128443   4.484   3.615   9.254  0.1709  0.3609 -0.5762
 1416TIP3    H228444   4.356   3.597   9.174  1.0988 -0.9386 -1.8406
 1417TIP3   OH228445   1.585   4.319   6.889 -0.3283  0.0739 -0.0749
 1417TIP3    H128446   1.577   4.252   6.822  0.1334  0.6017 -0.6647
 1417TIP3    H228447   1.539   4.282   6.965  0.7055 -1.2985 -0.0779
 1418TIP3   OH228448   0.569   0.000   9.381  0.7964 -0.2750 -0.1272
 1418TIP3    H128449   0.646  -0.024   9.433 -0.1955 -1.9540  0.6320
 1418TIP3    H228450   0.532  -0.083   9.352 -0.1655  0.5408 -1.3665
 1419TIP3   OH228451   5.455   3.980   9.540  0.1171 -0.0880  0.2231
 1419TIP3    H128452   5.435   4.060   9.589 -0.8586 -2.4577  4.1762
 1419TIP3    H228453   5.550   3.978   9.534  0.2691  0.4440  1.9575
 1420TIP3   OH228454   3.345   4.387   9.367 -0.1527  0.1307  0.5825
 1420TIP3    H128455   3.302   4.342   9.294 -0.8315  0.2985  0.8708
 1420TIP3    H228456   3.275   4.402   9.430  0.6227 -0.8957  1.7114
 1421TIP3   OH228457   0.147   3.565   8.794  0.5125  0.3303  0.0621
 1421TIP3    H128458   0.078   3.532   8.852  0.5113  3.0276  1.7584
 1421TIP3    H228459   0.213   3.496   8.794 -0.3640 -0.5733  1.7277
 1422TIP3   OH228460   0.152   6.524   8.869  0.5128 -0.5134 -0.1466
 1422TIP3    H128461   0.162   6.564   8.782  1.4547  0.9723  0.6121
 1422TIP3    H228462   0.227   6.555   8.919  0.9230 -2.7299  0.7229
 1423TIP3   OH228463   4.345   5.225   9.138 -0.3134 -0.5674 -0.4540
 1423TIP3    H128464   4.349   5.149   9.079  0.8808  0.3845 -1.6495
 1423TIP3    H228465   4.392   5.196   9.216  0.2993 -0.9992 -0.9714
 1424TIP3   OH228466   5.548   1.457   8.188  0.0695 -0.4248 -0.6789
 1424TIP3    H128467   5.572   1.439   8.279  0.9644 -0.9423 -1.0076
 1424TIP3    H228468   5.491   1.534   8.193  1.3375  0.5055  0.1900
 1425TIP3   OH228469   2.797   6.470   7.796 -0.0637 -0.5418 -0.0865
 1425TIP3    H128470   2.752   6.418   7.863  0.0252  1.1016  1.3384
 1425TIP3    H228471   2.871   6.416   7.770  0.5355 -0.8276  1.9869
 1426TIP3   OH228472   4.088   2.435   9.141 -0.6071  0.0923  0.1025
 1426TIP3    H128473   4.149   2.506   9.120  0.0571 -0.4066  0.2801
 1426TIP3    H228474   4.112   2.409   9.230  1.5436 -2.6339 -1.0925
 1427TIP3   OH228475   6.877   6.319   8.901  0.0988  0.2419 -0.3714
 1427TIP3    H128476   6.784   6.316   8.925  0.1620 -2.2985 -0.1424
 1427TIP3    H228477   6.923   6.305   8.984  0.5244 -1.6690 -0.8713
 1428TIP3   OH228478   5.536   4.186   7.450  0.3571 -0.2478  0.2983
 1428TIP3    H128479   5.585   4.168   7.370 -0.2428 -1.0696  0.0974
 1428TIP3    H228480   5.596   4.161   7.521  1.4595  1.9126  0.1822
 1429TIP3   OH228481   5.935   6.523   8.625 -0.2491  0.3962 -0.2361
 1429TIP3    H128482   5.940   6.504   8.532 -0.3198  1.1956 -0.4146
 1429TIP3    H228483   5.844   6.508   8.649 -0.2386  0.2281 -0.3046
 1430TIP3   OH228484   2.720   2.865   7.349  0.3714 -0.8958  0.0520
 1430TIP3    H128485   2.635   2.832   7.322 -0.1950  0.0332  0.6576
 1430TIP3    H228486   2.781   2.793   7.330 -0.4009 -1.2588 -1.1567
 1431TIP3   OH228487   2.883   5.169   9.080  0.1256 -0.0979  0.0911
 1431TIP3    H128488   2.923   5.197   8.998  1.9338  0.1731  1.0179
 1431TIP3    H228489   2.914   5.232   9.145 -0.5070 -0.8529  1.1623
 1432TIP3   OH228490   5.578   4.030   8.579  0.1024  0.9485  0.6162
 1432TIP3    H128491   5.650   3.974   8.606 -0.9251 -0.5804  0.3232
 1432TIP3    H228492   5.603   4.060   8.492  0.8774  1.3240  0.9666
 1433TIP3   OH228493   7.402   1.844   9.599  0.0369  0.5339  0.2930
 1433TIP3    H128494   7.316   1.802   9.591  0.8411 -1.3132  0.7674
 1433TIP3    H228495   7.415   1.888   9.515  0.0452 -2.0508 -1.1758
 1434TIP3   OH228496   2.292   3.582   8.665  0.2565 -0.2871  0.0580
 1434TIP3    H128497   2.273   3.611   8.754 -1.0497  0.9346 -0.5836
 1434TIP3    H228498   2.206   3.567   8.626  0.8352 -1.5787 -0.7680
 1435TIP3   OH228499   7.184   4.940   8.190 -0.4480  0.0572  0.3615
 1435TIP3    H128500   7.163   5.033   8.178  0.5870  0.5184  1.8331
 1435TIP3    H228501   7.170   4.924   8.284  1.6348 -0.6405  0.6138
 1436TIP3   OH228502   5.927   4.032   8.543  0.0142 -0.1302 -0.2713
 1436TIP3    H128503   5.862   3.968   8.571 -0.9428  0.9299  0.0117
 1436TIP3    H228504   6.008   4.006   8.587 -0.9409  0.2624  1.8693
 1437TIP3   OH228505   0.384   5.619   9.880  0.0597 -0.1578 -0.5217
 1437TIP3    H128506   0.431   5.659   9.953 -0.0954 -1.8537  0.5628
 1437TIP3    H228507   0.373   5.690   9.817  1.4439  1.0067  0.4822
 1438TIP3   OH228508   3.953   6.315   7.627  0.2142 -0.1306 -0.1767
 1438TIP3    H128509   4.024   6.379   7.637 -0.0744  0.3635 -1.1937
 1438TIP3    H228510   3.910   6.314   7.712  1.7700 -0.8442  0.6436
 1439TIP3   OH228511   1.860   5.367   8.643 -0.6488 -0.2287 -0.1533
 1439TIP3    H128512   1.838   5.382   8.734 -2.4900 -0.9735 -0.4411
 1439TIP3    H228513   1.793   5.414   8.593 -0.6186 -1.1365 -1.0959
 1440TIP3   OH228514   4.036   4.414   9.037 -0.5391  0.0629  0.1102
 1440TIP3    H128515   4.095   4.437   9.108  1.1703  0.1314 -1.2549
 1440TIP3    H228516   4.081   4.443   8.957 -3.1152  1.5150 -0.9357
 1441TIP3   OH228517   2.061   0.656   8.415  0.0320 -0.1865 -0.1178
 1441TIP3    H128518   2.001   0.629   8.485  0.1156  0.3763  0.1781
 1441TIP3    H228519   2.147   0.627   8.444  0.5561  2.5208  1.4535
 1442TIP3   OH228520   7.077   0.856   8.955 -0.0423 -0.5622  0.1804
 1442TIP3    H128521   7.113   0.825   8.872 -0.0692  1.9819 -0.8464
 1442TIP3    H228522   7.015   0.924   8.931 -0.8808 -0.5128  2.2595
 1443TIP3   OH228523   4.962   6.747   8.945  0.3134 -0.1260  0.2456
 1443TIP3    H128524   5.050   6.774   8.974  0.3102 -0.6350  0.7596
 1443TIP3    H228525   4.955   6.778   8.855  1.3553 -0.8296 -0.0928
 1444TIP3   OH228526   2.791   1.192   8.270  0.6995  0.6094 -0.1580
 1444TIP3    H128527   2.866   1.135   8.255  0.3949  0.1178  0.1475
 1444TIP3    H228528   2.727   1.165   8.205  1.1721  1.7565 -1.1348
 1445TIP3   OH228529   2.783   6.075   8.338 -0.2961  0.0214 -0.3809
 1445TIP3    H128530   2.780   6.069   8.243  2.7282 -0.1877 -0.5631
 1445TIP3    H228531   2.747   5.992   8.369  0.2963 -0.6297 -1.4031
 1446TIP3   OH228532   7.351   5.773   8.973 -0.2224  0.2729 -0.0030
 1446TIP3    H128533   7.447   5.782   8.970 -0.0879 -0.7483  0.8061
 1446TIP3    H228534   7.332   5.747   9.063 -1.1401 -0.9012 -0.5160
 1447TIP3   OH228535   2.229   4.392   9.313 -0.0777  0.6821 -0.8416
 1447TIP3    H128536   2.268   4.324   9.258  0.8653  1.1226 -0.7365
 1447TIP3    H228537   2.280   4.390   9.394  0.1501  1.7043 -0.9458
 1448TIP3   OH228538   0.796   3.605   8.655 -0.4252  0.2421  0.2114
 1448TIP3    H128539   0.888   3.591   8.677  0.9054  1.9838 -3.4103
 1448TIP3    H228540   0.754   3.520   8.668  2.2763 -1.2722 -0.3488
 1449TIP3   OH228541   6.137   1.223   9.544  0.4279  0.1572 -0.0387
 1449TIP3    H128542   6.224   1.187   9.525  0.6401  1.6210 -2.1186
 1449TIP3    H228543   6.077   1.169   9.492  0.5695  1.5970 -1.7915
 1450TIP3   OH228544   1.254   4.531   6.911  0.1669  0.2408  0.5390
 1450TIP3    H128545   1.189   4.562   6.847  0.8229  0.4235 -0.0418
 1450TIP3    H228546   1.307   4.608   6.930  1.9232 -0.4954 -1.0479
 1451TIP3   OH228547   6.518   5.124   7.442  0.2014 -1.0305 -0.0368
 1451TIP3    H128548   6.465   5.104   7.365  0.1600  1.1806 -0.6509
 1451TIP3    H228549   6.454   5.148   7.509  0.3486  0.9366 -0.5604
 1452TIP3   OH228550   1.995   4.010   7.201  0.5726 -0.0039  0.3500
 1452TIP3    H128551   2.086   4.000   7.173 -0.4667 -1.8783 -3.0616
 1452TIP3    H228552   1.960   4.077   7.143 -0.7953 -1.2219 -0.2972
 1453TIP3   OH228553   4.859   7.377   8.551 -0.8143 -0.3262  0.3838
 1453TIP3    H128554   4.843   7.364   8.458 -2.4126  2.2807  0.1924
 1453TIP3    H228555   4.898   7.295   8.581  0.1234 -1.1004 -2.6324
 1454TIP3   OH228556   0.030   6.400   7.040  0.3118  0.1946 -0.2549
 1454TIP3    H128557  -0.002   6.335   6.977  0.2608 -0.1944  0.1648
 1454TIP3    H228558  -0.008   6.482   7.010  0.9766  0.1594 -1.2145
 1455TIP3   OH228559   3.050   2.559   7.866  0.5296  0.1222  0.1397
 1455TIP3    H128560   3.066   2.467   7.846 -1.5989  0.1576 -2.2401
 1455TIP3    H228561   2.968   2.558   7.916  0.8411  0.6856  0.6663
 1456TIP3   OH228562   1.337   2.805   7.636 -0.2907  0.0794 -0.1263
 1456TIP3    H128563   1.337   2.880   7.696  1.9624 -0.4969  0.6894
 1456TIP3    H228564   1.253   2.762   7.653 -0.0350  0.3394  2.1590
 1457TIP3   OH228565   2.925   1.991   9.318  0.1934 -0.6705 -0.0190
 1457TIP3    H128566   2.954   2.041   9.241 -0.2835  0.6783  0.6415
 1457TIP3    H228567   2.853   2.042   9.354 -0.0911 -1.6809  0.8979
 1458TIP3   OH228568   3.885   2.256   7.417  0.3878  0.1169  0.6111
 1458TIP3    H128569   3.926   2.302   7.491  1.8582 -1.6169  0.9409
 1458TIP3    H228570   3.859   2.172   7.454 -0.7656  0.0213 -0.3778
 1459TIP3   OH228571   6.972   5.697   7.541 -0.1769 -0.5418 -0.0271
 1459TIP3    H128572   7.033   5.749   7.593  1.7486 -1.7529 -0.9885
 1459TIP3    H228573   6.998   5.606   7.557 -1.3544 -1.0660 -0.9191
 1460TIP3   OH228574   3.953   2.697   9.823  0.4571  0.5662  0.6871
 1460TIP3    H128575   3.866   2.732   9.844  0.7672  0.8034  1.6131
 1460TIP3    H228576   3.939   2.647   9.743 -0.7491 -0.2590  1.3819
 1461TIP3   OH228577   2.171   0.018   7.638 -0.0650 -0.3620 -0.0939
 1461TIP3    H128578   2.107   0.043   7.572  1.3590  0.9351 -1.0553
 1461TIP3    H228579   2.242  -0.023   7.589  0.0610 -1.3963  0.8953
 1462TIP3   OH228580   0.912   0.725   8.531 -0.3670  0.4862 -0.7339
 1462TIP3    H128581   0.890   0.633   8.541 -2.3880  1.1430  2.2274
 1462TIP3    H228582   0.938   0.734   8.439 -1.8567 -2.6661 -1.5919
 1463TIP3   OH228583   5.486   7.013   8.569 -0.4181 -0.1816  0.3550
 1463TIP3    H128584   5.457   7.070   8.640 -2.5236 -0.6618 -0.0603
 1463TIP3    H228585   5.562   6.967   8.604  0.7643  2.1433  1.0287
 1464TIP3   OH228586   7.189   4.217   6.672 -0.9481  0.4854  0.4581
 1464TIP3    H128587   7.254   4.283   6.649 -0.7604  0.4070  0.7609
 1464TIP3    H228588   7.227   4.134   6.643 -1.2767  0.5293 -0.1164
 1465TIP3   OH228589   4.675   3.448   7.527 -0.0943 -0.2041 -0.3579
 1465TIP3    H128590   4.657   3.517   7.463 -0.6162 -0.1871 -0.1946
 1465TIP3    H228591   4.750   3.401   7.491  0.7158  0.8812 -0.1336
 1466TIP3   OH228592   1.088   4.298   7.592 -0.2659 -0.2741 -0.3080
 1466TIP3    H128593   1.046   4.342   7.518 -0.7764 -0.3618 -0.0745
 1466TIP3    H228594   1.035   4.322   7.668  0.0316 -0.4905 -0.0285
 1467TIP3   OH228595   6.992   4.735   8.033 -0.2795 -0.0357  0.0522
 1467TIP3    H128596   6.955   4.788   7.963 -1.5706 -0.6860  0.2195
 1467TIP3    H228597   6.992   4.792   8.110 -1.8415 -0.3081  0.2784
 1468TIP3   OH228598   0.410   4.689   7.948  0.4472  0.0009 -0.2130
 1468TIP3    H128599   0.403   4.697   7.853 -0.5151 -0.3328 -0.1777
 1468TIP3    H228600   0.320   4.692   7.979  0.7423 -0.1383  0.6727
 1469TIP3   OH228601   0.359   7.098   9.656 -0.0207 -0.6511 -0.0174
 1469TIP3    H128602   0.375   7.006   9.677 -0.9462 -1.0085 -0.7858
 1469TIP3    H228603   0.400   7.110   9.570 -0.0656 -0.3875 -0.0035
 1470TIP3   OH228604   2.164   0.799   9.047  0.3695 -0.3649  0.1850
 1470TIP3    H128605   2.124   0.782   8.962 -0.0227  2.5402 -0.3386
 1470TIP3    H228606   2.254   0.825   9.027 -0.0995  1.6553  0.4159
 1471TIP3   OH228607   3.456   1.647   7.764  0.1325 -0.2321  0.5927
 1471TIP3    H128608   3.450   1.737   7.798  0.8321 -0.1569  0.5183
 1471TIP3    H228609   3.472   1.593   7.841  0.0985 -0.2522  0.5859
 1472TIP3   OH228610   1.311   4.425   7.483  0.1240  0.3074  0.6759
 1472TIP3    H128611   1.269   4.499   7.439  0.3969 -0.7358 -1.4808
 1472TIP3    H228612   1.238   4.377   7.523 -0.6661 -0.7263 -1.8540
 1473TIP3   OH228613   7.296   1.746   7.240 -0.1014 -0.2120  0.6630
 1473TIP3    H128614   7.358   1.680   7.210 -0.0481  0.5562 -0.9991
 1473TIP3    H228615   7.217   1.730   7.190  0.5173  2.1278 -1.2609
 1474TIP3   OH228616   6.026   6.593   6.583  0.1819 -0.2729 -0.0443
 1474TIP3    H128617   6.106   6.574   6.533  0.2076  0.9554 -0.4882
 1474TIP3    H228618   6.046   6.673   6.631 -1.1642  0.7254 -1.0880
 1475TIP3   OH228619   5.484   1.891   8.160 -0.3478 -0.3074 -0.3319
 1475TIP3    H128620   5.472   1.797   8.171  0.0427 -0.5044 -1.4396
 1475TIP3    H228621   5.476   1.905   8.065  2.5968  0.3065 -0.5671
 1476TIP3   OH228622   6.937   6.040   8.974 -0.2318  0.1493 -0.1867
 1476TIP3    H128623   7.017   6.010   8.931  0.4536 -1.1579  1.8911
 1476TIP3    H228624   6.964   6.114   9.028 -0.1318 -0.9880  1.3923
 1477TIP3   OH228625   0.931   4.661   8.878 -0.0023  0.1197  0.2709
 1477TIP3    H128626   0.956   4.705   8.796  0.4317 -0.7647 -0.0875
 1477TIP3    H228627   0.836   4.675   8.884  0.3121  2.4478  0.9996
 1478TIP3   OH228628   2.071   0.663   7.321 -0.3831  0.1128  0.0334
 1478TIP3    H128629   2.061   0.718   7.243 -0.2466  1.2018  0.7743
 1478TIP3    H228630   2.132   0.595   7.294 -0.1207  0.6403 -0.7353
 1479TIP3   OH228631   3.211   5.925   7.963 -0.1994 -0.3303 -0.3898
 1479TIP3    H128632   3.186   5.866   8.034 -0.4273 -0.8145 -0.8665
 1479TIP3    H228633   3.154   6.001   7.973 -0.2299 -0.3979 -0.0529
 1480TIP3   OH228634   5.158   5.062   9.459 -0.1635  0.5439 -0.6842
 1480TIP3    H128635   5.067   5.091   9.466  0.2303  1.8831 -0.8252
 1480TIP3    H228636   5.188   5.097   9.375  0.3644 -0.2670 -0.8515
 1481TIP3   OH228637   6.316   3.671   9.500 -0.2115  0.2101 -0.9922
 1481TIP3    H128638   6.244   3.713   9.548  0.2955 -1.2738  1.2338
 1481TIP3    H228639   6.273   3.612   9.438 -1.1732 -2.6955  2.1089
 1482TIP3   OH228640   2.246   2.538   8.755  1.0618  0.0031  0.0844
 1482TIP3    H128641   2.229   2.475   8.825  0.2327  0.4650  0.3116
 1482TIP3    H228642   2.174   2.523   8.692  1.9605 -0.6168 -0.8250
 1483TIP3   OH228643   0.768   3.018   9.293 -0.2614 -0.2124 -0.2860
 1483TIP3    H128644   0.716   3.045   9.368  0.3668 -0.8092  0.3877
 1483TIP3    H228645   0.824   2.947   9.326  0.2359 -0.2952 -1.2385
 1484TIP3   OH228646   6.190   0.714   7.299  0.4465  0.7574  0.1123
 1484TIP3    H128647   6.099   0.731   7.324  0.0023 -1.0405 -0.1158
 1484TIP3    H228648   6.188   0.710   7.203  0.9820  1.6824  0.0468
 1485TIP3   OH228649   7.271   1.868   8.998 -0.0380 -0.1373 -0.2371
 1485TIP3    H128650   7.342   1.804   8.991  0.4990  0.2094  1.6490
 1485TIP3    H228651   7.311   1.944   9.041 -1.5815 -0.0307  1.0956
 1486TIP3   OH228652   1.266   4.834   8.153 -0.6342 -0.5466 -0.1451
 1486TIP3    H128653   1.348   4.842   8.201  0.5734  1.3402 -2.3099
 1486TIP3    H228654   1.273   4.750   8.107  0.1893 -0.3019 -0.4774
 1487TIP3   OH228655   4.970   0.463   7.906  0.0976  0.2995 -0.3380
 1487TIP3    H128656   4.886   0.486   7.866 -0.3025 -2.9852 -1.6576
 1487TIP3    H228657   4.947   0.433   7.994 -0.3704 -1.7252 -1.0932
 1488TIP3   OH228658   4.470   5.164   7.839 -0.1099  0.6181 -0.5887
 1488TIP3    H128659   4.534   5.094   7.829 -0.5659 -0.0978  1.1709
 1488TIP3    H228660   4.520   5.240   7.868  0.4554  1.2440 -2.9291
 1489TIP3   OH228661   0.377   3.224   7.583 -0.0459  0.1882 -0.4117
 1489TIP3    H128662   0.402   3.221   7.675  0.2927  1.7426 -0.4286
 1489TIP3    H228663   0.294   3.270   7.582 -0.3151 -0.2853 -0.8533
 1490TIP3   OH228664   5.163   4.194   9.053  0.5591 -0.5231  0.3768
 1490TIP3    H128665   5.221   4.199   9.129 -0.0485  0.3006  0.8037
 1490TIP3    H228666   5.201   4.255   8.990 -0.4382  0.9208  1.1030
 1491TIP3   OH228667   0.916   3.965   7.721  0.2721  0.2698 -1.1394
 1491TIP3    H128668   0.998   3.959   7.672  1.7432 -0.0708  1.2016
 1491TIP3    H228669   0.877   3.878   7.712  1.0036 -0.0871 -0.9555
 1492TIP3   OH228670   5.486   0.699   7.165  0.0489 -0.3109 -0.1035
 1492TIP3    H128671   5.425   0.664   7.100  1.9160 -0.9067 -1.6250
 1492TIP3    H228672   5.570   0.703   7.119  0.9957  1.3120  1.6433
 1493TIP3   OH228673   2.193   4.866   8.191 -0.5157  0.4805 -0.7524
 1493TIP3    H128674   2.233   4.901   8.270 -0.4663  0.6795 -0.8663
 1493TIP3    H228675   2.267   4.847   8.133 -0.1713 -3.1429  0.6132
 1494TIP3   OH228676   4.047   4.887   8.217 -0.1260 -0.0335  0.1964
 1494TIP3    H128677   3.960   4.848   8.217 -0.0748 -0.2084 -1.3921
 1494TIP3    H228678   4.107   4.812   8.225 -0.1033  0.0318  0.6574
 1495TIP3   OH228679   0.487   0.720   7.990 -0.2258 -0.4680 -0.0056
 1495TIP3    H128680   0.547   0.786   8.025  0.8642 -1.6802  0.4929
 1495TIP3    H228681   0.408   0.769   7.969  0.0258  0.7730  1.6848
 1496TIP3   OH228682   0.249   0.878   9.521 -0.2259  0.2687  0.2523
 1496TIP3    H128683   0.344   0.892   9.529 -0.0346 -1.3857  1.4616
 1496TIP3    H228684   0.239   0.824   9.443 -0.0285 -0.5978  0.8144
 1497TIP3   OH228685   5.686   4.702   8.571 -0.4872  0.1038 -0.0112
 1497TIP3    H128686   5.608   4.703   8.516  0.8606 -0.6638 -2.0636
 1497TIP3    H228687   5.755   4.669   8.513  1.4384  1.0965  1.6138
 1498TIP3   OH228688   1.260   3.658   9.246  0.0152 -0.5308 -0.5730
 1498TIP3    H128689   1.310   3.609   9.181  0.7125 -1.7997  0.8395
 1498TIP3    H228690   1.180   3.606   9.259  0.0015 -0.4289 -0.2330
 1499TIP3   OH228691   1.421   0.963   7.824 -0.2640 -0.0192 -0.7252
 1499TIP3    H128692   1.489   0.898   7.844 -0.5661 -0.3848 -0.8540
 1499TIP3    H228693   1.376   0.926   7.748 -1.2876 -0.3087  0.0059
 1500TIP3   OH228694   1.411   1.915   9.145 -0.1992  0.1773 -0.3947
 1500TIP3    H128695   1.389   1.906   9.238 -1.0275  0.3816 -0.5639
 1500TIP3    H228696   1.326   1.927   9.102  0.2511  0.9462 -1.0779
 1501TIP3   OH228697   4.808   3.697   7.816  0.5673 -0.0094  0.2130
 1501TIP3    H128698   4.722   3.692   7.859 -0.6274 -1.2116 -2.1388
 1501TIP3    H228699   4.846   3.610   7.831  2.2230  1.0210  2.6778
 1502TIP3   OH228700   3.502   4.683   8.495 -0.1596 -0.0441 -0.2715
 1502TIP3    H128701   3.471   4.723   8.576  1.7877 -1.0681  1.0441
 1502TIP3    H228702   3.444   4.718   8.427 -2.4152  0.1687  1.6423
 1503TIP3   OH228703   7.342   4.169   8.732  0.2377 -0.3432 -0.1283
 1503TIP3    H128704   7.346   4.076   8.710  0.3002 -0.0589 -1.4328
 1503TIP3    H228705   7.248   4.189   8.735  0.2296 -0.2382 -0.8722
 1504TIP3   OH228706   1.392   7.130   7.219 -0.4614 -0.6651 -0.0317
 1504TIP3    H128707   1.408   7.035   7.219 -1.0838 -0.7741 -0.1790
 1504TIP3    H228708   1.320   7.142   7.156 -0.0806 -0.0442 -0.3592
 1505TIP3   OH228709   0.145   6.507   7.615 -0.5052  0.4891  0.2967
 1505TIP3    H128710   0.125   6.593   7.580 -1.4322 -0.5750 -1.9382
 1505TIP3    H228711   0.092   6.500   7.694 -0.5122  1.8996  0.4369
 1506TIP3   OH228712   2.635   0.639   9.045  0.0471 -0.3193 -0.7216
 1506TIP3    H128713   2.715   0.691   9.035  0.5673 -0.9522  0.0438
 1506TIP3    H228714   2.591   0.646   8.960  1.7721 -1.3752 -1.7477
 1507TIP3   OH228715   2.409   2.211   7.233 -0.0757 -0.2357 -0.4721
 1507TIP3    H128716   2.501   2.187   7.239 -0.0956  0.0642  2.8958
 1507TIP3    H228717   2.407   2.304   7.258 -1.4456 -0.9128  2.3818
 1508TIP3   OH228718   5.301   2.435   9.546  0.2443  0.4436 -0.2454
 1508TIP3    H128719   5.241   2.490   9.498  0.6217  0.3791 -0.7962
 1508TIP3    H228720   5.245   2.377   9.598 -0.1504  1.7732  0.8472
 1509TIP3   OH228721   6.398   4.284   8.391 -0.1928 -0.1354 -0.0200
 1509TIP3    H128722   6.303   4.277   8.405 -0.5256  1.8453 -0.8313
 1509TIP3    H228723   6.429   4.340   8.462  0.1034  0.4016 -0.5623
 1510TIP3   OH228724   2.930   7.113   9.932  0.2875  0.2915  0.2327
 1510TIP3    H128725   2.852   7.071   9.967  0.6951 -1.6242 -1.0154
 1510TIP3    H228726   2.899   7.161   9.855  0.1525  0.5217  0.4299
 1511TIP3   OH228727   4.390   1.281   7.519 -0.0069 -0.3225 -0.2472
 1511TIP3    H128728   4.361   1.192   7.539  1.2011 -0.8826 -0.8800
 1511TIP3    H228729   4.390   1.285   7.423  0.7870  0.0683 -0.2378
 1512TIP3   OH228730   6.661   2.626   9.452 -0.3202  0.5454 -0.1820
 1512TIP3    H128731   6.643   2.586   9.367 -0.3067  0.8123 -0.3123
 1512TIP3    H228732   6.587   2.600   9.507  0.3773 -0.7995  0.1416
 1513TIP3   OH228733   4.385   6.771   8.547  0.1659  0.0395  0.8014
 1513TIP3    H128734   4.353   6.686   8.517 -0.0868  0.6258 -0.6536
 1513TIP3    H228735   4.480   6.759   8.555  0.2255 -0.1629 -0.1440
 1514TIP3   OH228736   2.980   0.968   8.240 -0.3625 -0.4693  0.0279
 1514TIP3    H128737   2.892   0.938   8.217 -0.7635  0.8515 -0.2304
 1514TIP3    H228738   3.039   0.904   8.201 -1.1490 -0.2679 -1.5327
 1515TIP3   OH228739   7.485   7.116   7.337  0.0956 -0.2467 -0.2650
 1515TIP3    H128740   7.483   7.061   7.415 -3.0827  1.2510  0.9087
 1515TIP3    H228741   7.417   7.080   7.280  0.5050  0.2943 -1.1202
 1516TIP3   OH228742   3.977   3.010   8.942  0.0786 -0.5964 -0.3256
 1516TIP3    H128743   3.987   3.030   8.849  0.1698  1.2855  0.0421
 1516TIP3    H228744   4.049   3.058   8.984 -1.4420  0.6928  0.9332
 1517TIP3   OH228745   0.346   7.338   7.960  0.1820 -0.0270 -0.0439
 1517TIP3    H128746   0.430   7.366   7.997 -0.0460  3.0654 -1.5474
 1517TIP3    H228747   0.281   7.366   8.024  0.1553 -0.3277  0.0610
 1518TIP3   OH228748   4.696   6.726   9.082 -0.3306  0.3559  0.5204
 1518TIP3    H128749   4.782   6.763   9.062 -1.2839  2.8197  0.7570
 1518TIP3    H228750   4.670   6.681   9.001 -0.0038  2.0063 -0.5533
 1519TIP3   OH228751   0.551   2.990   6.961 -0.0361  0.2549 -0.6155
 1519TIP3    H128752   0.576   3.071   6.917  0.9829  0.7515  0.8128
 1519TIP3    H228753   0.599   2.991   7.044 -0.2337 -1.6584 -0.4160
 1520TIP3   OH228754   6.686   5.195   9.712 -0.2419 -0.3753  0.1220
 1520TIP3    H128755   6.617   5.169   9.773  0.6383  0.3548  1.4872
 1520TIP3    H228756   6.688   5.290   9.717  1.4021 -0.4129  0.7778
 1521TIP3   OH228757   4.296   1.034   7.636 -0.2768  0.1292 -0.2389
 1521TIP3    H128758   4.203   1.027   7.614  0.1208 -2.0039 -1.5228
 1521TIP3    H228759   4.308   0.971   7.708  0.1234  0.6441  0.1489
 1522TIP3   OH228760   0.186   0.092   7.213 -0.2459  0.2630  0.1355
 1522TIP3    H128761   0.272   0.067   7.180 -0.9252 -1.9915 -0.1538
 1522TIP3    H228762   0.130   0.094   7.135 -0.6706  0.6993  0.4468
 1523TIP3   OH228763   6.480   4.277   7.150 -0.4508  0.1372  0.6483
 1523TIP3    H128764   6.415   4.267   7.081  2.2873 -0.4800 -2.0409
 1523TIP3    H228765   6.497   4.371   7.155 -0.9422  0.2201  0.7982
 1524TIP3   OH228766   7.281   7.344   8.638  0.0376 -0.6024  0.1462
 1524TIP3    H128767   7.195   7.364   8.678  0.1116  0.2830 -0.1101
 1524TIP3    H228768   7.326   7.293   8.705 -1.0221 -1.8669 -0.0692
 1525TIP3   OH228769   4.277   3.052   7.858  0.2767 -0.0285 -0.2872
 1525TIP3    H128770   4.370   3.071   7.872  0.3047 -0.5963  0.3315
 1525TIP3    H228771   4.277   2.989   7.786  0.3090  0.6648 -0.9062
 1526TIP3   OH228772   3.518   6.006   8.723 -0.3786 -0.2023 -0.4978
 1526TIP3    H128773   3.511   6.097   8.750 -1.3198 -0.3106 -0.3310
 1526TIP3    H228774   3.555   6.010   8.635  0.3800  0.2841 -0.1643
 1527TIP3   OH228775   5.353   1.158   6.906  0.2694 -0.1223 -0.3321
 1527TIP3    H128776   5.336   1.216   6.832  0.6498  0.0489 -0.2859
 1527TIP3    H228777   5.447   1.139   6.902  0.2376 -0.3485 -0.0680
 1528TIP3   OH228778   0.616   0.958   7.101  0.7683 -0.6521 -0.3681
 1528TIP3    H128779   0.663   1.039   7.119 -0.9192  0.9782 -2.6470
 1528TIP3    H228780   0.682   0.898   7.067  1.7486  0.4380 -0.4282
 1529TIP3   OH228781   0.323   3.883   7.595 -0.4737  0.2135  0.5538
 1529TIP3    H128782   0.359   3.955   7.648 -2.5054  0.8449  1.1745
 1529TIP3    H228783   0.332   3.914   7.504  2.1871 -0.4831  0.4851
 1530TIP3   OH228784   3.495   4.044   8.956 -0.1062  0.3282 -0.0692
 1530TIP3    H128785   3.533   4.083   9.035 -2.1567  0.0058  1.1398
 1530TIP3    H228786   3.563   3.984   8.924  1.3244  1.5264  0.6001
 1531TIP3   OH228787   6.345   3.121   7.645  0.6257 -0.1968 -0.2069
 1531TIP3    H128788   6.405   3.147   7.715 -1.9361 -0.2299  2.1745
 1531TIP3    H228789   6.402   3.085   7.577  3.5132  2.4529  0.5565
 1532TIP3   OH228790   7.113   3.124   7.267 -0.1615  0.0734  0.0429
 1532TIP3    H128791   7.083   3.041   7.302  1.3449 -0.7247 -0.4509
 1532TIP3    H228792   7.045   3.150   7.204 -0.8640 -0.5434  0.5404
 1533TIP3   OH228793   3.652   2.984   9.178 -0.0838 -0.5110  0.0851
 1533TIP3    H128794   3.686   2.905   9.136  0.4615 -0.6789  0.8109
 1533TIP3    H228795   3.682   3.056   9.123  2.1379 -0.5957  1.0796
 1534TIP3   OH228796   6.553   2.408   8.280 -0.3085  0.3476  0.3993
 1534TIP3    H128797   6.562   2.324   8.323  0.3899  0.0559 -0.2827
 1534TIP3    H228798   6.619   2.464   8.320 -1.1742  0.7705  1.2761
 1535TIP3   OH228799   6.545   2.157   8.420  0.3613 -0.7131 -0.2577
 1535TIP3    H128800   6.450   2.163   8.433  0.6277  1.4966  1.0735
 1535TIP3    H228801   6.571   2.078   8.468 -0.5665 -0.3100  0.9339
 1536TIP3   OH228802   3.648   6.614   8.823 -0.2264 -0.0977  0.0531
 1536TIP3    H128803   3.698   6.551   8.771  0.5373  0.9503 -0.5414
 1536TIP3    H228804   3.603   6.561   8.888 -0.1550 -1.3196 -0.8496
 1537TIP3   OH228805   6.472   0.054   8.118  0.4075  0.1722 -0.0190
 1537TIP3    H128806   6.453  -0.003   8.043  3.1843 -1.3762  0.3132
 1537TIP3    H228807   6.562   0.083   8.104  0.5158  0.9934  2.0041
 1538TIP3   OH228808   4.920   0.178   9.229  0.0349 -0.1394  0.0236
 1538TIP3    H128809   4.852   0.213   9.287  1.0627  0.7232  0.7447
 1538TIP3    H228810   4.918   0.236   9.153 -0.8030 -0.8182 -0.4919
 1539TIP3   OH228811   0.815   6.610   7.488 -0.0993 -0.3025  0.4546
 1539TIP3    H128812   0.844   6.587   7.400  2.0584 -0.6970  1.2097
 1539TIP3    H228813   0.723   6.633   7.478 -0.0587 -0.9284 -1.7890
 1540TIP3   OH228814   2.673   4.544   9.602 -0.3648 -0.3617 -0.0769
 1540TIP3    H128815   2.594   4.585   9.566 -0.4925  0.2148  0.8252
 1540TIP3    H228816   2.742   4.568   9.541 -0.3025  1.8311  0.7617
 1541TIP3   OH228817   6.206   6.247   7.311 -0.0767  0.4172 -0.0103
 1541TIP3    H128818   6.172   6.260   7.222  0.1923 -0.9432 -0.3328
 1541TIP3    H228819   6.147   6.181   7.349  1.7804 -1.5534 -0.3824
 1542TIP3   OH228820   4.915   3.745   8.569 -0.3361  0.8235 -0.4998
 1542TIP3    H128821   4.980   3.813   8.589 -1.3446  1.9079 -0.8045
 1542TIP3    H228822   4.832   3.784   8.595 -0.8696 -0.6017  0.0197
 1543TIP3   OH228823   2.069   4.099   7.930 -0.3388 -0.2356  0.3194
 1543TIP3    H128824   2.049   4.028   7.870 -1.0768  0.5018 -0.3311
 1543TIP3    H228825   2.038   4.178   7.886 -0.6678  0.3568  1.5584
 1544TIP3   OH228826   4.809   6.255   7.619  0.0675  0.0499 -0.0077
 1544TIP3    H128827   4.847   6.306   7.691  0.1837  2.0886 -1.4501
 1544TIP3    H228828   4.788   6.319   7.551 -1.4914 -1.6137 -1.2119
 1545TIP3   OH228829   6.936   5.490   7.322 -0.3511 -0.0076 -0.1751
 1545TIP3    H128830   6.953   5.441   7.242 -0.2198 -0.1732 -0.0452
 1545TIP3    H228831   6.861   5.447   7.362 -0.5606  0.2147 -0.3221
 1546TIP3   OH228832   0.300   0.302   8.619  0.7283  0.1357 -0.3728
 1546TIP3    H128833   0.370   0.245   8.587  1.0658  0.0379  0.5238
 1546TIP3    H228834   0.328   0.328   8.707  0.6333  1.7826 -0.7940
 1547TIP3   OH228835   3.543   4.924   9.588  0.3252 -0.3043 -0.2583
 1547TIP3    H128836   3.530   4.861   9.518 -0.4450 -0.2866 -0.1371
 1547TIP3    H228837   3.574   4.872   9.662 -0.8627 -0.6425  0.0196
 1548TIP3   OH228838   2.631   0.966   9.120  0.0398 -0.0594  0.1803
 1548TIP3    H128839   2.704   0.913   9.087 -0.1191  0.2534 -0.6972
 1548TIP3    H228840   2.647   0.972   9.215  0.6519 -0.7555  0.1303
 1549TIP3   OH228841   2.698   5.408   8.030  0.4305  0.0679 -0.1300
 1549TIP3    H128842   2.738   5.467   7.967  1.6930 -1.9329 -1.3094
 1549TIP3    H228843   2.769   5.386   8.091 -0.2884  0.5216  0.9113
 1550TIP3   OH228844   5.235   0.411   8.598 -0.0214 -0.1480  0.4556
 1550TIP3    H128845   5.229   0.460   8.680  1.2587 -0.0566  0.5086
 1550TIP3    H228846   5.202   0.323   8.620  1.1934 -0.4112  1.3268
 1551TIP3   OH228847   5.898   6.236   8.777  0.3295 -0.1998  0.0328
 1551TIP3    H128848   5.955   6.240   8.854 -2.3185 -0.0899  2.1570
 1551TIP3    H228849   5.845   6.315   8.783 -1.6698 -1.4373 -0.4334
 1552TIP3   OH228850   4.957   6.071   9.703 -0.3469 -0.3363 -0.0610
 1552TIP3    H128851   4.874   6.079   9.656  0.4066 -1.0816 -1.6088
 1552TIP3    H228852   4.975   5.977   9.703  0.2501 -0.2295  0.6881
 1553TIP3   OH228853   5.992   1.980   7.675 -0.5827 -0.5017  0.1936
 1553TIP3    H128854   6.049   1.945   7.607 -0.0065  0.0034  0.4019
 1553TIP3    H228855   6.047   1.981   7.754  0.0666  2.5284 -0.1778
 1554TIP3   OH228856   3.297   3.988   7.061 -0.2047 -0.0234 -0.1099
 1554TIP3    H128857   3.329   3.898   7.062  0.7483  0.3176  0.3503
 1554TIP3    H228858   3.374   4.041   7.043 -0.9207  0.6523 -1.3967
 1555TIP3   OH228859   0.873   4.392   8.095  0.0707 -0.0017  0.0842
 1555TIP3    H128860   0.854   4.340   8.017 -1.6821  0.1503  0.3723
 1555TIP3    H228861   0.926   4.335   8.150  1.7732  0.0664 -1.3942
 1556TIP3   OH228862   3.686   6.375   9.562 -0.2382 -0.2011  0.6126
 1556TIP3    H128863   3.766   6.339   9.524  0.1007  2.2913 -1.2586
 1556TIP3    H228864   3.675   6.327   9.644  2.6095 -1.3180  0.4568
 1557TIP3   OH228865   5.815   1.649   7.472  0.1722 -0.0131 -0.1138
 1557TIP3    H128866   5.888   1.703   7.441  1.3527 -0.6033  1.4718
 1557TIP3    H228867   5.803   1.582   7.405  0.9921  0.1839 -0.4700
 1558TIP3   OH228868   7.103   5.676   7.860 -0.0098  0.2476 -0.0132
 1558TIP3    H128869   7.139   5.746   7.806  0.8935  1.4022  1.9859
 1558TIP3    H228870   7.023   5.713   7.898 -1.9407 -1.3370 -2.2135
 1559TIP3   OH228871   5.431   5.434   8.387 -1.1042  0.5496 -0.5117
 1559TIP3    H128872   5.522   5.435   8.356 -0.9227  1.1017  0.0133
 1559TIP3    H228873   5.404   5.343   8.377 -0.1246  0.1365  0.3296
 1560TIP3   OH228874   2.377   6.860   9.654  0.2360  0.2167 -0.2674
 1560TIP3    H128875   2.377   6.955   9.668  0.1910  0.4543 -1.7310
 1560TIP3    H228876   2.289   6.840   9.623  0.8417  0.0558 -2.0005
 1561TIP3   OH228877   0.410   1.639   8.170  0.6250  0.0878  0.8632
 1561TIP3    H128878   0.451   1.558   8.141  0.2605 -0.9122  2.9570
 1561TIP3    H228879   0.483   1.698   8.189  0.8770  0.7809 -1.8496
 1562TIP3   OH228880   2.460   4.138   9.053  0.5915 -0.0870  0.4961
 1562TIP3    H128881   2.491   4.155   8.964 -1.1375 -0.0648 -0.1492
 1562TIP3    H228882   2.423   4.221   9.082 -1.4095 -0.7871  0.1025
 1563TIP3   OH228883   5.782   6.561   9.614 -0.7391  0.7330 -0.0233
 1563TIP3    H128884   5.866   6.536   9.651 -1.3400  0.8686  1.4970
 1563TIP3    H228885   5.772   6.505   9.537  0.8323  0.8882 -0.3683
 1564TIP3   OH228886   1.423   6.380   9.003  0.1130  0.4560  0.3501
 1564TIP3    H128887   1.499   6.421   9.044  1.1367 -1.4319  0.4453
 1564TIP3    H228888   1.450   6.364   8.912 -0.0940 -0.3809  0.4300
 1565TIP3   OH228889   7.316   6.573   8.151 -0.2611  0.6685 -0.0477
 1565TIP3    H128890   7.345   6.664   8.165 -0.3674  0.6779  0.1030
 1565TIP3    H228891   7.366   6.545   8.074  0.9507  0.3240  0.8487
 1566TIP3   OH228892   1.377   0.645   8.406 -0.1937  0.0590  0.6778
 1566TIP3    H128893   1.333   0.719   8.449  0.9994  0.7299  0.7926
 1566TIP3    H228894   1.420   0.597   8.477 -0.0686 -0.1194  0.4838
 1567TIP3   OH228895   1.187   4.663   8.567  0.8608  0.0738  0.1439
 1567TIP3    H128896   1.151   4.644   8.480  2.2607 -1.1356 -0.1929
 1567TIP3    H228897   1.156   4.591   8.622 -0.7183  1.2679  0.8978
 1568TIP3   OH228898   0.904   0.486   8.691  0.4350  0.0601  0.3393
 1568TIP3    H128899   0.815   0.459   8.712  0.0259  1.4695  0.5377
 1568TIP3    H228900   0.921   0.560   8.748  1.1897  0.7351 -0.7114
 1569TIP3   OH228901   2.467   6.876   8.364  0.5652  0.0616  0.1674
 1569TIP3    H128902   2.385   6.861   8.411  0.6396 -0.6384  0.0896
 1569TIP3    H228903   2.452   6.958   8.316 -0.1115 -0.0905  0.1064
 1570TIP3   OH228904   4.485   1.284   9.429 -0.1206 -0.0320  0.2120
 1570TIP3    H128905   4.557   1.346   9.427 -0.4305  0.3153 -1.1000
 1570TIP3    H228906   4.527   1.198   9.436  0.5301  0.0757 -1.6431
 1571TIP3   OH228907   1.329   5.742   7.186 -0.5632 -0.1532 -0.0327
 1571TIP3    H128908   1.383   5.672   7.224 -0.6073 -0.4480 -0.5026
 1571TIP3    H228909   1.263   5.695   7.135 -2.0319  0.1376  1.4883
 1572TIP3   OH228910   3.226   5.848   9.205 -0.1365  0.0919  0.1501
 1572TIP3    H128911   3.235   5.866   9.112  0.3854  1.6245  0.4754
 1572TIP3    H228912   3.313   5.862   9.241 -0.9797  2.8097  1.3614
 1573TIP3   OH228913   7.269   0.161   8.144 -0.4694 -0.0730 -0.2951
 1573TIP3    H128914   7.256   0.093   8.210 -1.2123  1.8286  1.6371
 1573TIP3    H228915   7.364   0.177   8.144 -0.5083  0.1984  0.6483
 1574TIP3   OH228916   1.795   3.942   9.048 -0.3995 -0.0566  0.0898
 1574TIP3    H128917   1.741   4.003   8.997  0.2142 -0.0042 -0.5078
 1574TIP3    H228918   1.804   3.984   9.133 -2.0895 -0.5113  0.5341
 1575TIP3   OH228919   1.624   7.037   7.003  0.0848  0.7611 -0.3064
 1575TIP3    H128920   1.626   6.946   6.973  0.6580  1.6085 -3.1323
 1575TIP3    H228921   1.714   7.054   7.032 -0.2430  0.2117  1.1217
 1576TIP3   OH228922   1.890   3.150   7.639  0.0577 -0.3398 -0.2309
 1576TIP3    H128923   1.967   3.162   7.694  0.0420  5.3772 -0.8900
 1576TIP3    H228924   1.923   3.157   7.549 -0.9064 -1.2720 -0.6932
 1577TIP3   OH228925   7.185   1.677   8.616 -0.0875 -0.1135 -0.1102
 1577TIP3    H128926   7.218   1.594   8.580 -0.7848 -0.4378 -0.0243
 1577TIP3    H228927   7.262   1.717   8.656 -0.2530 -2.0631  2.3939
 1578TIP3   OH228928   7.204   6.800   8.352 -0.2925  0.2154 -0.0694
 1578TIP3    H128929   7.259   6.769   8.424  1.1381 -0.1128 -1.2543
 1578TIP3    H228930   7.208   6.896   8.358  1.0727  0.2086 -0.5989
 1579TIP3   OH228931   4.915   5.958   7.024 -0.1886 -0.2114  0.2460
 1579TIP3    H128932   4.846   5.963   6.958 -1.0678  0.3888  1.1900
 1579TIP3    H228933   4.955   6.045   7.025  0.0248 -0.3089  0.2879
 1580TIP3   OH228934   2.276   5.325   6.969  0.1764  0.0477  0.4456
 1580TIP3    H128935   2.365   5.336   6.936  0.1926 -1.9997 -0.3634
 1580TIP3    H228936   2.230   5.404   6.942  1.3192  0.3451 -0.7002
 1581TIP3   OH228937   3.597   5.912   6.792  0.7427 -0.3758 -0.3108
 1581TIP3    H128938   3.599   5.958   6.708 -0.4186 -1.7801 -1.1606
 1581TIP3    H228939   3.616   5.821   6.770 -3.0186 -1.4845  0.3350
 1582TIP3   OH228940   1.930   1.123   8.703  0.2382  0.1890 -0.0085
 1582TIP3    H128941   1.853   1.172   8.676 -0.7714  0.4439  2.9923
 1582TIP3    H228942   1.913   1.034   8.674 -0.5192  0.5053 -0.5797
 1583TIP3   OH228943   6.873   2.326   8.014 -0.9103 -0.1215  0.6262
 1583TIP3    H128944   6.884   2.421   8.022  2.1623 -0.3679  0.5151
 1583TIP3    H228945   6.779   2.314   7.999 -1.2402  2.9572 -0.4880
 1584TIP3   OH228946   6.243   0.757   7.693 -0.1860  0.6006 -0.1231
 1584TIP3    H128947   6.276   0.751   7.783 -0.6885  0.9913  0.0933
 1584TIP3    H228948   6.246   0.851   7.673  0.3955  0.4648 -0.7000
 1585TIP3   OH228949   0.451   7.371   8.225  0.0665 -0.5772 -0.2436
 1585TIP3    H128950   0.532   7.369   8.174  1.8361 -1.7255  2.3575
 1585TIP3    H228951   0.425   7.463   8.227  0.6743 -0.3380 -2.0002
 1586TIP3   OH228952   0.074   3.531   7.815  0.0141 -0.9328  0.0396
 1586TIP3    H128953   0.148   3.551   7.756 -0.1672 -0.7914 -0.1414
 1586TIP3    H228954   0.086   3.591   7.888 -0.6398  0.0008 -0.5970
 1587TIP3   OH228955   3.221   3.154   8.154 -0.0521 -0.0129 -0.2362
 1587TIP3    H128956   3.208   3.204   8.074 -0.1342 -0.2003 -0.3396
 1587TIP3    H228957   3.145   3.176   8.209  1.1868  2.0367  0.8055
 1588TIP3   OH228958   0.819   2.871   8.385 -0.8130 -0.4750  1.0029
 1588TIP3    H128959   0.913   2.875   8.404 -0.5346 -0.0338 -0.3149
 1588TIP3    H228960   0.779   2.844   8.467  0.4798 -0.8001  1.5597
 1589TIP3   OH228961   4.862   3.860   8.091  0.1042  0.4503 -0.3922
 1589TIP3    H128962   4.924   3.787   8.095 -1.7209 -1.1421  0.6236
 1589TIP3    H228963   4.782   3.826   8.132 -1.6499  2.1972 -2.1062
 1590TIP3   OH228964   4.267   0.303   8.979  0.7701 -0.0558 -0.0919
 1590TIP3    H128965   4.233   0.225   8.935  0.9452 -0.7629  0.9963
 1590TIP3    H228966   4.215   0.375   8.943 -0.1486 -0.8047 -0.3039
 1591TIP3   OH228967   4.581   2.981   9.103  0.5181 -0.1889 -0.0296
 1591TIP3    H128968   4.529   2.987   9.183 -0.3970  1.7167 -0.7059
 1591TIP3    H228969   4.534   3.036   9.040  0.7402 -2.2926 -2.1658
 1592TIP3   OH228970   7.237   4.703   8.742  0.1131 -0.2751 -0.2446
 1592TIP3    H128971   7.240   4.770   8.674  1.0419 -0.4449 -0.3833
 1592TIP3    H228972   7.310   4.644   8.721 -0.7334 -1.3769 -0.1817
 1593TIP3   OH228973   3.264   1.559   8.293 -0.7686 -0.0726  0.5268
 1593TIP3    H128974   3.236   1.472   8.264 -0.6733  0.6205 -1.8128
 1593TIP3    H228975   3.340   1.542   8.350 -1.4720 -1.5539  1.0813
 1594TIP3   OH228976   0.953   0.095   8.261 -0.2817 -0.1662 -0.4857
 1594TIP3    H128977   0.879   0.124   8.208 -2.3259 -2.8188  0.6690
 1594TIP3    H228978   0.919   0.093   8.351  1.8991  0.5352  0.4283
 1595TIP3   OH228979   6.327   3.469   7.783  0.1358 -0.4639 -0.3277
 1595TIP3    H128980   6.371   3.398   7.829 -0.2217 -0.1023  0.6051
 1595TIP3    H228981   6.234   3.460   7.807 -0.1069 -0.4319 -1.2106
 1596TIP3   OH228982   0.950   4.455   7.780 -0.1213  0.1044  0.0796
 1596TIP3    H128983   0.859   4.424   7.776 -0.2356  0.3115  0.9028
 1596TIP3    H228984   0.947   4.542   7.742 -0.1805 -0.0714 -0.3247
 1597TIP3   OH228985   2.315   2.737   9.630 -0.0387 -0.3781  0.4935
 1597TIP3    H128986   2.320   2.822   9.672  1.5466  0.2102 -0.7956
 1597TIP3    H228987   2.280   2.756   9.542  0.8671 -0.9581 -0.0056
 1598TIP3   OH228988   6.480   5.784   6.474 -0.0424  0.9303  0.0500
 1598TIP3    H128989   6.472   5.878   6.490 -1.3460  0.6785  1.0507
 1598TIP3    H228990   6.396   5.759   6.435 -0.1784 -0.0245  0.9217
 1599TIP3   OH228991   1.181   2.064   6.717  0.1281  0.1717 -0.2473
 1599TIP3    H128992   1.091   2.069   6.750 -0.5580  0.5927 -2.0626
 1599TIP3    H228993   1.176   2.003   6.643  1.5197 -0.4602  0.1456
 1600TIP3   OH228994   2.090   7.298   8.783  0.0233 -0.3722  0.7806
 1600TIP3    H128995   1.998   7.276   8.795  0.0845 -1.1982 -0.1784
 1600TIP3    H228996   2.097   7.324   8.691  1.0729 -2.1241  0.3118
 1601TIP3   OH228997   4.777   4.081   8.797 -0.2939 -0.2065  0.2069
 1601TIP3    H128998   4.767   4.082   8.892  0.0764 -1.0241  0.2692
 1601TIP3    H228999   4.871   4.094   8.783 -0.2101 -0.9347  0.0051
 1602TIP3   OH229000   3.316   5.210   9.352  0.9742  0.1339 -0.2133
 1602TIP3    H129001   3.337   5.193   9.444  0.2224  2.2704  0.4039
 1602TIP3    H229002   3.346   5.299   9.337 -0.3537  0.3767 -1.6039
 1603TIP3   OH229003   5.195   2.515   8.680  0.4691 -0.1332 -0.0916
 1603TIP3    H129004   5.234   2.525   8.593 -0.3015 -2.2281 -0.7425
 1603TIP3    H229005   5.271   2.499   8.737  0.8692 -0.4791 -0.6983
 1604TIP3   OH229006   6.083   2.268   8.325  0.8955  0.0920  0.6990
 1604TIP3    H129007   6.042   2.182   8.314  0.3293  0.4528 -0.1944
 1604TIP3    H229008   6.168   2.260   8.282  0.0043  0.5421 -1.2732
 1605TIP3   OH229009   7.483   1.820   7.420  0.4929 -0.4868 -0.2539
 1605TIP3    H129010   7.399   1.803   7.377 -0.2447  0.9770  0.5454
 1605TIP3    H229011   7.538   1.857   7.350 -1.1637  3.2987  0.1681
 1606TIP3   OH229012   5.386   4.080   7.855 -0.0964  0.1167 -0.0111
 1606TIP3    H129013   5.389   4.107   7.763 -1.0042  0.8081  0.1425
 1606TIP3    H229014   5.293   4.069   7.874  0.0601  0.2907  0.9123
 1607TIP3   OH229015   3.029   2.337   7.527 -0.7100 -0.5624 -0.0367
 1607TIP3    H129016   2.951   2.354   7.474 -0.8357  1.7417  0.7939
 1607TIP3    H229017   3.057   2.423   7.556  1.1124 -1.5186  1.1796
 1608TIP3   OH229018   4.189   3.348   8.773  0.0707 -0.1293  0.0251
 1608TIP3    H129019   4.227   3.275   8.822  0.0074  0.1030  0.4212
 1608TIP3    H229020   4.206   3.425   8.827 -0.2899  0.0849 -0.1622
 1609TIP3   OH229021   7.324   3.196   7.379  0.2043  0.5890  0.3562
 1609TIP3    H129022   7.300   3.157   7.463  1.5661 -0.7839  0.1515
 1609TIP3    H229023   7.256   3.166   7.319  0.2109  0.0682  0.6019
 1610TIP3   OH229024   6.142   1.878   9.023 -0.2977 -0.4010 -0.4456
 1610TIP3    H129025   6.073   1.907   9.083 -0.7710  0.0712 -1.1911
 1610TIP3    H229026   6.209   1.840   9.079 -1.3690 -1.2908  0.2614
 1611TIP3   OH229027   1.715   4.085   7.977 -0.2890  0.0690 -0.5591
 1611TIP3    H129028   1.621   4.080   7.962 -0.4643  1.9212 -0.2704
 1611TIP3    H229029   1.724   4.101   8.071  0.1086  2.9194 -0.9841
 1612TIP3   OH229030   6.900   0.782   7.899 -0.2172 -0.0727 -0.5682
 1612TIP3    H129031   6.972   0.817   7.952 -0.8517  0.2635  0.0895
 1612TIP3    H229032   6.934   0.700   7.864 -0.5856 -1.6368  2.4042
 1613TIP3   OH229033   3.464   1.180   8.453 -0.3549  0.3394 -0.3763
 1613TIP3    H129034   3.428   1.188   8.541 -1.2210 -1.1749 -0.5565
 1613TIP3    H229035   3.541   1.125   8.462  0.7517  1.8393 -0.3067
 1614TIP3   OH229036   2.453   7.117   8.218 -0.6155  0.5355  0.0124
 1614TIP3    H129037   2.422   7.188   8.163  1.5150  0.6757 -1.1449
 1614TIP3    H229038   2.491   7.054   8.156  0.9458  0.2102  1.2292
 1615TIP3   OH229039   5.239   6.669   9.652  0.0774 -0.3256 -0.2980
 1615TIP3    H129040   5.304   6.623   9.600 -0.0876 -0.2481 -0.5737
 1615TIP3    H229041   5.163   6.611   9.652 -0.4683  0.3504 -1.4376
 1616TIP3   OH229042   2.589   3.178   7.962  0.7994 -0.4848 -0.0064
 1616TIP3    H129043   2.622   3.093   7.934  0.0223 -0.5355 -0.8126
 1616TIP3    H229044   2.578   3.228   7.881 -0.3938 -0.2232  0.3020
 1617TIP3   OH229045   7.294   6.413   9.899 -0.2938 -0.1095 -0.0924
 1617TIP3    H129046   7.288   6.499   9.858 -1.4833  0.2178  0.7295
 1617TIP3    H229047   7.379   6.414   9.944 -0.2040  0.5536 -0.2675
 1618TIP3   OH229048   0.310   0.976   7.697  0.4936  0.2402  0.3515
 1618TIP3    H129049   0.311   1.058   7.647  3.0949 -0.0620 -0.2464
 1618TIP3    H229050   0.367   0.918   7.647 -0.1295 -1.4513  1.5426
 1619TIP3   OH229051   0.749   1.911   9.098  0.5623 -0.2758 -0.1132
 1619TIP3    H129052   0.806   1.844   9.060 -0.3380 -0.7451 -0.6924
 1619TIP3    H229053   0.805   1.959   9.159  1.7182 -0.3174 -1.1109
 1620TIP3   OH229054   6.843   7.115   7.213  0.0326  0.1678  0.0540
 1620TIP3    H129055   6.884   7.192   7.173 -1.2856  0.1963 -1.3259
 1620TIP3    H229056   6.877   7.041   7.162  0.0236 -0.0166  0.3125
 1621TIP3   OH229057   0.666   0.966   8.042  0.4507 -0.8036  0.4666
 1621TIP3    H129058   0.611   1.026   8.092 -0.1215  0.2417 -1.3511
 1621TIP3    H229059   0.753   0.976   8.080  0.8626  2.7867 -1.0232
 1622TIP3   OH229060   6.288   2.074   8.460 -0.2339  0.5471 -0.2664
 1622TIP3    H129061   6.279   2.060   8.554 -0.5586  0.2355 -0.3397
 1622TIP3    H229062   6.327   1.993   8.427 -1.2410  0.1612 -0.5611
 1623TIP3   OH229063   7.119   5.884   6.900  0.0621  0.5845  0.7654
 1623TIP3    H129064   7.142   5.894   6.808 -0.1082  0.2065  0.6797
 1623TIP3    H229065   7.083   5.796   6.907 -3.4856  1.8506  0.4595
 1624TIP3   OH229066   0.612   1.295   7.685 -0.0168 -0.3396  0.4838
 1624TIP3    H129067   0.567   1.211   7.677  0.4000 -0.5502  0.3216
 1624TIP3    H229068   0.704   1.272   7.700  0.1132  0.0858  0.3609
 1625TIP3   OH229069   1.649   7.387   7.011  0.1485  0.6907  0.1846
 1625TIP3    H129070   1.582   7.335   6.967  0.9241 -0.4099  0.2581
 1625TIP3    H229071   1.608   7.415   7.093 -0.1894 -0.0606  0.2770
 1626TIP3   OH229072   0.741   0.674   7.330  0.2573  0.3854  0.2012
 1626TIP3    H129073   0.759   0.650   7.239 -0.7057  0.7824 -0.1084
 1626TIP3    H229074   0.748   0.769   7.332 -1.8662  0.5852  0.0152
 1627TIP3   OH229075   7.247   6.131   7.757 -0.0291 -0.8096  0.1140
 1627TIP3    H129076   7.259   6.178   7.840  0.9452 -1.1895  0.2023
 1627TIP3    H229077   7.329   6.146   7.710 -0.2121 -1.3818 -0.3865
 1628TIP3   OH229078   3.857   7.387   7.041  0.3725  0.6562  0.5623
 1628TIP3    H129079   3.898   7.385   7.127  0.8709  1.4025  0.3497
 1628TIP3    H229080   3.924   7.421   6.982  0.1386 -0.1281 -0.1873
 1629TIP3   OH229081   6.622   4.602   7.878 -0.5799 -0.4033  0.2713
 1629TIP3    H129082   6.527   4.598   7.890 -0.5925 -1.5998 -0.1281
 1629TIP3    H229083   6.637   4.687   7.836 -1.4153 -0.0070  0.7396
 1630TIP3   OH229084   3.642   3.494   7.463  0.8189 -0.7720 -0.6820
 1630TIP3    H129085   3.724   3.528   7.428  0.5891 -0.2410 -0.7046
 1630TIP3    H229086   3.613   3.429   7.399  1.3134 -1.1041 -0.5802
 1631TIP3   OH229087   5.222   0.791   7.616 -0.2596  0.3379  0.5203
 1631TIP3    H129088   5.139   0.763   7.655  0.0772 -2.7672 -0.6271
 1631TIP3    H229089   5.214   0.766   7.524  1.9269 -0.1341  0.4010
 1632TIP3   OH229090   1.593   1.748   7.169 -0.0566  0.5560 -0.0610
 1632TIP3    H129091   1.656   1.677   7.156 -1.1430 -0.5959  0.6877
 1632TIP3    H229092   1.603   1.804   7.092  0.7867 -0.4446 -0.7059
 1633TIP3   OH229093   0.150   2.570   9.366 -0.4180  0.1546  0.2860
 1633TIP3    H129094   0.110   2.576   9.279 -0.8009 -1.2556  0.3569
 1633TIP3    H229095   0.095   2.509   9.415  0.6550 -0.2526  1.0323
 1634TIP3   OH229096   2.340   6.823   7.854 -0.2223  0.0087 -0.3270
 1634TIP3    H129097   2.370   6.913   7.839 -0.2771  0.2188  0.7623
 1634TIP3    H229098   2.262   6.814   7.799 -1.5975  1.4054  1.2782
 1635TIP3   OH229099   4.184   3.400   7.868 -0.1671  0.3085 -0.0240
 1635TIP3    H129100   4.185   3.391   7.773 -1.2353 -2.9237  0.1644
 1635TIP3    H229101   4.277   3.399   7.893  0.0816 -0.0815 -0.9289
 1636TIP3   OH229102   3.518   7.226   8.324  0.3622 -0.1240 -0.0023
 1636TIP3    H129103   3.578   7.301   8.320 -0.0853  0.3592  1.5124
 1636TIP3    H229104   3.432   7.266   8.338  0.0482 -0.8955  0.2890
 1637TIP3   OH229105   5.907   2.951   8.468  0.1337  0.6449 -0.2859
 1637TIP3    H129106   5.976   2.911   8.416  0.2598 -0.0273  0.3805
 1637TIP3    H229107   5.853   2.878   8.498 -0.8270  1.1511 -0.7169
 1638TIP3   OH229108   5.615   1.523   8.944 -0.6725 -0.5050 -0.1450
 1638TIP3    H129109   5.689   1.578   8.916 -1.5637  1.4511  1.1442
 1638TIP3    H229110   5.638   1.497   9.033 -1.5882  0.2682  0.3311
 1639TIP3   OH229111   7.381   7.317   9.069  0.1170 -0.7334 -0.2123
 1639TIP3    H129112   7.373   7.385   9.001  1.4242  0.1705  0.4888
 1639TIP3    H229113   7.311   7.255   9.049 -0.4835  0.2961 -1.4851
 1640TIP3   OH229114   2.631   6.098   7.827 -0.0359  0.6261 -0.1950
 1640TIP3    H129115   2.615   6.007   7.853 -0.5118  0.1803 -1.9051
 1640TIP3    H229116   2.545   6.139   7.831  0.2170  1.0918  0.8088
 1641TIP3   OH229117   5.460   1.770   8.927 -0.2111 -0.2736 -0.0074
 1641TIP3    H129118   5.463   1.674   8.919 -3.9899 -0.5327 -0.3514
 1641TIP3    H229119   5.492   1.802   8.843  0.2268 -1.2785 -0.2380
 1642TIP3   OH229120   2.956   4.401   8.654  0.3139  0.2137 -0.1459
 1642TIP3    H129121   3.041   4.358   8.661 -1.0546 -2.7838 -0.2546
 1642TIP3    H229122   2.948   4.425   8.562  0.2610 -1.3636 -0.5760
 1643TIP3   OH229123   6.045   3.370   7.994 -0.5622  0.1824 -0.0685
 1643TIP3    H129124   6.029   3.348   7.903  1.8663  0.4385 -0.6334
 1643TIP3    H229125   6.094   3.296   8.029  0.8836  1.2137  0.2122
 1644TIP3   OH229126   0.681   7.336   8.560 -0.2018  0.0256 -0.6383
 1644TIP3    H129127   0.648   7.258   8.516 -0.1754 -0.8971  0.9357
 1644TIP3    H229128   0.703   7.307   8.648 -0.1694  1.8097 -0.0206
 1645TIP3   OH229129   0.400   4.689   8.626  0.2671  0.7507  0.1072
 1645TIP3    H129130   0.394   4.594   8.622  1.7483  0.6703 -0.9824
 1645TIP3    H229131   0.311   4.720   8.608  0.0152 -0.4034 -0.7325
 1646TIP3   OH229132   3.643   2.704   9.439 -0.1179  0.6261 -0.2542
 1646TIP3    H129133   3.700   2.705   9.362  0.2283 -0.1073 -0.0188
 1646TIP3    H229134   3.698   2.670   9.510 -1.2326 -1.6356 -0.3698
 1647TIP3   OH229135   1.092   5.379   9.547  0.0245  0.1937  0.0135
 1647TIP3    H129136   1.146   5.433   9.489 -1.4128 -0.0915 -1.6945
 1647TIP3    H229137   1.118   5.289   9.527  0.9195  0.1438  1.3045
 1648TIP3   OH229138   5.459   0.856   9.166 -0.1107 -0.0524 -0.0388
 1648TIP3    H129139   5.498   0.934   9.125  0.4311  0.6066  1.6213
 1648TIP3    H229140   5.520   0.834   9.237 -0.9562 -1.1786  0.3674
 1649TIP3   OH229141   6.727   3.288   8.379 -0.0701  0.5310 -0.2274
 1649TIP3    H129142   6.691   3.199   8.373  0.8068  0.2127 -1.0465
 1649TIP3    H229143   6.660   3.343   8.339 -0.4774  0.1949 -0.0131
 1650TIP3   OH229144   0.891   0.374   8.424  0.2529 -0.3931 -0.2514
 1650TIP3    H129145   0.923   0.389   8.513 -0.7923 -0.3971  0.1319
 1650TIP3    H229146   0.953   0.311   8.387  1.8557  1.0664 -0.2197
 1651TIP3   OH229147   0.257   3.224   8.634 -0.8917 -0.1835 -0.7660
 1651TIP3    H129148   0.229   3.249   8.722 -1.6837  0.7361 -1.2684
 1651TIP3    H229149   0.308   3.144   8.648  1.3034  1.3695  0.8534
 1652TIP3   OH229150   5.742   3.983   9.483  0.1692 -0.1203 -0.1757
 1652TIP3    H129151   5.715   3.927   9.410  0.3537 -0.5745  0.1007
 1652TIP3    H229152   5.836   3.994   9.471 -0.2163  2.2268 -1.6659
 1653TIP3   OH229153   4.769   4.297   8.977  0.1780  0.0791 -0.0350
 1653TIP3    H129154   4.760   4.255   9.063 -2.7388 -0.2301 -0.3810
 1653TIP3    H229155   4.702   4.365   8.977  1.8639  1.8281 -1.1697
 1654TIP3   OH229156   1.080   3.843   9.058 -0.4830  0.1555 -0.3024
 1654TIP3    H129157   1.105   3.846   9.150 -0.5677 -0.4162 -0.2521
 1654TIP3    H229158   1.024   3.765   9.052 -0.1458 -0.0414 -0.9176
 1655TIP3   OH229159   2.453   5.043   8.746 -0.4899 -0.7532  0.1611
 1655TIP3    H129160   2.377   5.099   8.727  0.5994  0.8078  0.1714
 1655TIP3    H229161   2.494   5.084   8.823  2.7568  1.0778 -2.2909
 1656TIP3   OH229162   5.057   5.684   8.369 -0.7220 -0.5995 -0.2254
 1656TIP3    H129163   5.078   5.674   8.462  0.9954  2.4381 -0.1489
 1656TIP3    H229164   5.142   5.678   8.325 -1.4045 -1.0593 -1.5340
 1657TIP3   OH229165   6.776   5.444   9.767 -0.7527  0.3513  0.0667
 1657TIP3    H129166   6.862   5.483   9.753 -1.1070  1.4627  0.7915
 1657TIP3    H229167   6.779   5.411   9.857 -1.3087  1.0874  0.3735
 1658TIP3   OH229168   3.307   6.446   8.876 -0.4503 -0.4226  0.3846
 1658TIP3    H129169   3.288   6.537   8.852 -1.5612 -0.8774 -0.5829
 1658TIP3    H229170   3.264   6.434   8.960 -3.3973 -0.9860 -1.0551
 1659TIP3   OH229171   0.522   0.525   7.332  0.1248  0.3491 -0.2265
 1659TIP3    H129172   0.443   0.576   7.349 -0.4439  0.8302 -3.5112
 1659TIP3    H229173   0.591   0.590   7.326  0.7322 -0.0112  1.9898
 1660TIP3   OH229174   1.761   5.223   9.455 -0.5946  0.4301  0.0098
 1660TIP3    H129175   1.847   5.217   9.497 -0.1309 -0.3150 -0.9873
 1660TIP3    H229176   1.767   5.163   9.381 -2.3327 -0.4202  0.5046
 1661TIP3   OH229177   3.753   0.125   8.674 -0.3439 -0.3417 -0.0425
 1661TIP3    H129178   3.776   0.155   8.762 -2.3977  1.5781 -0.0672
 1661TIP3    H229179   3.661   0.100   8.680 -0.1270 -1.6165 -1.3507
 1662TIP3   OH229180   6.848   1.274   7.698 -0.1665  0.6565  0.0138
 1662TIP3    H129181   6.804   1.296   7.780  1.6240  1.3089  0.8382
 1662TIP3    H229182   6.818   1.185   7.678 -1.3775  0.8574  0.8351
 1663TIP3   OH229183   2.289   1.030   8.237  0.2075 -0.0409  0.3604
 1663TIP3    H129184   2.245   1.115   8.232  0.9335  0.2738 -1.3029
 1663TIP3    H229185   2.270   0.998   8.325 -0.9806  1.3515  0.6438
 1664TIP3   OH229186   3.745   5.782   9.666  0.1145 -0.0329 -0.5386
 1664TIP3    H129187   3.668   5.725   9.670  0.9664 -1.1738  0.2050
 1664TIP3    H229188   3.819   5.721   9.665  1.0357  1.0621 -0.2434
 1665TIP3   OH229189   6.917   5.488   8.078 -0.8723  0.0913 -0.5645
 1665TIP3    H129190   6.932   5.576   8.111  1.7961 -0.7821  0.7644
 1665TIP3    H229191   6.877   5.441   8.151 -0.2130 -0.3723 -0.4942
 1666TIP3   OH229192   5.531   4.839   8.932  0.2889 -0.3015  0.1697
 1666TIP3    H129193   5.566   4.925   8.953 -0.6861  0.1209  0.1264
 1666TIP3    H229194   5.537   4.789   9.013  2.2429 -0.7113 -0.1728
 1667TIP3   OH229195   5.436   6.044   7.640 -0.6812 -0.1509  0.1962
 1667TIP3    H129196   5.528   6.020   7.648 -0.3675  1.2895  1.3559
 1667TIP3    H229197   5.408   6.065   7.729 -1.5410  1.3865 -0.3832
 1668TIP3   OH229198   2.898   7.389   8.586 -0.1530  0.4147 -0.0147
 1668TIP3    H129199   2.867   7.452   8.521  0.3790  1.4936  0.7642
 1668TIP3    H229200   2.830   7.321   8.586  0.1507  0.0333 -2.1526
 1669TIP3   OH229201   4.149   4.005   9.237 -0.0713  0.3760  0.0121
 1669TIP3    H129202   4.069   4.038   9.196  0.3389  0.7042 -0.5431
 1669TIP3    H229203   4.208   4.080   9.237  1.0834 -0.4577 -1.8152
 1670TIP3   OH229204   2.207   5.293   7.223 -0.0077 -0.6756 -0.2311
 1670TIP3    H129205   2.213   5.295   7.127 -2.2633 -2.3152 -0.5034
 1670TIP3    H229206   2.246   5.209   7.247 -0.3933 -0.7340  0.1866
 1671TIP3   OH229207   4.024   6.938   9.520  0.8224 -0.4021  0.8171
 1671TIP3    H129208   4.062   6.862   9.477  1.3858 -0.2614  1.0515
 1671TIP3    H229209   4.044   7.011   9.461  0.3262 -0.4229  0.6162
 1672TIP3   OH229210   2.730   4.157   8.363 -0.0608  0.5678  0.0096
 1672TIP3    H129211   2.800   4.217   8.387  0.5477  1.3663 -3.3532
 1672TIP3    H229212   2.653   4.212   8.354  0.1370  0.6247 -1.5270
 1673TIP3   OH229213   6.770   3.430   9.721  0.5626 -0.3332  0.7477
 1673TIP3    H129214   6.774   3.401   9.812 -1.4031 -0.4256  0.8545
 1673TIP3    H229215   6.757   3.350   9.670 -0.8964 -0.0814  0.6687
 1674TIP3   OH229216   3.698   5.484   8.999 -0.0791 -0.6962 -0.2876
 1674TIP3    H129217   3.657   5.410   9.045  0.9694 -1.4273 -0.4707
 1674TIP3    H229218   3.714   5.450   8.911  1.5030 -0.6736 -0.0260
 1675TIP3   OH229219   7.184   4.459   9.810 -0.7367 -0.2926 -0.6538
 1675TIP3    H129220   7.269   4.438   9.850 -1.9770 -0.3487  2.2329
 1675TIP3    H229221   7.164   4.384   9.755 -0.1737 -1.6307  0.8979
 1676TIP3   OH229222   4.790   6.888   7.452 -0.4390  0.4194 -0.2734
 1676TIP3    H129223   4.772   6.908   7.360  0.9789 -0.9804 -0.9062
 1676TIP3    H229224   4.707   6.853   7.485 -0.7159  0.0796 -1.2884
 1677TIP3   OH229225   6.085   6.072   7.519  0.1382  0.6971 -0.3247
 1677TIP3    H129226   6.011   6.033   7.473  0.6531  0.1201 -0.6798
 1677TIP3    H229227   6.103   6.012   7.592 -1.4752  2.2503  1.4381
 1678TIP3   OH229228   0.745   2.832   9.706 -0.1559  0.0083 -0.1035
 1678TIP3    H129229   0.778   2.921   9.716 -0.1134 -0.0713  0.5468
 1678TIP3    H229230   0.711   2.828   9.617  1.7607  0.0343 -0.8708
 1679TIP3   OH229231   0.823   1.530   8.232 -0.1501 -0.2402 -0.4340
 1679TIP3    H129232   0.772   1.578   8.297  1.1120  2.1898 -1.1506
 1679TIP3    H229233   0.879   1.596   8.191  2.2933 -2.4574 -0.9365
 1680TIP3   OH229234   1.459   2.967   9.191 -0.0561  0.1951 -0.3583
 1680TIP3    H129235   1.511   2.905   9.139 -0.8995 -0.6896 -0.1752
 1680TIP3    H229236   1.502   2.969   9.276 -0.2621 -0.4644 -0.2350
 1681TIP3   OH229237   0.193   2.283   8.025  0.3905 -0.3667  0.1255
 1681TIP3    H129238   0.169   2.247   7.939 -1.4050  0.0261  0.4085
 1681TIP3    H229239   0.250   2.216   8.064 -0.9554 -1.8493 -0.3030
 1682TIP3   OH229240   1.251   2.428   8.692 -0.0676 -0.0663  0.3222
 1682TIP3    H129241   1.309   2.353   8.709 -1.6944 -1.4039  0.2419
 1682TIP3    H229242   1.202   2.403   8.614 -0.4636  1.2206  0.1294
 1683TIP3   OH229243   4.318   6.445   7.935 -0.6608 -0.1812 -0.2514
 1683TIP3    H129244   4.282   6.533   7.934  0.5092  0.4783  3.2367
 1683TIP3    H229245   4.287   6.406   8.017  1.5421 -1.7443 -0.0434
 1684TIP3   OH229246   3.319   3.513   7.890  0.6052  0.4010 -0.0304
 1684TIP3    H129247   3.324   3.534   7.984 -0.1312  0.9304 -0.1059
 1684TIP3    H229248   3.407   3.533   7.857  0.7347  0.6645  0.4545
 1685TIP3   OH229249   4.044   1.503   8.313 -0.2555  0.0007  0.4078
 1685TIP3    H129250   4.123   1.542   8.273 -1.2036  0.9846 -0.6021
 1685TIP3    H229251   4.058   1.512   8.407  1.9524 -2.1533  0.3905
 1686TIP3   OH229252   2.625   5.490   6.619 -0.2357 -0.1553  0.2193
 1686TIP3    H129253   2.663   5.497   6.532  0.8068 -1.7406  0.4836
 1686TIP3    H229254   2.608   5.580   6.646 -0.1084  0.3859 -1.4128
 1687TIP3   OH229255   5.864   1.304   8.650  0.2431  0.6969 -0.1516
 1687TIP3    H129256   5.929   1.344   8.709 -0.3066 -1.3858  2.0500
 1687TIP3    H229257   5.901   1.316   8.562  3.6595 -0.3171  0.9620
 1688TIP3   OH229258   4.646   6.975   9.986  0.1279  0.4239  0.6446
 1688TIP3    H129259   4.619   6.938  10.070  1.5108 -2.4018 -0.0389
 1688TIP3    H229260   4.563   6.993   9.940 -0.6224  0.5345  2.0004
 1689TIP3   OH229261   7.076   1.967   7.413 -0.3417  0.9873 -0.2475
 1689TIP3    H129262   7.097   1.874   7.424 -0.3585  0.9739 -0.3261
 1689TIP3    H229263   7.082   1.982   7.319 -0.0937  1.1240 -0.2113
 1690TIP3   OH229264   3.032   2.162   9.110 -0.3397  0.1628  0.0317
 1690TIP3    H129265   3.094   2.214   9.161  2.0026 -1.9110 -0.5237
 1690TIP3    H229266   3.086   2.117   9.046 -2.5456 -1.2939 -0.9078
 1691TIP3   OH229267   7.058   1.762   8.136 -0.1043 -0.4233 -0.3455
 1691TIP3    H129268   7.101   1.710   8.204  0.4162  0.5732  0.1006
 1691TIP3    H229269   7.112   1.748   8.058 -0.6771 -1.5292 -0.5805
 1692TIP3   OH229270   3.757   2.168   8.408 -0.1528 -0.4251  0.4133
 1692TIP3    H129271   3.844   2.172   8.448 -0.1717 -1.9600  0.6912
 1692TIP3    H229272   3.770   2.196   8.318  0.7088 -0.9623  0.3602
 1693TIP3   OH229273   6.160   3.542   9.319  0.3489 -0.3674  1.0007
 1693TIP3    H129274   6.070   3.560   9.290  0.3274  0.3226  1.4717
 1693TIP3    H229275   6.188   3.468   9.264 -0.2396 -0.1096  0.3258
 1694TIP3   OH229276   6.501   3.057   7.428 -0.3844 -0.6585  0.1155
 1694TIP3    H129277   6.533   3.084   7.342 -3.4056 -0.5688 -1.1034
 1694TIP3    H229278   6.541   2.971   7.442 -0.8521 -1.2790 -2.0202
 1695TIP3   OH229279   4.781   3.238   8.696  0.0881  0.3400  0.8243
 1695TIP3    H129280   4.811   3.313   8.644  0.6169 -0.2747  0.2139
 1695TIP3    H229281   4.846   3.229   8.766 -0.7274  1.2843  1.7240
 1696TIP3   OH229282   4.669   1.246   7.780 -0.2006 -0.3596 -0.6965
 1696TIP3    H129283   4.595   1.282   7.828 -2.0290 -3.9953 -0.4903
 1696TIP3    H229284   4.716   1.192   7.843  0.9747 -0.3772 -1.5407
 1697TIP3   OH229285   3.163   5.057   8.492 -0.0887  0.5760  0.1633
 1697TIP3    H129286   3.126   5.132   8.445  0.5542  0.5590 -0.3824
 1697TIP3    H229287   3.136   4.981   8.441  0.1305  0.5093  0.1499
 1698TIP3   OH229288   6.548   7.301   9.539 -0.1734  0.2185 -0.5685
 1698TIP3    H129289   6.490   7.226   9.551 -0.2072  0.0178 -1.9260
 1698TIP3    H229290   6.574   7.325   9.629  0.6812 -2.0478 -0.1455
 1699TIP3   OH229291   4.444   2.215   8.814  0.4524  0.1425  0.2533
 1699TIP3    H129292   4.376   2.209   8.881  1.2542  0.9604  1.1838
 1699TIP3    H229293   4.397   2.219   8.731 -0.7489  2.4672  0.9811
 1700TIP3   OH229294   7.514   4.267   7.265  0.7218 -0.1185 -0.0171
 1700TIP3    H129295   7.457   4.301   7.334  0.8397  1.0741 -0.4779
 1700TIP3    H229296   7.478   4.181   7.244 -0.2850  0.1818  0.4184
 1701TIP3   OH229297   4.891   4.965   8.143 -0.2452  0.1348  0.0399
 1701TIP3    H129298   4.914   4.968   8.050 -0.3029 -1.4929 -0.0700
 1701TIP3    H229299   4.906   4.873   8.168 -0.0007  0.5901  1.6971
 1702TIP3   OH229300   3.319   2.834   9.059 -0.6315  0.1167 -0.3964
 1702TIP3    H129301   3.388   2.860   8.997  0.3448  0.2430  0.6968
 1702TIP3    H229302   3.272   2.915   9.077 -0.3527  0.2613 -0.3037
 1703TIP3   OH229303   7.206   3.991   8.925 -0.7022 -0.0505 -0.1241
 1703TIP3    H129304   7.171   4.026   8.843 -2.3251 -0.4105  0.3804
 1703TIP3    H229305   7.164   4.043   8.993  0.5107  0.1417  0.5094
 1704TIP3   OH229306   4.978   6.011   8.944 -0.1516 -0.0743 -0.5821
 1704TIP3    H129307   5.062   5.965   8.947  1.2862  2.3962  0.3340
 1704TIP3    H229308   4.968   6.048   9.032 -0.8138  1.9465 -1.4572
 1705TIP3   OH229309   4.461   2.804   8.181 -0.0489  0.7042  0.2509
 1705TIP3    H129310   4.367   2.792   8.169 -0.2319  0.3175  1.9095
 1705TIP3    H229311   4.481   2.757   8.262  1.6395  0.4824 -0.2654
 1706TIP3   OH229312   6.169   7.326   8.533 -0.5919 -0.2057 -0.3046
 1706TIP3    H129313   6.124   7.294   8.455  0.1467 -1.9832 -0.0323
 1706TIP3    H229314   6.101   7.374   8.582 -1.4166 -0.2903 -1.3341
 1707TIP3   OH229315   3.936   1.649   7.842  0.1341 -0.4175  0.1295
 1707TIP3    H129316   4.024   1.667   7.873 -0.2703  0.1627  0.9879
 1707TIP3    H229317   3.907   1.732   7.803 -0.7185  0.0165  1.5897
 1708TIP3   OH229318   7.324   5.566   8.580  0.0264  0.2601 -0.4826
 1708TIP3    H129319   7.270   5.528   8.649 -0.7095  1.3219 -0.4515
 1708TIP3    H229320   7.406   5.517   8.584 -0.5543 -0.6976  0.1417
 1709TIP3   OH229321   6.720   2.447   9.249  0.4302  0.3768  0.3381
 1709TIP3    H129322   6.780   2.373   9.264 -0.8271 -0.7715 -0.1156
 1709TIP3    H229323   6.757   2.492   9.174  1.6346  0.6814  1.0841
 1710TIP3   OH229324   3.434   3.384   9.332 -0.4486  0.0843  0.1420
 1710TIP3    H129325   3.523   3.417   9.342 -0.3064 -0.4740  0.8748
 1710TIP3    H229326   3.381   3.461   9.313  0.2099  0.4023 -0.4215
 1711TIP3   OH229327   1.205   2.884   9.041 -0.2449  0.2906 -0.0292
 1711TIP3    H129328   1.188   2.979   9.034 -4.5727  0.0768  3.2952
 1711TIP3    H229329   1.272   2.876   9.109  0.2216  0.9421 -0.4018
 1712TIP3   OH229330   7.229   6.700   7.617  0.2107  0.5192 -0.4947
 1712TIP3    H129331   7.146   6.744   7.629 -0.7051 -1.3478  0.4851
 1712TIP3    H229332   7.243   6.699   7.522  1.1033  4.1979 -0.5299
 1713TIP3   OH229333   2.160   2.482   9.610  0.0349 -0.1190 -0.1576
 1713TIP3    H129334   2.086   2.514   9.660  0.4066 -0.4164  0.5998
 1713TIP3    H229335   2.226   2.552   9.616  1.0042 -1.0964  1.8407
 1714TIP3   OH229336   0.415   2.020   7.822 -0.3777  0.3292  0.0119
 1714TIP3    H129337   0.332   2.069   7.822 -0.1289  0.7710  1.1585
 1714TIP3    H229338   0.392   1.934   7.786 -1.2229  0.6288 -0.1830
 1715TIP3   OH229339   6.301   1.434   9.442  0.4105  0.6412 -0.4795
 1715TIP3    H129340   6.233   1.499   9.426  0.1273  0.4452 -0.1088
 1715TIP3    H229341   6.255   1.361   9.484  0.8158  0.4228 -0.4051
 1716TIP3   OH229342   0.184   2.951   8.942  0.0838 -0.5077 -0.1637
 1716TIP3    H129343   0.111   2.888   8.939 -1.3640  1.1239 -0.8634
 1716TIP3    H229344   0.159   3.014   9.009  2.5378 -1.7581  2.0851
 1717TIP3   OH229345   1.541   6.973   9.458 -0.0416  0.4805  0.2520
 1717TIP3    H129346   1.571   7.031   9.527 -0.1798  1.5173 -0.5258
 1717TIP3    H229347   1.458   6.937   9.490 -0.5996  1.7105  0.2435
 1718TIP3   OH229348   3.362   5.746   8.746  0.5069  0.2280 -0.2090
 1718TIP3    H129349   3.436   5.686   8.757  0.2283 -0.0696  0.0808
 1718TIP3    H229350   3.401   5.833   8.738  0.9061  0.0245 -0.4594
 1719TIP3   OH229351   6.718   5.004   9.497  0.2763  0.1228  0.4276
 1719TIP3    H129352   6.671   5.077   9.537  1.9829  1.7189 -0.3184
 1719TIP3    H229353   6.787   5.046   9.446  1.9090 -2.0743  0.7221
 1720TIP3   OH229354   4.025   2.622   8.854  0.0300  0.1856  0.4369
 1720TIP3    H129355   3.987   2.551   8.905 -0.4110  0.7759  0.9430
 1720TIP3    H229356   3.955   2.647   8.793  0.5587 -0.5307 -0.5009
 1721TIP3   OH229357   5.953   2.374   8.914 -0.2214 -0.0345  0.0821
 1721TIP3    H129358   5.997   2.300   8.957  1.5010  0.2641 -1.0780
 1721TIP3    H229359   5.927   2.431   8.986 -0.9378 -1.3948  0.9581
 1722TIP3   OH229360   2.234   7.208   6.450  0.0796 -0.3447 -0.2740
 1722TIP3    H129361   2.176   7.147   6.495 -1.0121  1.4132  0.8661
 1722TIP3    H229362   2.189   7.293   6.458  2.0401  0.8005 -0.7963
 1723TIP3   OH229363   1.892   7.422   6.878 -0.1912 -0.1047  0.0236
 1723TIP3    H129364   1.845   7.479   6.817 -0.3468  0.1671  0.3968
 1723TIP3    H229365   1.824   7.388   6.936 -0.0890 -0.6212 -0.1587
 1724TIP3   OH229366   4.448   6.181   7.941  0.3447 -0.2763  0.6944
 1724TIP3    H129367   4.373   6.137   7.981  1.2970 -1.4650  1.2258
 1724TIP3    H229368   4.415   6.210   7.856 -0.5396 -1.3199  0.6586
 1725TIP3   OH229369   0.272   3.347   8.894  0.0506  0.2633 -0.0130
 1725TIP3    H129370   0.346   3.300   8.933  0.8734  1.9548  0.5791
 1725TIP3    H229371   0.243   3.408   8.963  0.8274  2.5655 -1.5823
 1726TIP3   OH229372   6.017   7.148   7.491  0.3600 -0.3798  0.1219
 1726TIP3    H129373   5.955   7.122   7.559 -0.1720  0.4691 -0.0275
 1726TIP3    H229374   5.963   7.191   7.424  1.1627  0.7934  0.2062
 1727TIP3   OH229375   2.867   3.979   7.498  0.1163 -0.2853 -0.1179
 1727TIP3    H129376   2.883   4.014   7.410 -0.8637  1.5139  0.3544
 1727TIP3    H229377   2.782   3.936   7.491 -0.4649  0.7835  0.1646
 1728TIP3   OH229378   0.446   4.734   9.710 -0.2811  0.2663 -0.5069
 1728TIP3    H129379   0.517   4.720   9.772 -0.0981 -0.8598 -0.9632
 1728TIP3    H229380   0.464   4.821   9.673 -1.8904  2.3223  2.9499
 1729TIP3   OH229381   5.662   5.534   9.303  0.1224  0.1254  0.2250
 1729TIP3    H129382   5.741   5.500   9.260 -0.2121 -0.6411  0.2051
 1729TIP3    H229383   5.615   5.581   9.234  0.9187  1.2466  0.4098
 1730TIP3   OH229384   6.086   0.714   9.115 -0.0110 -0.0923  0.1894
 1730TIP3    H129385   6.137   0.703   9.195  0.2053 -1.5735 -0.1091
 1730TIP3    H229386   6.140   0.770   9.059  0.3424  0.0269  0.6494
 1731TIP3   OH229387   5.580   3.552   7.585 -0.2009  0.1618 -0.4900
 1731TIP3    H129388   5.595   3.579   7.494  2.6472  1.6093  0.2711
 1731TIP3    H229389   5.578   3.634   7.634 -2.6570 -0.5336  0.7095
 1732TIP3   OH229390   4.619   7.354   9.707 -0.4513  0.3094  0.7118
 1732TIP3    H129391   4.687   7.383   9.646 -1.2308  1.3504  0.3085
 1732TIP3    H229392   4.659   7.282   9.755  0.9168  0.8684  0.4467
 1733TIP3   OH229393   4.881   1.215   8.981  0.5652  0.1131 -0.0990
 1733TIP3    H129394   4.922   1.143   8.932  0.8074  0.2225 -0.0565
 1733TIP3    H229395   4.793   1.220   8.945 -0.4523 -2.0781  1.8082
 1734TIP3   OH229396   4.235   1.585   8.963 -0.7602  0.0004  0.1952
 1734TIP3    H129397   4.297   1.656   8.971 -0.0414 -0.5547 -0.3082
 1734TIP3    H229398   4.250   1.530   9.040  0.1457 -0.7110 -0.4650
 1735TIP3   OH229399   6.988   1.199   7.971  0.9749 -0.0506 -0.7341
 1735TIP3    H129400   6.911   1.150   7.942  1.8502 -0.6813 -2.0300
 1735TIP3    H229401   6.954   1.254   8.042 -0.4527 -1.0502 -0.5821
 1736TIP3   OH229402   4.097   2.335   8.728  0.1984  0.0355 -0.1739
 1736TIP3    H129403   4.044   2.366   8.801 -3.2325 -3.7078 -0.6883
 1736TIP3    H229404   4.161   2.276   8.767 -0.3944 -0.5043 -0.0033
 1737TIP3   OH229405   7.486   3.610   9.502  0.0040  0.3299  0.4722
 1737TIP3    H129406   7.575   3.576   9.501  0.0589  0.4461 -0.8868
 1737TIP3    H229407   7.486   3.680   9.436 -1.2124 -0.0154  0.0819
 1738TIP3   OH229408   0.364   2.992   8.744 -0.0888  0.0927 -0.0867
 1738TIP3    H129409   0.437   2.933   8.762 -0.9719 -1.6409 -1.8325
 1738TIP3    H229410   0.301   2.975   8.814  0.7436  0.9551  0.9169
 1739TIP3   OH229411   4.557   1.613   8.040  0.2243 -0.1926 -0.4247
 1739TIP3    H129412   4.634   1.665   8.016 -0.2683  1.1532  0.7793
 1739TIP3    H229413   4.499   1.675   8.083 -1.6270 -1.1454 -1.4370
 1740TIP3   OH229414   0.758   2.532   9.527 -0.3359 -0.7331 -0.0726
 1740TIP3    H129415   0.807   2.558   9.605  1.4661 -1.7283 -0.8107
 1740TIP3    H229416   0.725   2.614   9.490  1.8498  0.1321 -0.2190
 1741TIP3   OH229417   4.400   6.047   9.070 -0.1379  0.1998  0.1666
 1741TIP3    H129418   4.471   5.988   9.094  0.1730  0.7267  0.5393
 1741TIP3    H229419   4.325   5.989   9.056  0.2347 -0.3101  0.2591
 1742TIP3   OH229420   1.116   4.195   9.150 -0.1530 -0.2410  0.2449
 1742TIP3    H129421   1.115   4.274   9.097  0.5627 -1.8365 -2.3641
 1742TIP3    H229422   1.029   4.157   9.138  0.0395 -0.6470  0.1012
 1743TIP3   OH229423   5.020   0.508   6.951  0.3212  0.0500  0.1977
 1743TIP3    H129424   4.967   0.540   7.024  0.2609  1.7794 -0.5406
 1743TIP3    H229425   5.014   0.413   6.956 -1.0996  0.1675  1.3937
 1744TIP3   OH229426   0.983   5.114   8.491 -0.0726 -0.0241 -0.2324
 1744TIP3    H129427   0.955   5.032   8.451  0.0027 -0.2892  0.2467
 1744TIP3    H229428   0.961   5.182   8.427 -0.0311 -0.4309 -0.6792
 1745TIP3   OH229429   2.131   2.875   7.541  0.6694  0.0988 -0.0561
 1745TIP3    H129430   2.092   2.890   7.455  0.1233  1.9781  0.4662
 1745TIP3    H229431   2.056   2.878   7.601  1.2249  0.4506  0.6318
 1746TIP3   OH229432   5.677   4.338   7.985 -0.1779 -0.4927  0.6112
 1746TIP3    H129433   5.634   4.388   8.055 -0.6749 -1.2360  0.8449
 1746TIP3    H229434   5.691   4.403   7.916 -0.5487  0.0393  1.0210
 1747TIP3   OH229435   3.868   4.743   8.070 -0.0437 -0.2121 -0.2867
 1747TIP3    H129436   3.948   4.753   8.019 -0.3246  3.6923 -0.2469
 1747TIP3    H229437   3.806   4.700   8.010  0.6877  1.0684 -2.0464
 1748TIP3   OH229438   5.497   6.924   8.941  0.2771  0.0261 -0.1765
 1748TIP3    H129439   5.490   6.978   9.020 -0.3689  0.8837 -0.7935
 1748TIP3    H229440   5.565   6.967   8.889  0.7118 -0.5439 -0.0828
 1749TIP3   OH229441   3.717   0.963   7.790  0.3605 -0.3715  0.1377
 1749TIP3    H129442   3.696   1.057   7.796 -1.1880 -0.7197  0.4530
 1749TIP3    H229443   3.811   0.959   7.811  0.3729  1.0624  0.5022
 1750TIP3   OH229444   1.499   6.638   7.075 -0.0841  0.3516  0.0294
 1750TIP3    H129445   1.441   6.565   7.053  0.6770 -0.8066  1.6662
 1750TIP3    H229446   1.554   6.650   6.998 -0.2081 -0.8008 -0.2487
 1751TIP3   OH229447   0.231   5.182   8.992  0.0405  0.2860  0.3096
 1751TIP3    H129448   0.158   5.206   8.935 -0.0280  1.0455  0.7150
 1751TIP3    H229449   0.301   5.243   8.968 -0.5417  1.8014  2.2259
 1752TIP3   OH229450   3.764   1.897   7.097  0.1229 -0.6406 -0.1199
 1752TIP3    H129451   3.677   1.877   7.062 -0.7556 -0.5875  1.9020
 1752TIP3    H229452   3.807   1.812   7.103  0.1628 -0.6919 -0.9131
 1753TIP3   OH229453   2.683   6.208   6.871  0.3986  0.1308 -0.4593
 1753TIP3    H129454   2.681   6.132   6.812  0.2479  0.0376 -0.3344
 1753TIP3    H229455   2.677   6.284   6.813  1.0164  0.0617 -0.6199
 1754TIP3   OH229456   2.775   2.566   7.631 -0.5496  0.1246  0.6513
 1754TIP3    H129457   2.729   2.482   7.632 -0.9810  0.3127 -1.1809
 1754TIP3    H229458   2.826   2.566   7.712  0.9001 -2.7051 -0.1713
 1755TIP3   OH229459   5.322   3.532   9.504  0.3134 -0.4930 -0.4485
 1755TIP3    H129460   5.271   3.489   9.573  0.4472 -2.7992 -1.6740
 1755TIP3    H229461   5.291   3.622   9.503  0.6561 -0.2210  2.9063
 1756TIP3   OH229462   4.704   4.658   8.479 -0.6411  0.3389  0.0907
 1756TIP3    H129463   4.777   4.624   8.428 -0.7344  2.0218 -1.2599
 1756TIP3    H229464   4.626   4.624   8.436 -0.6861  0.6534 -0.0861
 1757TIP3   OH229465   2.073   5.047   9.457  0.1429  0.3503 -0.1140
 1757TIP3    H129466   2.167   5.045   9.474  0.1555  0.4004 -0.1752
 1757TIP3    H229467   2.036   4.985   9.520  0.3887 -0.9404 -1.1685
 1758TIP3   OH229468   0.406   2.554   7.955 -0.1358 -0.3080 -0.3936
 1758TIP3    H129469   0.401   2.517   8.043 -0.1638 -0.5679 -0.5053
 1758TIP3    H229470   0.335   2.512   7.907  2.5236 -3.6083 -1.8478
 1759TIP3   OH229471   4.559   3.978   9.431  0.7084 -0.7284  0.0264
 1759TIP3    H129472   4.603   4.004   9.350 -1.6057  0.2539 -1.0103
 1759TIP3    H229473   4.581   4.047   9.493  1.9634 -1.1409  0.0702
 1760TIP3   OH229474   1.823   7.367   7.942 -0.4749 -1.1354 -0.4986
 1760TIP3    H129475   1.836   7.274   7.963 -1.9747 -1.4881 -1.0187
 1760TIP3    H229476   1.730   7.381   7.954 -0.1858  0.4500  0.0328
 1761TIP3   OH229477   3.679   3.264   8.102  0.3633  0.2905  0.6102
 1761TIP3    H129478   3.610   3.298   8.045 -0.6471 -0.7211  1.1717
 1761TIP3    H229479   3.727   3.202   8.048 -0.5033 -0.5607  0.7877
 1762TIP3   OH229480   2.801   5.915   7.414 -0.0702 -0.1771  0.0886
 1762TIP3    H129481   2.761   5.982   7.470  0.7254 -0.4199  0.9965
 1762TIP3    H229482   2.730   5.854   7.395 -0.7062  0.6884 -0.4034
 1763TIP3   OH229483   6.198   3.573   8.722  0.5977  0.1807 -0.4664
 1763TIP3    H129484   6.156   3.518   8.788  1.3690  0.9690  0.7222
 1763TIP3    H229485   6.219   3.654   8.768  3.3832 -0.1609 -0.9618
 1764TIP3   OH229486   3.536   1.805   7.010  0.3574 -0.8210 -0.3144
 1764TIP3    H129487   3.569   1.726   6.966 -0.5616  0.7904 -4.4360
 1764TIP3    H229488   3.442   1.789   7.019  0.4269 -0.8367  0.3668
 1765TIP3   OH229489   3.644   2.034   8.925  0.1452  0.2608  0.1614
 1765TIP3    H129490   3.606   2.095   8.988  0.1592  1.0405 -0.5542
 1765TIP3    H229491   3.666   2.089   8.850 -1.4866 -0.8846 -1.2447
 1766TIP3   OH229492   2.220   5.004   7.218 -0.4883 -0.5803 -0.4578
 1766TIP3    H129493   2.173   4.921   7.225 -0.7194 -0.3878  0.3557
 1766TIP3    H229494   2.312   4.979   7.212 -0.4891 -0.8671  0.6481
 1767TIP3   OH229495   3.977   0.806   7.482 -0.2942 -0.2029 -0.3574
 1767TIP3    H129496   3.978   0.802   7.386  1.8989 -1.2289 -0.3552
 1767TIP3    H229497   3.999   0.717   7.510  1.1547  0.5299  1.0205
 1768TIP3   OH229498   1.053   7.467   7.470  0.3879  0.3451 -0.1360
 1768TIP3    H129499   1.131   7.412   7.472  0.3015  0.1319 -1.5830
 1768TIP3    H229500   0.989   7.418   7.419 -0.8274  0.3914  1.2570
 1769TIP3   OH229501   4.794   1.072   7.945 -0.1346  0.3823  0.5434
 1769TIP3    H129502   4.720   1.052   8.002  1.7379 -2.1025  2.3124
 1769TIP3    H229503   4.852   1.126   7.999  0.2813  0.6074 -0.1105
 1770TIP3   OH229504   4.454   1.382   7.916 -0.5511 -0.3285  0.5605
 1770TIP3    H129505   4.400   1.443   7.866  1.4503  0.1941 -1.1032
 1770TIP3    H229506   4.494   1.436   7.984  0.4777  0.0301 -0.3165
 1771TIP3   OH229507   0.010   0.549   7.360 -0.3440 -0.3981 -0.3148
 1771TIP3    H129508   0.027   0.599   7.280  0.8731 -1.1677 -0.5627
 1771TIP3    H229509   0.027   0.458   7.335 -0.4135 -0.7022  0.7065
 1772TIP3   OH229510   1.909   6.681   9.513  0.1732 -0.1986 -0.4510
 1772TIP3    H129511   1.822   6.645   9.533  0.8699 -2.4315 -1.1655
 1772TIP3    H229512   1.902   6.712   9.423 -0.4686  1.7324  0.2108
 1773TIP3   OH229513   0.925   5.919   7.002  0.5843 -0.8730 -0.0300
 1773TIP3    H129514   0.985   5.896   6.932  1.9414 -2.5451  1.5732
 1773TIP3    H229515   0.950   5.862   7.075 -3.2913 -2.1124  0.5819
 1774TIP3   OH229516   7.487   6.179   7.630  0.0244  0.1191 -0.5568
 1774TIP3    H129517   7.563   6.194   7.574  1.4436  2.6689  1.8299
 1774TIP3    H229518   7.520   6.119   7.698 -1.1207 -1.4092 -1.2972
 1775TIP3   OH229519   2.494   5.412   7.517  0.6438  0.2954  0.1710
 1775TIP3    H129520   2.576   5.404   7.566 -0.1720 -1.3851  1.3311
 1775TIP3    H229521   2.522   5.431   7.427  2.3608 -1.5202  0.2625
 1776TIP3   OH229522   1.052   2.623   6.924  0.1655 -0.1966 -0.4249
 1776TIP3    H129523   1.065   2.627   6.829 -1.1463  0.6279 -0.5969
 1776TIP3    H229524   1.006   2.705   6.945 -2.2025 -1.6542  0.4643
 1777TIP3   OH229525   0.793   0.122   7.384  0.2687  0.3635  0.2769
 1777TIP3    H129526   0.723   0.187   7.387 -0.7082 -0.6832  1.7025
 1777TIP3    H229527   0.750   0.043   7.349  1.3255  0.3246 -1.0226
 1778TIP3   OH229528   0.133   0.532   9.011 -0.2609 -0.6096  0.1938
 1778TIP3    H129529   0.056   0.555   9.062 -0.5184  0.3463 -0.6070
 1778TIP3    H229530   0.106   0.456   8.959 -0.8621  0.0823 -0.5219
 1779TIP3   OH229531   6.502   1.055   8.039  0.3417 -0.1922  0.1532
 1779TIP3    H129532   6.484   1.137   7.992 -0.0180 -1.0584 -1.2722
 1779TIP3    H229533   6.448   1.060   8.118  0.8410  1.2224  0.4352
 1780TIP3   OH229534   3.929   7.277   9.059 -0.1073  0.7335  0.1783
 1780TIP3    H129535   3.997   7.248   8.998 -1.5391  1.2752 -1.7766
 1780TIP3    H229536   3.914   7.202   9.116  0.1212 -0.4221 -1.2171
 1781TIP3   OH229537   4.407   7.230   9.574  0.3448  0.2049  0.3313
 1781TIP3    H129538   4.340   7.187   9.627  0.4463 -2.7167 -1.6797
 1781TIP3    H229539   4.481   7.242   9.633 -0.2451 -1.0720  1.3624
 1782TIP3   OH229540   4.169   3.321   8.506 -0.2548  0.1892 -0.1889
 1782TIP3    H129541   4.127   3.403   8.480  0.1461  0.5392  0.2567
 1782TIP3    H229542   4.199   3.336   8.596  1.3492  0.1535 -0.6870
 1783TIP3   OH229543   1.253   1.456   7.519 -0.1220  0.0427 -0.6743
 1783TIP3    H129544   1.217   1.522   7.578 -2.7494 -1.8232  0.0049
 1783TIP3    H229545   1.277   1.505   7.441 -2.1822  1.8071 -0.3110
 1784TIP3   OH229546   3.599   2.636   8.466 -0.0367  0.2828  0.4647
 1784TIP3    H129547   3.523   2.620   8.522 -1.5012 -2.3165 -1.9867
 1784TIP3    H229548   3.573   2.710   8.411 -0.5595 -0.2036  0.0495
 1785TIP3   OH229549   5.221   2.880   7.058  0.3344 -0.1464 -0.0867
 1785TIP3    H129550   5.160   2.888   7.132 -0.8111 -0.1794 -1.0064
 1785TIP3    H229551   5.299   2.839   7.096  0.0182  0.4203  1.2384
 1786TIP3   OH229552   1.607   3.229   8.534 -0.6716  0.1174 -0.0235
 1786TIP3    H129553   1.655   3.148   8.517 -0.2713  0.5656 -1.1843
 1786TIP3    H229554   1.673   3.298   8.523 -1.6364  0.7916 -2.1652
 1787TIP3   OH229555   0.599   2.810   9.454 -0.5246 -0.9250  0.5999
 1787TIP3    H129556   0.578   2.903   9.461  1.8128  0.0722 -2.7346
 1787TIP3    H229557   0.517   2.769   9.428 -0.7835  1.0060 -2.0531
 1788TIP3   OH229558   6.121   2.664   7.388 -0.3858 -0.3135  0.0758
 1788TIP3    H129559   6.208   2.691   7.361 -0.5756  0.8174  0.5161
 1788TIP3    H229560   6.103   2.585   7.338  0.6737 -0.2583 -0.4135
 1789TIP3   OH229561   4.667   5.355   7.918 -0.1018  0.1538  0.3979
 1789TIP3    H129562   4.751   5.313   7.896 -1.3697 -1.3471 -1.9725
 1789TIP3    H229563   4.683   5.448   7.901  1.3144  0.0129  0.7747
 1790TIP3   OH229564   4.106   6.451   8.147 -1.2586 -0.3811 -0.3361
 1790TIP3    H129565   4.087   6.528   8.201 -4.1306 -0.8716 -0.4786
 1790TIP3    H229566   4.126   6.382   8.210  1.3553  0.3671 -0.2070
 1791TIP3   OH229567   7.361   6.918   7.522 -0.1956  0.4881 -0.0585
 1791TIP3    H129568   7.375   6.850   7.457  1.4863  0.9435 -0.2175
 1791TIP3    H229569   7.280   6.962   7.494  0.3832  0.5452 -1.7487
 1792TIP3   OH229570   2.324   6.745   8.803  0.1418 -0.7503 -0.3938
 1792TIP3    H129571   2.309   6.785   8.718 -1.5127  0.5792  0.4638
 1792TIP3    H229572   2.417   6.762   8.822  0.0532  0.6253 -1.0995
 1793TIP3   OH229573   7.218   7.505   7.889  0.6403 -0.4855  0.9103
 1793TIP3    H129574   7.165   7.483   7.966 -1.0547 -0.3922 -0.1859
 1793TIP3    H229575   7.305   7.523   7.925  0.2471 -1.7323  2.6619
 1794TIP3   OH229576   4.597   5.545   8.854 -0.1710 -0.1736 -0.4361
 1794TIP3    H129577   4.680   5.534   8.808 -0.3357 -1.6183 -0.4361
 1794TIP3    H229578   4.543   5.471   8.825 -0.7628 -0.3541  1.0121
 1795TIP3   OH229579   3.755   5.763   8.507 -0.1728 -0.1890 -0.0044
 1795TIP3    H129580   3.710   5.768   8.591  1.2292  2.0422  0.7004
 1795TIP3    H229581   3.743   5.672   8.479  0.0373 -1.2707  3.0234
 1796TIP3   OH229582   5.229   0.273   7.533  0.4358  0.2285 -0.1886
 1796TIP3    H129583   5.160   0.334   7.506 -0.1745 -0.5893 -0.5371
 1796TIP3    H229584   5.192   0.227   7.609  1.9361  2.1470  1.8419
 1797TIP3   OH229585   3.130   4.382   9.576  0.3363 -0.1172  0.2407
 1797TIP3    H129586   3.071   4.429   9.634 -2.9173 -1.9459 -1.2839
 1797TIP3    H229587   3.109   4.289   9.591 -0.3798 -0.6968 -3.3420
 1798TIP3   OH229588   1.947   4.765   8.886  0.0286 -0.4788  0.3779
 1798TIP3    H129589   1.986   4.846   8.852  1.0951 -1.6615 -1.4171
 1798TIP3    H229590   2.008   4.696   8.858 -1.2036 -1.9763  1.2383
 1799TIP3   OH229591   0.281   4.312   7.271  0.2244  0.4455  0.4190
 1799TIP3    H129592   0.268   4.251   7.199  0.9491  1.0836 -0.2681
 1799TIP3    H229593   0.210   4.292   7.332 -0.0745 -0.4712 -0.2096
 1800TIP3   OH229594   4.333   4.599   7.376 -0.1513 -0.1482 -0.4130
 1800TIP3    H129595   4.378   4.529   7.424  0.9299  2.0863  2.0951
 1800TIP3    H229596   4.404   4.653   7.342 -0.8834  1.6145  0.7306
 1801TIP3   OH229597   7.274   7.010   8.682 -0.3984  0.2093 -0.4726
 1801TIP3    H129598   7.341   7.068   8.716 -1.4548  1.0660  0.2174
 1801TIP3    H229599   7.309   6.978   8.599  1.5173 -0.6071  0.5942
 1802TIP3   OH229600   0.393   5.470   7.833 -0.7747  0.2945 -0.1008
 1802TIP3    H129601   0.435   5.462   7.918  1.5202 -2.4057 -1.3435
 1802TIP3    H229602   0.315   5.415   7.839  0.5581 -1.7221 -0.3231
 1803TIP3   OH229603   6.043   3.494   7.705  0.0144  0.0398  0.0236
 1803TIP3    H129604   6.065   3.580   7.668 -1.4163  0.4214  0.0098
 1803TIP3    H229605   5.966   3.466   7.655  1.0070 -1.6999 -0.6208
 1804TIP3   OH229606   4.176   5.697   7.898  0.3452 -0.0022  0.0423
 1804TIP3    H129607   4.093   5.745   7.900  0.8256  0.9347  3.1318
 1804TIP3    H229608   4.216   5.721   7.815 -1.8099  0.6611 -0.8828
 1805TIP3   OH229609   4.755   6.249   8.706  0.7709  0.1059 -0.4212
 1805TIP3    H129610   4.743   6.253   8.801 -0.9151 -0.2665 -0.5784
 1805TIP3    H229611   4.680   6.298   8.671  0.3185 -1.3468 -1.5737
 1806TIP3   OH229612   6.874   4.668   8.554  1.1667 -0.3384 -0.1109
 1806TIP3    H129613   6.956   4.711   8.579  0.9126  0.2192 -0.2404
 1806TIP3    H229614   6.820   4.738   8.518  0.0855 -0.4212  1.2636
 1807TIP3   OH229615   1.141   6.294   9.403  0.6632 -0.7042  0.3004
 1807TIP3    H129616   1.110   6.212   9.365  0.9841 -0.6085 -0.1787
 1807TIP3    H229617   1.164   6.349   9.327 -2.5396  1.0483  0.4552
 1808TIP3   OH229618   0.985   4.047   8.624  0.2911  0.0815 -0.5742
 1808TIP3    H129619   0.947   4.060   8.537  1.0800 -0.9007 -1.0856
 1808TIP3    H229620   0.909   4.025   8.679 -0.1449  0.1264 -1.1402
 1809TIP3   OH229621   4.456   7.435   8.291  0.7267  0.2887  0.1172
 1809TIP3    H129622   4.373   7.450   8.337  0.3676  0.7082 -0.6380
 1809TIP3    H229623   4.459   7.341   8.277  0.6925  0.1916  0.7156
 1810TIP3   OH229624   2.561   6.451   9.465 -0.3940 -0.1165  0.1297
 1810TIP3    H129625   2.545   6.504   9.543  2.3855  0.2111  0.5711
 1810TIP3    H229626   2.573   6.515   9.395  2.4703 -0.0641  0.5654
 1811TIP3   OH229627   2.330   6.431   8.347  0.2868 -0.3099  0.0911
 1811TIP3    H129628   2.291   6.434   8.260  1.0051  1.8156 -0.2185
 1811TIP3    H229629   2.414   6.387   8.334  1.5739  2.2357 -0.8856
 1812TIP3   OH229630   2.457   4.898   7.156  0.2026 -1.0480  0.0426
 1812TIP3    H129631   2.530   4.889   7.094 -1.3774 -3.2233 -1.6423
 1812TIP3    H229632   2.436   4.808   7.181 -2.5875 -0.5851 -0.3950
 1813TIP3   OH229633   7.457   6.314   8.460 -0.6193  0.0706  0.1660
 1813TIP3    H129634   7.464   6.321   8.555  2.8190  0.3040  0.0001
 1813TIP3    H229635   7.535   6.266   8.433 -0.5943  1.4997 -2.6891
 1814TIP3   OH229636   0.839   0.836   9.867 -0.2781  0.0789 -0.0285
 1814TIP3    H129637   0.931   0.855   9.849 -0.5573  0.5684 -0.9824
 1814TIP3    H229638   0.803   0.920   9.896 -0.1303 -0.4099  1.6992
 1815TIP3   OH229639   4.524   3.721   9.603  0.0567  0.1663 -0.3578
 1815TIP3    H129640   4.586   3.700   9.673  1.8264 -2.5971 -2.5412
 1815TIP3    H229641   4.556   3.805   9.568  0.3835  0.5483  0.8103
 1816TIP3   OH229642   3.683   5.660   6.838  0.2951  0.4436 -0.3772
 1816TIP3    H129643   3.776   5.679   6.852  0.8310 -1.4799 -1.1372
 1816TIP3    H229644   3.662   5.592   6.902 -0.1846 -0.2339 -1.2416
 1817TIP3   OH229645   7.302   5.839  10.099  0.0734 -0.6821  0.3055
 1817TIP3    H129646   7.324   5.867  10.010 -1.0303  0.3932  0.3621
 1817TIP3    H229647   7.346   5.902  10.156 -0.8586 -0.1825  0.4762
 1818TIP3   OH229648   0.398   4.958   7.828  0.1367 -0.0897  0.2762
 1818TIP3    H129649   0.413   4.990   7.917  0.8574  1.3260 -0.3369
 1818TIP3    H229650   0.469   4.895   7.813  0.2819  0.0095  0.5403
 1819TIP3   OH229651   6.852   4.003   7.836 -0.6702  0.0527 -0.1234
 1819TIP3    H129652   6.764   4.015   7.800 -0.6813  2.0417  0.4431
 1819TIP3    H229653   6.858   4.067   7.907  1.4450  0.4282 -0.5711
 1820TIP3   OH229654   0.377   2.987   9.746 -0.6314 -0.1721  0.2134
 1820TIP3    H129655   0.404   2.990   9.654 -1.5808  0.1304 -0.0647
 1820TIP3    H229656   0.423   2.911   9.782  1.2079  0.7836 -0.0317
 1821TIP3   OH229657   5.788   6.333   9.405  0.2123 -0.5111 -0.0474
 1821TIP3    H129658   5.724   6.263   9.392  0.4074 -0.1985 -3.8566
 1821TIP3    H229659   5.866   6.304   9.357  1.4449  0.9245  0.9869
 1822TIP3   OH229660   4.209   4.500   9.218 -0.1156 -0.2265  0.1580
 1822TIP3    H129661   4.154   4.533   9.289  0.3848 -2.3009  1.6198
 1822TIP3    H229662   4.253   4.424   9.256  2.1790  0.1235 -1.5917
 1823TIP3   OH229663   1.102   6.553   8.582 -0.1408  0.2188  0.5290
 1823TIP3    H129664   1.140   6.627   8.629  2.1376 -0.6014  0.1059
 1823TIP3    H229665   1.093   6.583   8.492 -1.2845  0.6516  0.7627
 1824TIP3   OH229666   0.221   1.880   7.021  0.2351  0.7413 -0.0612
 1824TIP3    H129667   0.223   1.794   6.979 -0.0655  1.0468 -0.7233
 1824TIP3    H229668   0.312   1.899   7.044  0.5472  0.9501 -1.3897
 1825TIP3   OH229669   0.037   5.837   8.326 -0.0153  0.2564 -0.5129
 1825TIP3    H129670  -0.021   5.902   8.367  0.5831  1.4192 -1.4569
 1825TIP3    H229671  -0.021   5.788   8.267 -0.3135  0.4753 -0.4067
 1826TIP3   OH229672   1.161   1.970   9.053 -0.5972  0.4669 -0.2733
 1826TIP3    H129673   1.098   1.908   9.016 -0.3296  0.2221 -0.3275
 1826TIP3    H229674   1.149   2.050   9.003 -1.6818  0.8074  0.4906
 1827TIP3   OH229675   7.399   3.428   7.657 -0.2587  0.3537 -0.5395
 1827TIP3    H129676   7.406   3.503   7.598 -0.6796  0.4110 -0.5151
 1827TIP3    H229677   7.460   3.448   7.728 -1.0279  1.0974 -0.0720
 1828TIP3   OH229678   7.336   6.614   9.687 -0.1067  0.4239 -0.5194
 1828TIP3    H129679   7.359   6.548   9.622  0.4329  1.8177 -1.8079
 1828TIP3    H229680   7.321   6.694   9.636 -3.1674  0.7793  0.7147
 1829TIP3   OH229681   3.539   5.681   7.465  0.1077  0.0238 -0.2732
 1829TIP3    H129682   3.502   5.600   7.499  0.2672 -0.3192 -0.9098
 1829TIP3    H229683   3.535   5.672   7.370  1.8527 -0.0539 -0.3722
 1830TIP3   OH229684   4.937   3.591   8.877  0.5491 -0.1569  0.3894
 1830TIP3    H129685   4.905   3.555   8.794  0.3468 -0.0387  0.4157
 1830TIP3    H229686   4.972   3.677   8.854 -0.2996  0.2513  0.5634
 1831TIP3   OH229687   1.159   6.453   8.127 -0.3416  0.0487  0.2771
 1831TIP3    H129688   1.129   6.436   8.038 -0.9790 -0.2811  0.5435
 1831TIP3    H229689   1.224   6.523   8.119  0.5919 -0.8857 -0.5916
 1832TIP3   OH229690   3.416   2.640   9.279 -0.2734  0.1923  0.3063
 1832TIP3    H129691   3.480   2.685   9.333 -1.6870  1.6948  0.8361
 1832TIP3    H229692   3.400   2.699   9.205 -0.0192 -0.8125 -0.5879
 1833TIP3   OH229693   5.561   5.653   9.076 -0.1736 -0.3621 -1.1505
 1833TIP3    H129694   5.555   5.744   9.049  0.6762 -0.1811 -0.7581
 1833TIP3    H229695   5.541   5.603   8.997  1.2474  0.1558 -1.8665
 1834TIP3   OH229696   3.217   1.199   6.963 -0.3467 -0.8699 -0.2053
 1834TIP3    H129697   3.159   1.275   6.967 -1.4707 -1.7819  2.3664
 1834TIP3    H229698   3.212   1.171   6.871 -1.3833  1.0079 -0.7834
 1835TIP3   OH229699   5.950   7.297   7.055  0.1490 -0.3506 -0.2708
 1835TIP3    H129700   5.903   7.283   7.137  1.2765 -1.4074  0.2226
 1835TIP3    H229701   5.889   7.265   6.988 -0.8990  0.7970  0.0964
 1836TIP3   OH229702   5.886   5.616   8.093  0.4749  0.2929  0.0732
 1836TIP3    H129703   5.891   5.710   8.079 -2.9527  0.4299 -1.0743
 1836TIP3    H229704   5.808   5.603   8.148 -2.5583 -2.0017 -4.1744
 1837TIP3   OH229705   1.305   2.305   7.401  0.2987  0.0610 -0.0160
 1837TIP3    H129706   1.280   2.372   7.464  0.3614  0.3653 -0.3157
 1837TIP3    H229707   1.305   2.223   7.452 -1.8207 -0.0480 -0.1125
 1838TIP3   OH229708   3.493   0.924   7.574 -0.0469  0.6116  0.3633
 1838TIP3    H129709   3.577   0.945   7.615  0.5564  0.2588 -0.6469
 1838TIP3    H229710   3.461   1.007   7.541  0.5185  0.5561 -0.3441
 1839TIP3   OH229711   1.005   2.370   8.915  0.4377  0.0143 -0.0217
 1839TIP3    H129712   1.033   2.458   8.889  0.3997  0.2925  0.8482
 1839TIP3    H229713   1.046   2.356   9.000  0.7362 -0.9587 -0.3168
 1840TIP3   OH229714   4.307   0.534   9.444 -0.3270  0.1969 -0.3611
 1840TIP3    H129715   4.321   0.489   9.527  0.3317  0.1629 -0.4866
 1840TIP3    H229716   4.279   0.465   9.384  1.4512 -0.2074 -0.7585
 1841TIP3   OH229717   0.690   1.230   8.539 -0.1332  0.0208 -0.2822
 1841TIP3    H129718   0.779   1.239   8.505  0.0056  0.7784  0.2590
 1841TIP3    H229719   0.660   1.145   8.506  2.0940 -1.9923  2.3781
 1842TIP3   OH229720   4.259   6.001   7.625 -0.3579 -0.2988  0.2721
 1842TIP3    H129721   4.284   6.093   7.616  2.1051 -0.8250  0.9669
 1842TIP3    H229722   4.164   6.003   7.633 -0.2527  2.5155  3.2397
 1843TIP3   OH229723   6.583   2.435   8.903 -0.1037 -0.6727 -0.1163
 1843TIP3    H129724   6.583   2.529   8.921 -0.4338 -0.4579 -1.1500
 1843TIP3    H229725   6.496   2.418   8.866 -0.5780 -1.6644  1.3791
 1844TIP3   OH229726   6.211   1.961   7.936 -0.2313  0.6221 -0.5993
 1844TIP3    H129727   6.268   1.977   8.011 -1.5006 -0.9186  0.7609
 1844TIP3    H229728   6.221   1.868   7.918 -0.2765  0.8879 -2.0858
 1845TIP3   OH229729   7.242   3.907   6.651  0.5216  0.3160 -0.0677
 1845TIP3    H129730   7.197   3.834   6.694  0.2514  0.3878 -0.2246
 1845TIP3    H229731   7.325   3.870   6.621  1.5511  0.7066  2.0959
 1846TIP3   OH229732   3.444   6.476   8.228  0.0612  0.5080  0.1607
 1846TIP3    H129733   3.402   6.445   8.148  1.9465 -1.0518 -0.2882
 1846TIP3    H229734   3.437   6.402   8.289  1.4814  0.4714  0.3076
 1847TIP3   OH229735   3.250   2.206   9.639  0.4961 -0.4786 -0.2608
 1847TIP3    H129736   3.332   2.169   9.674 -0.5167 -1.1926  1.4864
 1847TIP3    H229737   3.195   2.129   9.622 -0.3457  0.0541  0.0250
 1848TIP3   OH229738   2.917   2.119   9.807  0.1859 -0.2622  0.1046
 1848TIP3    H129739   2.837   2.071   9.829  0.2504 -1.3739 -1.8690
 1848TIP3    H229740   2.956   2.140   9.892 -1.1800 -1.4086  1.0801
 1849TIP3   OH229741   2.803   0.491   7.172 -0.3375 -0.2136  0.0073
 1849TIP3    H129742   2.800   0.576   7.216  0.3100  0.2433 -0.8092
 1849TIP3    H229743   2.752   0.504   7.092  0.0721 -0.4908 -0.2982
 1850TIP3   OH229744   2.112   5.564   6.919  0.3398 -0.0751 -0.0920
 1850TIP3    H129745   2.134   5.627   6.987 -0.6927  0.1259  0.0772
 1850TIP3    H229746   2.053   5.611   6.860 -0.0315 -0.7177 -0.2493
 1851TIP3   OH229747   4.261   0.917   6.736 -0.1967  0.5586  0.8918
 1851TIP3    H129748   4.343   0.965   6.746 -0.3998  1.1125 -0.0481
 1851TIP3    H229749   4.199   0.980   6.700 -0.3443 -0.4914 -0.8091
 1852TIP3   OH229750   4.105   5.755   9.297 -0.0513 -0.1140  0.0122
 1852TIP3    H129751   4.148   5.821   9.350 -0.0390 -0.5119  0.5009
 1852TIP3    H229752   4.120   5.673   9.343 -0.5349 -0.3856 -0.3017
 1853TIP3   OH229753   7.330   5.174   9.034 -0.1059  0.0934 -0.2179
 1853TIP3    H129754   7.401   5.128   9.078  0.6419  1.4729  0.0609
 1853TIP3    H229755   7.373   5.229   8.969 -0.7005  2.2297  1.0755
 1854TIP3   OH229756   0.321   4.128   8.214 -0.2189 -0.1628  0.1682
 1854TIP3    H129757   0.344   4.093   8.128  0.0554  0.4381 -0.0101
 1854TIP3    H229758   0.376   4.206   8.223 -1.5203  0.7911  0.1345
 1855TIP3   OH229759   2.867   4.709   8.547 -0.6972  0.2162  0.9528
 1855TIP3    H129760   2.800   4.655   8.506 -1.0959  0.8487  0.7533
 1855TIP3    H229761   2.839   4.718   8.638 -0.7183  0.2290  0.9442
 1856TIP3   OH229762   0.395   1.211   9.429  0.5515  0.3744  0.3747
 1856TIP3    H129763   0.359   1.244   9.512 -0.2574  1.6795 -0.4499
 1856TIP3    H229764   0.463   1.275   9.407  0.8248 -0.0218  0.0751
 1857TIP3   OH229765   2.617   2.560   9.549 -0.5881  0.1181  0.2815
 1857TIP3    H129766   2.559   2.565   9.626 -1.0120  3.1918 -0.1132
 1857TIP3    H229767   2.561   2.585   9.476  1.0274  2.6214 -0.1954
 1858TIP3   OH229768   5.330   0.673   9.038  0.5613  0.3224 -0.4035
 1858TIP3    H129769   5.273   0.735   8.993 -1.6926  1.1523  3.1679
 1858TIP3    H229770   5.400   0.727   9.074  0.4063  0.3043 -0.0610
 1859TIP3   OH229771   5.464   5.620   7.642  0.7162  0.0828 -0.2159
 1859TIP3    H129772   5.513   5.624   7.724  0.6701 -0.5285 -0.1534
 1859TIP3    H229773   5.377   5.654   7.664  0.5568 -0.5203  0.1097
 1860TIP3   OH229774   4.367   2.016   8.302 -0.0355  0.6306  0.1807
 1860TIP3    H129775   4.310   2.041   8.375  0.6850 -1.6470  1.6279
 1860TIP3    H229776   4.452   1.997   8.343 -0.0801 -2.4366 -0.8899
 1861TIP3   OH229777   4.769   0.449   8.539 -0.0525 -0.2249  0.5963
 1861TIP3    H129778   4.845   0.474   8.485 -0.2397 -0.8351  0.0426
 1861TIP3    H229779   4.714   0.528   8.540  1.5912  1.0209  2.8523
 1862TIP3   OH229780   1.570   2.704   7.808  0.0885  0.2607 -0.3149
 1862TIP3    H129781   1.484   2.702   7.766  0.4154 -2.0338 -1.0396
 1862TIP3    H229782   1.551   2.713   7.901 -0.9928 -0.8304 -0.4100
 1863TIP3   OH229783   1.517   5.151   6.747  0.2750  0.5487  0.4660
 1863TIP3    H129784   1.611   5.145   6.729 -0.0795 -0.2183 -1.3803
 1863TIP3    H229785   1.487   5.060   6.749 -0.2763  0.7268  2.1961
 1864TIP3   OH229786   6.463   2.669   9.034  0.2608 -0.2692 -0.3718
 1864TIP3    H129787   6.469   2.724   9.112 -0.5159 -1.6105  0.6736
 1864TIP3    H229788   6.404   2.598   9.060 -0.8389 -0.2125 -2.5109
 1865TIP3   OH229789   5.036   5.426   7.476 -0.1542  0.1954  0.7224
 1865TIP3    H129790   4.966   5.491   7.465  0.3086  0.5342 -0.2556
 1865TIP3    H229791   5.061   5.434   7.568  0.5125  2.0620  0.4203
 1866TIP3   OH229792   2.500   5.740   7.642 -0.6652  0.1062 -0.9272
 1866TIP3    H129793   2.477   5.827   7.610 -2.1712 -0.1835 -0.7052
 1866TIP3    H229794   2.534   5.695   7.565 -2.4737  0.0321 -1.7496
 1867TIP3   OH229795   2.490   6.176   8.972 -0.2756 -0.2251 -0.1290
 1867TIP3    H129796   2.521   6.090   9.003 -1.0302 -1.6085 -2.8868
 1867TIP3    H229797   2.565   6.234   8.986  1.7977 -2.2696 -1.8126
 1868TIP3   OH229798   6.333   6.170   7.995 -0.3177  0.0309 -0.1313
 1868TIP3    H129799   6.387   6.096   8.022  0.1686  0.8744  1.3166
 1868TIP3    H229800   6.244   6.135   7.988 -0.2129 -0.5500  1.2198
 1869TIP3   OH229801   0.267   3.138   9.336 -0.2640 -0.9903  0.2319
 1869TIP3    H129802   0.198   3.102   9.281 -0.5821  0.9380 -0.6886
 1869TIP3    H229803   0.222   3.196   9.397  0.2468 -2.0073  1.6476
 1870TIP3   OH229804   1.856   4.242   7.084 -0.5228  0.0401  0.0147
 1870TIP3    H129805   1.826   4.238   6.994 -1.6134  0.3092  0.3484
 1870TIP3    H229806   1.775   4.251   7.136  0.0009 -1.0823  1.0810
 1871TIP3   OH229807   1.339   0.944   8.478  0.2184  0.1898 -0.0504
 1871TIP3    H129808   1.288   0.944   8.560  0.4063 -1.0952  0.0862
 1871TIP3    H229809   1.290   1.002   8.420  0.4571  1.7014  1.1803
 1872TIP3   OH229810   0.554   6.699   7.499  0.4325  0.1050  0.0220
 1872TIP3    H129811   0.518   6.781   7.464  1.3376  0.1555 -0.8161
 1872TIP3    H229812   0.495   6.631   7.467  1.2516  0.1468 -1.6431
 1873TIP3   OH229813   3.334   3.717   7.700  0.3213 -0.2805  0.5732
 1873TIP3    H129814   3.332   3.622   7.714 -3.3674 -0.1671  1.7158
 1873TIP3    H229815   3.259   3.735   7.643  2.0732  1.8264 -1.2653
 1874TIP3   OH229816   2.997   0.598   9.477  0.1663 -0.2292 -0.2156
 1874TIP3    H129817   3.068   0.600   9.413  2.1286 -0.4293  1.8065
 1874TIP3    H229818   3.035   0.638   9.556 -1.7348 -0.9995  1.1634
 1875TIP3   OH229819   1.291   3.973   8.541 -0.2599 -0.5653  0.7035
 1875TIP3    H129820   1.289   3.918   8.619 -0.6629  0.2214  1.2600
 1875TIP3    H229821   1.276   4.062   8.573 -0.5734 -0.2453 -0.2808
 1876TIP3   OH229822   7.491   7.141   8.783  0.1181 -0.0586 -0.3418
 1876TIP3    H129823   7.579   7.181   8.787 -0.0631  0.2591  0.7801
 1876TIP3    H229824   7.497   7.066   8.842 -0.1149 -0.5476 -0.9423
 1877TIP3   OH229825   1.145   1.435   8.455 -0.2829  0.2298  0.4204
 1877TIP3    H129826   1.221   1.378   8.447  0.3926  1.2088 -0.4594
 1877TIP3    H229827   1.158   1.501   8.387 -0.9675  1.5091  1.4946
 1878TIP3   OH229828   2.877   4.187   7.251 -0.1147 -0.6235 -0.0539
 1878TIP3    H129829   2.845   4.277   7.246 -1.0923 -1.0095 -1.3063
 1878TIP3    H229830   2.966   4.192   7.217 -0.5135 -0.2654 -1.1015
 1879TIP3   OH229831   1.726   6.773   6.949 -0.0600  0.0469 -0.1149
 1879TIP3    H129832   1.743   6.779   7.043  1.6834  0.3515 -0.4165
 1879TIP3    H229833   1.792   6.711   6.917  1.2656  2.0554 -1.5291
 1880TIP3   OH229834   7.282   0.204   9.119  0.3658  0.1165  0.5387
 1880TIP3    H129835   7.283   0.280   9.061 -0.9708 -1.1492 -1.2363
 1880TIP3    H229836   7.371   0.169   9.114  0.2638  0.0132 -0.7865
 1881TIP3   OH229837   1.894   1.548   8.717  0.3655 -0.5963  0.2780
 1881TIP3    H129838   1.923   1.491   8.646  0.9923 -0.7166  0.6254
 1881TIP3    H229839   1.923   1.504   8.797 -1.7434 -1.2758  0.7203
 1882TIP3   OH229840   6.360   5.343   8.676  0.0636 -0.4530 -0.3374
 1882TIP3    H129841   6.350   5.435   8.655  0.2297  0.3379  2.5721
 1882TIP3    H229842   6.454   5.330   8.685 -0.0455 -0.2417  1.5565
 1883TIP3   OH229843   7.000   5.251   7.485 -0.0816  0.1817  0.2409
 1883TIP3    H129844   6.990   5.330   7.538 -2.5581 -0.2488  0.5071
 1883TIP3    H229845   6.976   5.278   7.396 -2.3804 -0.5262  0.5905
 1884TIP3   OH229846   6.322   2.267   8.183  0.0129 -0.5209  0.0108
 1884TIP3    H129847   6.359   2.228   8.104 -2.2101 -3.6958  0.3559
 1884TIP3    H229848   6.392   2.324   8.216  1.5441 -0.1679 -3.3937
 1885TIP3   OH229849   0.312   0.404   8.369 -0.3171 -0.2411 -0.0666
 1885TIP3    H129850   0.249   0.465   8.329  0.4492  0.1235 -0.7721
 1885TIP3    H229851   0.281   0.392   8.458 -0.1658  1.6905  0.2919
 1886TIP3   OH229852   3.911   2.015   9.288 -0.7400  0.0775 -0.0125
 1886TIP3    H129853   3.943   1.932   9.254  0.2024 -0.3020  1.6937
 1886TIP3    H229854   3.819   2.019   9.261 -0.6867 -1.3280 -0.4563
 1887TIP3   OH229855   2.010   5.274   7.408  0.0553 -0.5937  0.0296
 1887TIP3    H129856   2.075   5.297   7.341 -0.7746  0.8632 -0.3183
 1887TIP3    H229857   1.926   5.274   7.361 -0.4044 -0.6619  0.8412
 1888TIP3   OH229858   2.842   4.366   8.034 -0.0745 -0.1654  0.5594
 1888TIP3    H129859   2.787   4.403   7.965 -0.3426  1.0012  1.3725
 1888TIP3    H229860   2.929   4.404   8.019  0.4565 -1.7231 -0.5055
 1889TIP3   OH229861   1.941   5.895   8.484  0.6824  0.3750  0.7298
 1889TIP3    H129862   1.984   5.845   8.415  0.2734  0.3850  0.4685
 1889TIP3    H229863   1.876   5.835   8.520  1.4662  0.0696  1.6854
 1890TIP3   OH229864   7.312   2.582   9.392  0.2478 -0.0428 -0.0225
 1890TIP3    H129865   7.217   2.569   9.401  0.2220  0.5799  0.7843
 1890TIP3    H229866   7.343   2.502   9.350 -0.2458 -1.5186  2.2125
 1891TIP3   OH229867   2.722   6.906   9.958 -0.1424  0.3647  0.2070
 1891TIP3    H129868   2.770   6.908   9.875 -0.5341  2.5045 -0.0188
 1891TIP3    H229869   2.670   6.826   9.953  1.1542 -0.4643 -0.8227
 1892TIP3   OH229870   5.155   1.462   6.997  0.0692  0.1667  0.8352
 1892TIP3    H129871   5.124   1.548   6.969 -0.5891  0.0797  1.2818
 1892TIP3    H229872   5.144   1.406   6.920 -0.8261  0.1533  0.9631
 1893TIP3   OH229873   4.782   1.719   8.636  0.1624  0.1058 -0.5840
 1893TIP3    H129874   4.850   1.787   8.631  0.8302 -0.6255 -1.5693
 1893TIP3    H229875   4.796   1.678   8.721  1.0215 -0.1119 -0.8295
 1894TIP3   OH229876   3.244   7.471   9.599  0.1623 -0.0634 -0.6146
 1894TIP3    H129877   3.216   7.419   9.523  1.6320 -1.8036 -0.0623
 1894TIP3    H229878   3.234   7.411   9.673  0.2718  1.0675  0.3282
 1895TIP3   OH229879   1.444   2.631   8.701 -0.0979 -0.4099 -0.2130
 1895TIP3    H129880   1.376   2.565   8.688 -1.1171 -0.3095  3.4605
 1895TIP3    H229881   1.512   2.586   8.751 -0.3958  0.9717  1.5449
 1896TIP3   OH229882   1.407   7.126   7.831  0.3192  0.5727 -0.2722
 1896TIP3    H129883   1.424   7.035   7.856 -0.6769  0.4705  0.0933
 1896TIP3    H229884   1.438   7.132   7.740 -1.2171 -0.6366 -0.9179
 1897TIP3   OH229885   3.789   4.229   7.662  0.0373 -0.3300 -0.3168
 1897TIP3    H129886   3.743   4.145   7.649 -0.2762 -0.1090 -0.6780
 1897TIP3    H229887   3.782   4.246   7.756  1.0704 -1.2531 -0.0535
 1898TIP3   OH229888   0.205   1.821   9.375  0.1567 -0.1558  0.4282
 1898TIP3    H129889   0.139   1.752   9.379 -0.9121  0.8314  0.5546
 1898TIP3    H229890   0.250   1.816   9.459  0.9699 -1.5033 -0.0610
 1899TIP3   OH229891   0.185   3.826   9.739  0.7699 -0.3651 -0.0973
 1899TIP3    H129892   0.168   3.914   9.773 -0.6143 -1.0300  1.0094
 1899TIP3    H229893   0.099   3.788   9.727  1.2676 -0.8362 -2.6745
 1900TIP3   OH229894   5.783   0.853   8.526 -0.6111  0.0417  0.6232
 1900TIP3    H129895   5.829   0.791   8.583 -0.4587  0.1767  0.6489
 1900TIP3    H229896   5.832   0.935   8.536 -1.1454  0.3201  1.0276
 1901TIP3   OH229897   2.780   1.415   9.519  0.6204  0.0223 -0.1575
 1901TIP3    H129898   2.717   1.456   9.460  0.8233  0.6610  0.0616
 1901TIP3    H229899   2.842   1.484   9.541  1.0952 -0.4577  0.0557
 1902TIP3   OH229900   7.119   3.074   7.856 -0.0330  0.3848 -0.5233
 1902TIP3    H129901   7.091   3.165   7.863  0.4407  0.5485 -0.6938
 1902TIP3    H229902   7.108   3.038   7.944 -0.2830  0.5869 -0.4713
 1903TIP3   OH229903   0.245   3.525   7.321  0.2977  0.2444  0.2425
 1903TIP3    H129904   0.300   3.447   7.333 -0.3107  0.0356  2.0912
 1903TIP3    H229905   0.164   3.505   7.369  0.2729  2.1263  1.0880
 1904TIP3   OH229906   4.166   2.387   9.419 -0.1813 -0.0962  0.1300
 1904TIP3    H129907   4.215   2.319   9.465  0.0754 -0.7466 -1.0586
 1904TIP3    H229908   4.077   2.352   9.414 -0.4891  0.5218  1.1915
 1905TIP3   OH229909   3.097   0.051   8.692  0.3824  0.3613  0.3562
 1905TIP3    H129910   3.025  -0.001   8.657 -0.2828 -0.1540  2.4081
 1905TIP3    H229911   3.109   0.020   8.781  1.1285  2.5437  1.0833
 1906TIP3   OH229912   2.322   6.850   6.699 -0.0046 -0.3877  0.7509
 1906TIP3    H129913   2.237   6.886   6.726  0.4271  0.0200  1.6221
 1906TIP3    H229914   2.317   6.757   6.720 -0.8986 -0.7488 -0.9243
 1907TIP3   OH229915   2.707   2.579   8.647  0.1060 -0.4234 -0.1525
 1907TIP3    H129916   2.766   2.593   8.720 -0.3032 -1.8490  0.5014
 1907TIP3    H229917   2.642   2.648   8.655  1.4990  1.0151 -0.7353
 1908TIP3   OH229918   5.906   2.663   8.777 -0.2747  0.2869 -0.0874
 1908TIP3    H129919   5.993   2.675   8.739 -1.3504  2.0140 -2.2751
 1908TIP3    H229920   5.921   2.645   8.869  2.3341  3.2743  0.2152
 1909TIP3   OH229921   4.699   6.328   9.753 -0.1818 -0.2916 -0.5420
 1909TIP3    H129922   4.765   6.268   9.788  0.1772 -1.1016 -2.4778
 1909TIP3    H229923   4.746   6.411   9.741 -0.2904 -0.0271  0.7608
 1910TIP3   OH229924   0.308   3.494   8.058 -0.0265  0.3724  0.0645
 1910TIP3    H129925   0.254   3.471   8.134 -0.0675 -0.1822 -0.1330
 1910TIP3    H229926   0.266   3.571   8.021 -0.8907 -0.2611 -0.2952
 1911TIP3   OH229927   6.113   7.126   8.351  0.0032  0.2935  0.4144
 1911TIP3    H129928   6.126   7.141   8.258 -0.3651  0.3784  0.3767
 1911TIP3    H229929   6.027   7.086   8.358  0.5364 -0.8423  0.6108
 1912TIP3   OH229930   5.060   3.670   8.321 -0.6953 -0.2594  0.2629
 1912TIP3    H129931   5.156   3.678   8.325 -0.5705 -0.0005 -1.9289
 1912TIP3    H229932   5.033   3.658   8.412  1.3212  0.8218  1.0756
 1913TIP3   OH229933   6.094   1.307   7.762 -0.1839  0.1973  0.2074
 1913TIP3    H129934   6.189   1.308   7.773 -0.3116  0.8639  1.4298
 1913TIP3    H229935   6.064   1.237   7.820 -0.4219 -0.4030 -0.6053
 1914TIP3   OH229936   3.079   0.527   9.032  0.0650  0.1514 -0.7368
 1914TIP3    H129937   3.023   0.452   9.051  0.8032  0.0074  1.1808
 1914TIP3    H229938   3.128   0.541   9.114  0.7254  2.0482 -1.4024
 1915TIP3   OH229939   6.035   7.014   6.962  0.0262 -0.2354  0.3778
 1915TIP3    H129940   6.099   7.021   7.033 -0.2585  2.2367  0.4692
 1915TIP3    H229941   6.061   7.079   6.898  0.1251 -2.2425 -1.7791
 1916TIP3   OH229942   7.291   3.717   7.251 -0.1126  0.0222 -0.5523
 1916TIP3    H129943   7.212   3.692   7.298  0.1386 -0.2414 -0.2658
 1916TIP3    H229944   7.262   3.731   7.161 -0.6849  0.9538 -0.2412
 1917TIP3   OH229945   6.406   2.590   6.676 -0.3421  0.2378  0.2314
 1917TIP3    H129946   6.353   2.526   6.629  1.1629 -1.0103  0.1300
 1917TIP3    H229947   6.398   2.565   6.768  1.1280 -0.8666  0.1015
 1918TIP3   OH229948   0.938   1.778   6.682  0.0952 -0.0896  0.0672
 1918TIP3    H129949   0.984   1.839   6.624  1.5340  0.1882  1.4394
 1918TIP3    H229950   0.979   1.694   6.666 -0.7793 -0.3880 -0.6458
 1919TIP3   OH229951   1.167   3.413   9.573 -0.2942  0.1356  0.3342
 1919TIP3    H129952   1.125   3.388   9.656  0.4251  0.6300  0.8529
 1919TIP3    H229953   1.229   3.481   9.597  0.8397 -0.6056 -0.4136
 1920TIP3   OH229954   4.735   1.048   8.704  0.4757  0.3714  0.1471
 1920TIP3    H129955   4.782   1.125   8.673 -1.1825  1.2953 -0.2020
 1920TIP3    H229956   4.676   1.082   8.771 -1.5523 -0.2390 -1.2333
 1921TIP3   OH229957   1.074   3.112   9.296 -0.3018 -0.5581  0.6666
 1921TIP3    H129958   1.028   3.092   9.214  0.2951 -0.5596  0.3289
 1921TIP3    H229959   1.072   3.030   9.345  0.0745 -0.7988  0.2888
 1922TIP3   OH229960   4.330   4.075   8.524 -0.1699  0.6516  0.5288
 1922TIP3    H129961   4.274   4.032   8.459 -0.0524  1.2679  0.0043
 1922TIP3    H229962   4.324   4.020   8.602 -0.7716  0.2095  0.1764
 1923TIP3   OH229963   5.968   3.788   8.756 -0.2109  0.3427  0.5036
 1923TIP3    H129964   5.877   3.770   8.730 -0.2036 -0.2837  0.9120
 1923TIP3    H229965   5.995   3.711   8.806 -0.4447  1.7665  2.9789
 1924TIP3   OH229966   0.023   6.320   8.723  0.4971 -0.0065 -0.7150
 1924TIP3    H129967   0.050   6.394   8.778  1.8063 -0.1449 -1.1286
 1924TIP3    H229968   0.046   6.243   8.774 -0.6498 -0.1476 -0.3864
 1925TIP3   OH229969   0.520   1.934   8.937 -0.1091  0.3845  0.1343
 1925TIP3    H129970   0.594   1.918   8.995 -0.8392 -0.7958  0.7665
 1925TIP3    H229971   0.525   2.027   8.916  0.8272  0.5729  1.1648
 1926TIP3   OH229972   5.280   1.339   8.096 -0.6501 -0.3206 -0.3378
 1926TIP3    H129973   5.370   1.363   8.115 -0.7739  0.6074 -0.9018
 1926TIP3    H229974   5.260   1.270   8.159 -0.2685  1.0027  1.2822
 1927TIP3   OH229975   7.301   1.446   8.543 -0.0948  0.2094  0.3373
 1927TIP3    H129976   7.390   1.436   8.575  0.6551  0.9294 -1.3939
 1927TIP3    H229977   7.294   1.384   8.470 -0.6933  0.8336 -0.1487
 1928TIP3   OH229978   5.981   5.654   7.538  0.1467 -0.3784 -0.1549
 1928TIP3    H129979   5.899   5.703   7.534 -0.4330 -1.3319 -4.4352
 1928TIP3    H229980   5.955   5.564   7.554  0.6872 -0.2987  1.3619
 1929TIP3   OH229981   1.601   2.825   9.015 -0.3350 -0.0243 -0.2239
 1929TIP3    H129982   1.694   2.801   9.021  0.0980  1.4233 -0.7055
 1929TIP3    H229983   1.557   2.743   8.993  0.8806 -0.6580 -0.4319
 1930TIP3   OH229984   0.748   2.165   8.648 -0.7377  0.2091 -0.0803
 1930TIP3    H129985   0.726   2.239   8.704 -2.2114 -0.0830 -0.2270
 1930TIP3    H229986   0.670   2.110   8.648 -0.4450 -0.2859 -1.6683
 1931TIP3   OH229987   6.510   2.735   7.526 -0.2439 -0.2403 -0.3224
 1931TIP3    H129988   6.471   2.735   7.438 -0.0678  0.8956 -0.4071
 1931TIP3    H229989   6.450   2.682   7.578 -0.7536 -0.3053 -0.9530
 1932TIP3   OH229990   0.876   3.442   6.973 -0.8168 -0.2668 -0.1623
 1932TIP3    H129991   0.898   3.536   6.969 -1.8034  0.0163  0.6076
 1932TIP3    H229992   0.938   3.401   6.914  0.3928  0.7430  0.3507
 1933TIP3   OH229993   1.419   2.067   8.008 -0.0342  0.5661  0.1142
 1933TIP3    H129994   1.409   2.031   7.920  0.7621 -0.6867  0.5024
 1933TIP3    H229995   1.367   2.147   8.007  0.7931  1.1542 -1.8215
 1934TIP3   OH229996   1.536   5.181   9.629 -0.2236  0.0042 -0.4473
 1934TIP3    H129997   1.584   5.169   9.711 -2.1333 -1.2325  0.5698
 1934TIP3    H229998   1.604   5.187   9.562  1.3808 -2.3257  0.8124
 1935TIP3   OH229999   1.577   4.821   8.551  0.1672 -0.0869 -0.2372
 1935TIP3    H130000   1.549   4.899   8.598  0.8720  1.0523 -1.6504
 1935TIP3    H230001   1.668   4.807   8.580 -0.3638 -1.2077  1.0157
 1936TIP3   OH230002   3.532   3.607   9.690 -0.3671  0.3122  0.2801
 1936TIP3    H130003   3.617   3.613   9.734  1.0712  1.0555 -2.3509
 1936TIP3    H230004   3.515   3.513   9.685 -0.2862  0.1848  1.7878
 1937TIP3   OH230005   1.056   0.160   7.631  0.8181  0.0766  0.0353
 1937TIP3    H130006   1.023   0.108   7.704  0.4825 -0.0369 -0.1953
 1937TIP3    H230007   1.068   0.097   7.560 -1.5703  0.5933 -0.9184
 1938TIP3   OH230008   2.914   3.203   7.838  0.1009  0.0177 -0.5978
 1938TIP3    H130009   2.925   3.114   7.870  2.3044  0.1722 -0.7552
 1938TIP3    H230010   3.000   3.243   7.849 -0.0946  1.2974 -2.9969
 1939TIP3   OH230011   7.439   0.627   7.959 -0.2165 -0.0890 -0.4583
 1939TIP3    H130012   7.424   0.697   8.022 -0.2732 -1.0219  0.6002
 1939TIP3    H230013   7.437   0.670   7.874  0.2530  1.2685  0.1915
 1940TIP3   OH230014   5.818   6.337   7.834 -0.1925 -0.0029 -0.4147
 1940TIP3    H130015   5.896   6.389   7.852  0.5309 -1.5581  1.2347
 1940TIP3    H230016   5.812   6.335   7.739  1.3734  0.7327 -0.5584
 1941TIP3   OH230017   5.992   1.551   7.749 -0.3165 -0.5378 -0.0393
 1941TIP3    H130018   5.909   1.548   7.797 -0.7809 -1.1868 -0.8437
 1941TIP3    H230019   6.031   1.464   7.761 -0.4387 -0.7113 -0.8051
 1942TIP3   OH230020   6.000   2.024   8.280  0.4683 -0.1332  0.4984
 1942TIP3    H130021   5.908   1.996   8.285  0.1640  0.9501  1.3416
 1942TIP3    H230022   6.047   1.963   8.337  0.3299 -0.8620 -0.1485
 1943TIP3   OH230023   0.979   1.800   8.098  0.1070  0.0709  0.7006
 1943TIP3    H130024   0.939   1.867   8.153  0.8750 -0.3429  1.7883
 1943TIP3    H230025   0.966   1.832   8.008 -0.4675  1.1401  1.1442
 1944TIP3   OH230026   2.234   1.443   7.598 -0.2447 -0.7952  0.4608
 1944TIP3    H130027   2.274   1.444   7.511 -0.4021 -0.6292  0.3912
 1944TIP3    H230028   2.275   1.516   7.645 -0.3234 -0.7475  0.4543
 1945TIP3   OH230029   1.372   0.148   8.192  0.3667 -0.2632  0.0502
 1945TIP3    H130030   1.425   0.096   8.251  0.2914 -0.2162  0.1581
 1945TIP3    H230031   1.418   0.143   8.108  0.7183  0.0474  0.2203
 1946TIP3   OH230032   4.083   1.675   7.444 -0.4862 -0.0583  0.1664
 1946TIP3    H130033   4.152   1.610   7.433  1.9868  2.1143  1.6645
 1946TIP3    H230034   4.004   1.623   7.460  0.5118 -2.6702 -2.5201
 1947TIP3   OH230035   1.555   5.327   7.983 -0.3165 -0.3809 -0.0577
 1947TIP3    H130036   1.608   5.291   8.054 -1.3238 -0.7826  0.5056
 1947TIP3    H230037   1.601   5.301   7.903 -0.2243 -1.6126  0.3840
 1948TIP3   OH230038   3.035   5.677   9.349  0.2643  0.0680 -0.1167
 1948TIP3    H130039   3.092   5.745   9.312  0.4164  0.1967  0.3546
 1948TIP3    H230040   2.983   5.722   9.415 -2.4020  0.6164 -2.3955
 1949TIP3   OH230041   6.458   5.085   9.918 -0.0122 -0.1508  0.0346
 1949TIP3    H130042   6.465   5.007   9.863  4.0632 -0.8947  1.2437
 1949TIP3    H230043   6.456   5.052  10.007  0.4184  1.0986  0.5372
 1950TIP3   OH230044   0.969   0.083   8.788  0.2860 -0.0711  0.1456
 1950TIP3    H130045   1.020   0.008   8.818  3.2367  1.1694 -1.3955
 1950TIP3    H230046   0.926   0.053   8.708  2.9994  0.2647 -1.5672
 1951TIP3   OH230047   3.797   4.735   8.686 -0.6122  0.1134 -0.1952
 1951TIP3    H130048   3.865   4.772   8.743 -0.4846  0.3514 -0.4942
 1951TIP3    H230049   3.720   4.727   8.742 -0.3740 -0.0324  0.1131
 1952TIP3   OH230050   5.811   0.313   7.543  0.0395  0.3790  0.3249
 1952TIP3    H130051   5.790   0.378   7.476 -1.1073 -0.3171 -0.0363
 1952TIP3    H230052   5.905   0.297   7.533 -0.2682 -0.4651 -1.8709
 1953TIP3   OH230053   2.629   6.828   7.573 -0.0315  0.1269 -0.2610
 1953TIP3    H130054   2.634   6.856   7.664  1.6221  0.9065 -0.5559
 1953TIP3    H230055   2.645   6.734   7.576 -0.4755  0.0652  0.2882
 1954TIP3   OH230056   6.410   1.824   8.357  0.4933  0.8656 -0.3865
 1954TIP3    H130057   6.352   1.751   8.381  0.1396  1.2533 -0.0503
 1954TIP3    H230058   6.483   1.782   8.311  0.3567  0.2885 -0.0875
 1955TIP3   OH230059   2.200   3.308   8.848 -0.3016 -0.5016  0.3136
 1955TIP3    H130060   2.192   3.344   8.936 -1.2249 -0.1140  0.0895
 1955TIP3    H230061   2.210   3.214   8.861 -0.9251 -0.5020  0.8234
 1956TIP3   OH230062   1.184   5.336   7.653 -0.1602 -0.0580 -0.3977
 1956TIP3    H130063   1.181   5.431   7.638  2.5040  0.3589  1.0993
 1956TIP3    H230064   1.193   5.327   7.748  0.0730 -1.8173 -0.5530
 1957TIP3   OH230065   2.967   3.128   7.340  0.6787  0.4471 -0.1475
 1957TIP3    H130066   2.873   3.111   7.349  0.7232  0.5428  0.5344
 1957TIP3    H230067   3.009   3.061   7.394  0.9667  0.9479  0.2522
 1958TIP3   OH230068   5.393   6.996   7.550  0.3210 -0.4990  0.3451
 1958TIP3    H130069   5.447   7.056   7.498  0.0272 -1.3081 -0.9252
 1958TIP3    H230070   5.353   7.052   7.616  1.2767  0.4293  0.1740
 1959TIP3   OH230071   6.203   1.774   8.758 -0.1009  0.1998  0.6538
 1959TIP3    H130072   6.296   1.772   8.780  0.3269 -1.4009 -1.0525
 1959TIP3    H230073   6.158   1.781   8.843  1.5395  0.3304  1.5451
 1960TIP3   OH230074   1.774   3.437   9.314 -0.4623  0.2081  0.2599
 1960TIP3    H130075   1.758   3.347   9.286 -1.2776  0.8827 -1.6670
 1960TIP3    H230076   1.817   3.478   9.238 -0.7192  1.5977  0.8346
 1961TIP3   OH230077   7.294   2.228   8.355 -0.2647  0.3077 -0.5023
 1961TIP3    H130078   7.288   2.213   8.260 -1.3354 -2.9343 -0.0679
 1961TIP3    H230079   7.206   2.207   8.388  0.5892 -0.5803  1.3663
 1962TIP3   OH230080   3.090   5.697   8.429  0.2314 -0.6374  0.0933
 1962TIP3    H130081   3.142   5.756   8.483 -0.0361 -0.1909 -0.1284
 1962TIP3    H230082   3.009   5.684   8.478  0.6421 -1.5286  0.5547
 1963TIP3   OH230083   1.857   0.860   9.576 -0.5878  0.3871 -0.1054
 1963TIP3    H130084   1.860   0.881   9.669 -1.2548 -1.3996  0.3534
 1963TIP3    H230085   1.948   0.865   9.547  0.6162 -4.2509  1.9649
 1964TIP3   OH230086   6.692   5.790   8.197  0.0286 -0.2473  0.1165
 1964TIP3    H130087   6.651   5.721   8.145 -0.7499  0.0451  0.3288
 1964TIP3    H230088   6.785   5.787   8.172 -0.0444 -1.1805 -0.0783
 1965TIP3   OH230089   3.784   0.502   8.270  0.0179 -0.5735  0.2270
 1965TIP3    H130090   3.757   0.436   8.334 -0.8143  0.8287  1.3575
 1965TIP3    H230091   3.753   0.467   8.186 -0.0182 -1.8199  0.7346
 1966TIP3   OH230092   1.257   5.089   8.062  0.3781 -0.1215 -0.7150
 1966TIP3    H130093   1.266   4.996   8.084 -0.1404  0.0438  0.2268
 1966TIP3    H230094   1.240   5.132   8.146 -0.9792  0.6162 -1.3438
 1967TIP3   OH230095   1.441   0.017   7.718 -0.3349 -0.3900  0.1056
 1967TIP3    H130096   1.372  -0.049   7.724 -0.2993 -0.3236  2.1315
 1967TIP3    H230097   1.470   0.014   7.627 -1.9355 -1.5067 -0.4159
 1968TIP3   OH230098   1.533   5.181   7.057 -0.1782  0.4230 -0.4010
 1968TIP3    H130099   1.480   5.186   6.977  1.4423  1.4503 -1.4520
 1968TIP3    H230100   1.577   5.096   7.052 -1.8960 -0.6096  0.6635
 1969TIP3   OH230101   4.614   3.231   7.297 -0.6553  0.4822 -0.2500
 1969TIP3    H130102   4.547   3.208   7.362 -1.6731  1.4156 -0.9296
 1969TIP3    H230103   4.638   3.321   7.318 -0.1089  0.3861 -0.4391
 1970TIP3   OH230104   5.244   3.779   7.879  0.6460 -0.1231 -0.1337
 1970TIP3    H130105   5.215   3.870   7.878  1.3039  0.0965  0.5508
 1970TIP3    H230106   5.179   3.734   7.932  0.7674  0.1012  0.2063
 1971TIP3   OH230107   5.461   6.854   7.916 -0.8238 -0.0235 -0.4965
 1971TIP3    H130108   5.377   6.892   7.944  0.1235  1.5975  0.3563
 1971TIP3    H230109   5.477   6.783   7.978 -1.2332  0.1392 -0.1951
 1972TIP3   OH230110   7.471   4.241   9.631 -0.3108  0.0597 -0.1341
 1972TIP3    H130111   7.555   4.199   9.651  0.0496  0.3583 -0.9739
 1972TIP3    H230112   7.419   4.172   9.590  0.6819  0.6580 -2.5571
 1973TIP3   OH230113   3.443   2.167   9.076  0.0079 -0.3773  0.4084
 1973TIP3    H130114   3.379   2.197   9.011 -0.2881  0.8772  1.2400
 1973TIP3    H230115   3.472   2.247   9.119 -0.1357 -1.2067  2.1243
 1974TIP3   OH230116   5.704   3.770   7.896 -0.4547 -0.1653 -0.1611
 1974TIP3    H130117   5.688   3.833   7.826 -1.9902  1.9750  1.9721
 1974TIP3    H230118   5.799   3.758   7.896 -0.3585  0.2740 -2.1415
 1975TIP3   OH230119   2.999   5.283   9.327  0.1310 -0.0331 -0.2403
 1975TIP3    H130120   3.050   5.321   9.399  0.4898  0.7153 -0.8754
 1975TIP3    H230121   3.032   5.326   9.249 -1.9300  1.0081 -0.6172
 1976TIP3   OH230122   6.038   4.588   9.446  0.1209  0.1615  0.5528
 1976TIP3    H130123   6.088   4.664   9.418 -1.9731  1.4591  0.1118
 1976TIP3    H230124   6.062   4.519   9.385 -0.9744  1.6654 -1.7415
 1977TIP3   OH230125   4.237   0.781   9.593  0.2316  0.3825 -0.2687
 1977TIP3    H130126   4.299   0.845   9.630  1.8591 -1.3986  0.2684
 1977TIP3    H230127   4.293   0.710   9.560 -1.4709 -2.9255  3.1727
 1978TIP3   OH230128   4.809   3.537   9.106 -0.2236  0.2744 -0.3620
 1978TIP3    H130129   4.729   3.488   9.088 -0.0434 -0.1171 -0.1016
 1978TIP3    H230130   4.851   3.546   9.020 -0.2891  0.0274 -0.4211
 1979TIP3   OH230131   1.207   4.259   6.845  0.1744  0.0044 -0.2088
 1979TIP3    H130132   1.270   4.329   6.861  1.4767 -1.0608 -0.5911
 1979TIP3    H230133   1.257   4.178   6.852 -1.1569 -0.8815 -0.4769
 1980TIP3   OH230134   1.354   5.663   8.504 -0.2147  0.1103  0.3130
 1980TIP3    H130135   1.443   5.632   8.486  0.3249  2.9667 -3.2646
 1980TIP3    H230136   1.297   5.606   8.453  0.0928  0.8529 -0.9056
 1981TIP3   OH230137   3.153   1.762   9.334 -0.4045  0.0688  0.4360
 1981TIP3    H130138   3.119   1.850   9.352  3.0835  1.4772  0.9632
 1981TIP3    H230139   3.139   1.749   9.241 -1.0352  1.1687  0.3621
 1982TIP3   OH230140   6.617   3.089   8.765 -0.4996  0.2923  0.4704
 1982TIP3    H130141   6.635   3.079   8.859 -1.1639 -0.9126  0.4855
 1982TIP3    H230142   6.547   3.026   8.747  0.9696 -0.9547 -1.2343
 1983TIP3   OH230143   3.251   6.472   9.609  0.7466  0.0613 -0.6820
 1983TIP3    H130144   3.196   6.536   9.653  1.6357 -0.1693  0.8358
 1983TIP3    H230145   3.308   6.523   9.551 -1.6469  0.2393 -3.0887
 1984TIP3   OH230146   0.338   7.299   7.447 -0.4997  0.5857  0.6238
 1984TIP3    H130147   0.293   7.253   7.377 -0.8270  0.9907  0.5597
 1984TIP3    H230148   0.272   7.359   7.482 -0.7231 -0.4537  2.0843
 1985TIP3   OH230149   5.737   1.983   8.766  0.2347  0.0681 -0.2045
 1985TIP3    H130150   5.806   2.047   8.752 -0.1126  0.1103 -1.8780
 1985TIP3    H230151   5.704   2.003   8.854  1.0301  1.3061 -0.1579
 1986TIP3   OH230152   5.760   2.051   8.012 -0.4293  0.0532 -0.1789
 1986TIP3    H130153   5.846   2.092   8.010  0.6646 -1.9535  1.5068
 1986TIP3    H230154   5.773   1.965   7.971 -2.1153  0.4480 -1.6511
 1987TIP3   OH230155   0.130   1.697   9.676  0.5622 -0.5186 -0.0420
 1987TIP3    H130156   0.126   1.605   9.648 -1.3359 -1.4017  2.6287
 1987TIP3    H230157   0.040   1.727   9.673  1.1269  1.2144 -0.6309
 1988TIP3   OH230158   3.237   7.316   7.402 -0.4813 -0.8257 -0.1735
 1988TIP3    H130159   3.230   7.257   7.478 -1.8455 -1.1357 -0.4969
 1988TIP3    H230160   3.329   7.340   7.398 -0.2553 -1.3820  1.1513
 1989TIP3   OH230161   7.348   3.238   7.912 -0.1907 -0.3537  0.6238
 1989TIP3    H130162   7.435   3.231   7.873 -0.2500 -0.9848  0.6001
 1989TIP3    H230163   7.361   3.219   8.005 -0.0501  1.1358  0.9411
 1990TIP3   OH230164   4.702   2.756   8.988 -0.1725 -0.0804 -0.0905
 1990TIP3    H130165   4.656   2.824   9.037  1.0590 -0.9695  2.4670
 1990TIP3    H230166   4.636   2.689   8.971 -1.1955  1.2911 -1.9120
 1991TIP3   OH230167   7.134   3.436   7.234  0.5206  0.0827 -0.2155
 1991TIP3    H130168   7.209   3.474   7.188  0.6507 -0.7798 -0.7481
 1991TIP3    H230169   7.155   3.342   7.239  0.4086  0.1167  1.4223
 1992TIP3   OH230170   3.439   6.729   9.681 -0.5463 -0.4292 -0.2413
 1992TIP3    H130171   3.478   6.656   9.729 -0.5871 -0.9051 -0.9174
 1992TIP3    H230172   3.451   6.707   9.589 -1.2434  0.0503 -0.4592
 1993TIP3   OH230173   0.815   3.932   9.145 -0.4325  0.3586  0.0721
 1993TIP3    H130174   0.902   3.908   9.113 -0.7697 -2.6028  1.0436
 1993TIP3    H230175   0.771   3.971   9.069  1.9068  2.6800 -0.2188
 1994TIP3   OH230176   5.705   1.803   9.169  0.7099  0.2588  0.2895
 1994TIP3    H130177   5.623   1.807   9.219  1.7927  1.7091  2.1003
 1994TIP3    H230178   5.731   1.711   9.174 -0.6286 -0.1705 -0.0630
 1995TIP3   OH230179   2.054   6.666   7.369 -0.4809  0.1885  0.1668
 1995TIP3    H130180   2.033   6.626   7.453 -0.9741  2.4852  1.2399
 1995TIP3    H230181   2.149   6.677   7.370 -0.3464 -0.8848 -0.1293
 1996TIP3   OH230182   4.766   5.633   7.896 -0.1361 -0.5934 -0.0446
 1996TIP3    H130183   4.753   5.716   7.852 -1.5547 -0.5265  0.4586
 1996TIP3    H230184   4.820   5.654   7.972  0.5529 -0.3537 -0.5959
 1997TIP3   OH230185   5.364   1.444   8.867 -0.1923 -0.8107  0.3258
 1997TIP3    H130186   5.354   1.357   8.905  1.6731 -0.8191  0.9097
 1997TIP3    H230187   5.457   1.463   8.875 -0.1833  0.3675 -1.7434
 1998TIP3   OH230188   6.815   4.515   8.776  0.4811  0.1642  0.1353
 1998TIP3    H130189   6.811   4.575   8.702  1.1075 -0.6711 -0.5924
 1998TIP3    H230190   6.898   4.468   8.766 -0.8110 -2.1751 -0.4090
 1999TIP3   OH230191   0.872   3.380   7.896 -1.0057  0.2831 -0.5627
 1999TIP3    H130192   0.815   3.369   7.973  2.3750 -1.9615  1.9313
 1999TIP3    H230193   0.827   3.334   7.826 -1.4692 -3.4900  1.8763
 2000TIP3   OH230194   2.305   2.244   9.554  0.3275 -0.1848  0.3386
 2000TIP3    H130195   2.233   2.193   9.518 -0.5587  1.1727  0.0980
 2000TIP3    H230196   2.264   2.323   9.589  1.9186  2.2667 -2.7386
 2001TIP3   OH230197   0.399   4.460   7.448 -0.0805 -0.0102 -0.3497
 2001TIP3    H130198   0.395   4.406   7.526  0.1071 -0.0070 -0.3389
 2001TIP3    H230199   0.359   4.406   7.379  0.4457 -0.3117 -0.4263
 2002TIP3   OH230200   1.738   2.598   9.275  0.1001  0.1027  0.5955
 2002TIP3    H130201   1.788   2.669   9.316  0.2405  1.0551 -1.1182
 2002TIP3    H230202   1.648   2.630   9.274  0.2214  0.4555 -0.5187
 2003TIP3   OH230203   5.773   3.641   7.002 -0.5238  0.0144 -0.3680
 2003TIP3    H130204   5.678   3.634   7.000 -0.6146  0.1576  1.6109
 2003TIP3    H230205   5.804   3.550   7.004 -0.6764 -0.0292  0.1469
 2004TIP3   OH230206   0.404   3.316   7.319  0.1630  0.2863  0.2903
 2004TIP3    H130207   0.391   3.280   7.407 -0.6852  0.3673  0.2071
 2004TIP3    H230208   0.497   3.302   7.300  0.5061  0.8838  1.4683
 2005TIP3   OH230209   5.414   0.347   7.909 -0.3716  0.6132 -0.4574
 2005TIP3    H130210   5.360   0.421   7.883 -0.3028  1.0070  0.4883
 2005TIP3    H230211   5.504   0.380   7.904 -0.2174  0.0782 -1.6464
 2006TIP3   OH230212   2.591   1.179   7.607  0.0756 -0.6540 -0.4253
 2006TIP3    H130213   2.662   1.119   7.634  0.9810  0.5743  0.0159
 2006TIP3    H230214   2.587   1.169   7.512  0.8184 -0.7736 -0.4555
 2007TIP3   OH230215   2.932   4.033   8.735  0.2364  0.4464  0.5045
 2007TIP3    H130216   2.907   3.941   8.726  1.1363  0.0573  1.7531
 2007TIP3    H230217   2.932   4.067   8.645 -1.1137 -0.4848  0.1214
 2008TIP3   OH230218   2.648   6.386   6.548 -0.8256  0.0088  0.4362
 2008TIP3    H130219   2.606   6.404   6.632  0.2989 -1.5321  1.3763
 2008TIP3    H230220   2.741   6.403   6.563 -0.8417  1.9096 -1.1758
 2009TIP3   OH230221   6.268   1.430   7.073 -0.2322  0.1262 -0.7004
 2009TIP3    H130222   6.177   1.442   7.099 -0.2285 -0.6205 -0.3236
 2009TIP3    H230223   6.268   1.443   6.978 -0.9462 -1.0168 -0.8741
 2010TIP3   OH230224   1.554   4.438   8.113  0.1187 -0.5006 -0.0182
 2010TIP3    H130225   1.596   4.438   8.027  0.7754  2.1097  0.2201
 2010TIP3    H230226   1.625   4.459   8.174 -0.8109  0.2207  0.8409
 2011TIP3   OH230227   3.989   2.853   7.689  0.4656 -0.0443 -0.3675
 2011TIP3    H130228   3.996   2.816   7.777 -1.0992 -2.4971 -1.1410
 2011TIP3    H230229   4.067   2.823   7.643  0.7247  0.2628 -0.1260
 2012TIP3   OH230230   3.637   7.017   8.462  0.0632  0.5022  0.1968
 2012TIP3    H130231   3.730   7.031   8.477  0.6569 -0.9370 -1.6530
 2012TIP3    H230232   3.604   7.103   8.435  1.5542  0.4905 -2.0159
 2013TIP3   OH230233   4.335   2.154   9.573 -0.0004 -0.6822  0.3920
 2013TIP3    H130234   4.256   2.103   9.556 -0.8233  0.8937 -0.8108
 2013TIP3    H230235   4.323   2.187   9.662  0.4145 -2.2798  1.0811
 2014TIP3   OH230236   4.935   0.777   8.477 -0.0697 -0.9289 -0.4577
 2014TIP3    H130237   4.992   0.802   8.549 -1.0524  0.4758 -0.1221
 2014TIP3    H230238   4.965   0.690   8.452  1.8327 -0.4680  0.0590
 2015TIP3   OH230239   2.745   1.744   8.695 -0.0087 -0.2913  0.3252
 2015TIP3    H130240   2.809   1.768   8.763 -1.3701  0.6385  1.3429
 2015TIP3    H230241   2.731   1.826   8.647 -1.6400 -0.0041  1.1977
 2016TIP3   OH230242   6.096   2.626   9.288 -0.0963 -0.4623 -0.4613
 2016TIP3    H130243   6.068   2.541   9.320  0.4436 -0.4048  0.1918
 2016TIP3    H230244   6.029   2.687   9.320 -0.3921 -0.6187 -0.7839
 2017TIP3   OH230245   1.004   4.685   7.147 -0.3382  0.2726  0.7100
 2017TIP3    H130246   0.962   4.627   7.084 -1.1580 -0.3263  1.7496
 2017TIP3    H230247   0.956   4.768   7.139  0.3084  0.5750 -0.2164
 2018TIP3   OH230248   6.830   0.227   8.856 -0.0318  0.2213 -0.0637
 2018TIP3    H130249   6.750   0.262   8.895  0.3302  1.5561 -0.4883
 2018TIP3    H230250   6.891   0.300   8.856  1.2298 -0.7929  0.3089
 2019TIP3   OH230251   6.553   3.654   7.844 -0.4744 -0.1011  0.4079
 2019TIP3    H130252   6.518   3.578   7.799  2.4462 -0.6065 -1.2777
 2019TIP3    H230253   6.609   3.618   7.913 -0.4324  0.5628  0.7361
 2020TIP3   OH230254   2.877   0.958   7.412  0.0221  0.0677  0.0759
 2020TIP3    H130255   2.814   0.993   7.349 -0.0838  0.0261  0.1570
 2020TIP3    H230256   2.963   0.977   7.374 -0.0417 -0.0514 -0.1318
 2021TIP3   OH230257   4.827   6.561   9.687 -0.0758  0.2405 -0.2194
 2021TIP3    H130258   4.875   6.628   9.736  0.6138 -1.0597  0.9668
 2021TIP3    H230259   4.881   6.546   9.609 -0.1604  0.9475 -0.4201
 2022TIP3   OH230260   0.644   6.206   6.874  0.3308 -0.2802 -0.6798
 2022TIP3    H130261   0.732   6.238   6.858  0.5786 -0.8203 -0.4214
 2022TIP3    H230262   0.590   6.285   6.877  0.8716  0.0873 -0.4114
 2023TIP3   OH230263   6.897   6.144   7.517  0.2654 -0.5096 -0.0004
 2023TIP3    H130264   6.966   6.206   7.494  0.2028  0.2662  1.7325
 2023TIP3    H230265   6.892   6.148   7.612 -2.6626  0.0176 -0.0841
 2024TIP3   OH230266   1.840   4.873   8.344  0.1082  0.7415 -0.4403
 2024TIP3    H130267   1.856   4.961   8.376  1.3535  0.1134  0.7730
 2024TIP3    H230268   1.793   4.830   8.415  0.2067  0.2067 -0.6917
 2025TIP3   OH230269   5.569   3.551   8.868  0.3904 -0.2611  0.4035
 2025TIP3    H130270   5.574   3.626   8.927  1.2124  0.0076  0.0118
 2025TIP3    H230271   5.648   3.501   8.887  0.8990  0.0596 -0.7540
 2026TIP3   OH230272   0.146   1.385   9.086  0.0972 -0.3869  0.2796
 2026TIP3    H130273   0.137   1.439   9.164  0.9934 -0.3664  0.3862
 2026TIP3    H230274   0.226   1.418   9.044 -0.5209 -0.2114 -0.7933
 2027TIP3   OH230275   2.725   3.539   7.531  0.0436  0.2683  0.0045
 2027TIP3    H130276   2.772   3.484   7.593 -0.3512 -1.1642 -0.8939
 2027TIP3    H230277   2.719   3.485   7.451  0.7036  2.0953 -1.3529
 2028TIP3   OH230278   0.424   1.018   9.202 -0.0545  0.5060 -0.3135
 2028TIP3    H130279   0.482   0.967   9.259 -1.8420  0.2655  1.3967
 2028TIP3    H230280   0.405   1.098   9.251 -3.8521 -0.9020  0.9057
 2029TIP3   OH230281   2.063   6.683   6.796  0.2150  0.0009  0.0009
 2029TIP3    H130282   2.067   6.778   6.806 -0.0018  0.2194 -1.6714
 2029TIP3    H230283   2.144   6.651   6.835  0.1040  0.8216  0.9446
 2030TIP3   OH230284   6.935   1.090   7.236  0.6325 -0.4207 -0.9614
 2030TIP3    H130285   6.905   1.075   7.146 -0.8951 -2.6802 -0.1932
 2030TIP3    H230286   7.022   1.127   7.227  0.6385 -0.8681 -3.3866
 2031TIP3   OH230287   7.264   3.392   8.340  0.1349  0.1818  0.5695
 2031TIP3    H130288   7.184   3.444   8.338  0.5254  0.7854 -0.9195
 2031TIP3    H230289   7.234   3.301   8.336 -0.4978  0.3896  0.5563
 2032TIP3   OH230290   1.927   0.581   6.997  0.0403  0.3662  0.0924
 2032TIP3    H130291   1.997   0.647   6.993  0.3433  0.1229  1.0002
 2032TIP3    H230292   1.854   0.620   6.950  0.4817  1.0179 -0.0642
 2033TIP3   OH230293   1.199   6.942   9.125 -0.0837  0.2123 -0.1102
 2033TIP3    H130294   1.253   6.991   9.064  0.1203  0.4436  0.2498
 2033TIP3    H230295   1.130   6.903   9.071  0.4914 -0.1550 -0.5773
 2034TIP3   OH230296   7.197   2.817   7.221 -0.3235  0.6117  0.0030
 2034TIP3    H130297   7.119   2.792   7.172 -0.0739  0.0753 -0.1220
 2034TIP3    H230298   7.268   2.766   7.183  0.2041  1.5080 -0.2554
 2035TIP3   OH230299   5.087   0.015   7.322  0.2985  0.1948 -0.2707
 2035TIP3    H130300   5.139   0.095   7.333 -0.2927  0.6337 -0.6095
 2035TIP3    H230301   5.068   0.011   7.229 -0.5450  0.2220 -0.1084
 2036TIP3   OH230302   4.348   4.572   8.045 -0.2103  0.1376 -0.5069
 2036TIP3    H130303   4.390   4.628   7.981 -0.2835 -1.7644 -2.3400
 2036TIP3    H230304   4.410   4.500   8.058 -0.5052  0.1329  1.0696
 2037TIP3   OH230305   5.158   2.861   8.025 -0.2860 -0.1373  0.0444
 2037TIP3    H130306   5.106   2.919   7.969 -1.5899  0.2418  1.5414
 2037TIP3    H230307   5.110   2.860   8.108  0.4987 -2.2276  0.5344
 2038TIP3   OH230308   2.032   3.206   9.777  0.4837  0.6822 -0.0760
 2038TIP3    H130309   2.120   3.236   9.800  0.5240  0.9015 -0.5117
 2038TIP3    H230310   1.975   3.246   9.843  0.8118 -0.2082  0.7730
 2039TIP3   OH230311   1.578   4.353   7.436  0.2714 -0.1510 -0.2437
 2039TIP3    H130312   1.592   4.295   7.361  0.0341  1.1534 -1.3319
 2039TIP3    H230313   1.491   4.389   7.423 -0.9910 -2.0326  2.2005
 2040TIP3   OH230314   0.703   6.807   6.926 -0.8183 -0.4305 -0.4881
 2040TIP3    H130315   0.762   6.738   6.956 -1.1076 -0.3997  0.1768
 2040TIP3    H230316   0.724   6.818   6.833  0.0476 -0.5814 -0.3159
 2041TIP3   OH230317   2.257   3.409   9.109 -0.6482  0.3858  0.2541
 2041TIP3    H130318   2.214   3.452   9.183  0.9159  1.6330  0.4938
 2041TIP3    H230319   2.349   3.403   9.135 -0.4204 -1.0347 -0.7610
 2042TIP3   OH230320   1.559   4.280   9.187 -0.1247 -0.4181 -0.1018
 2042TIP3    H130321   1.639   4.322   9.220  0.1331 -0.0193 -1.1923
 2042TIP3    H230322   1.498   4.285   9.261  0.6181 -0.0783  0.5089
 2043TIP3   OH230323   1.694   4.969   7.066  0.1546 -0.3508 -0.0820
 2043TIP3    H130324   1.782   4.961   7.029  0.7209  0.1974  1.0719
 2043TIP3    H230325   1.667   4.879   7.085  1.6769 -0.3994  2.1901
 2044TIP3   OH230326   1.547   5.865   9.691  0.1964 -0.3980  0.3645
 2044TIP3    H130327   1.596   5.915   9.625 -1.1817 -0.5806 -0.8385
 2044TIP3    H230328   1.546   5.922   9.768  0.1299  0.7069 -0.4268
 2045TIP3   OH230329   2.299   7.489   7.400  0.1112 -0.1970 -0.0609
 2045TIP3    H130330   2.296   7.572   7.354  2.6420  0.4797  0.8422
 2045TIP3    H230331   2.386   7.454   7.383 -0.0221 -1.4712  1.5681
 2046TIP3   OH230332   1.619   5.413   8.375  0.0415  0.6662  0.0040
 2046TIP3    H130333   1.710   5.439   8.358 -0.2188  0.6957 -1.4267
 2046TIP3    H230334   1.605   5.435   8.468  0.7370  2.9761 -0.3620
 2047TIP3   OH230335   5.284   2.945   9.052 -0.2754 -0.2452  0.6718
 2047TIP3    H130336   5.218   2.880   9.030 -0.5513  0.4457 -0.6363
 2047TIP3    H230337   5.239   3.006   9.111 -1.5201  1.3754 -1.7883
 2048TIP3   OH230338   3.878   1.912   7.804  0.0163  0.0158 -0.3565
 2048TIP3    H130339   3.969   1.942   7.809 -0.3837  1.5773 -1.5563
 2048TIP3    H230340   3.846   1.914   7.894  1.1631 -0.6158  0.0869
 2049TIP3   OH230341   2.504   1.941   8.778 -0.3862 -0.2831  0.5815
 2049TIP3    H130342   2.491   1.906   8.689  0.3431 -1.4494  0.9168
 2049TIP3    H230343   2.420   1.926   8.822 -1.0334  1.0445 -0.1203
 2050TIP3   OH230344   6.029   0.496   7.910 -0.2677  0.2168  0.0928
 2050TIP3    H130345   6.054   0.524   7.998 -0.2266  0.6679 -0.0594
 2050TIP3    H230346   6.019   0.401   7.917  0.8418  0.0981  0.3162
 2051TIP3   OH230347   4.185   2.616   8.301  0.2786 -0.8385  0.1906
 2051TIP3    H130348   4.096   2.649   8.290  0.6441 -0.6561 -3.1849
 2051TIP3    H230349   4.174   2.522   8.319 -0.6225 -0.7857 -0.0399
 2052TIP3   OH230350   2.870   2.742   9.577 -0.5561 -0.1357  0.1296
 2052TIP3    H130351   2.775   2.731   9.580 -0.5930  0.0913 -0.1960
 2052TIP3    H230352   2.900   2.674   9.517 -0.3387 -1.2633  1.4429
 2053TIP3   OH230353   6.866   4.617   7.700 -0.4533 -0.5917 -0.1145
 2053TIP3    H130354   6.904   4.702   7.723  0.0692 -0.5057 -1.2328
 2053TIP3    H230355   6.829   4.585   7.782 -2.3228  1.5349 -0.0267
 2054TIP3   OH230356   2.556   4.728   8.736 -0.0477  0.1211 -0.4388
 2054TIP3    H130357   2.638   4.680   8.751  0.1080  0.6056  0.2632
 2054TIP3    H230358   2.551   4.791   8.807 -1.1866 -0.1014 -0.3057
 2055TIP3   OH230359   6.184   7.378   9.519  0.0423  0.1384  0.2981
 2055TIP3    H130360   6.148   7.439   9.454  4.1711  2.4503 -0.1312
 2055TIP3    H230361   6.204   7.299   9.470  0.3106  0.7475 -0.5904
 2056TIP3   OH230362   0.271   7.127   8.206  0.0612  0.0558  0.5641
 2056TIP3    H130363   0.228   7.170   8.280 -0.0016  1.2001 -0.0952
 2056TIP3    H230364   0.203   7.121   8.139  0.0353 -1.2412  0.6895
 2057TIP3   OH230365   3.176   6.695   8.861  0.8659  0.5799 -0.1088
 2057TIP3    H130366   3.085   6.700   8.832  1.2686  1.4441 -1.3183
 2057TIP3    H230367   3.197   6.784   8.891  0.4425 -0.2698  3.1377
 2058TIP3   OH230368   2.105   7.431   8.518 -0.1668  0.1932 -0.4655
 2058TIP3    H130369   2.062   7.516   8.524  1.6269  1.1288 -0.2345
 2058TIP3    H230370   2.051   7.381   8.457 -2.6693  0.5807  1.3129
 2059TIP3   OH230371   4.908   7.498   8.808  0.0362 -0.8945  0.0179
 2059TIP3    H130372   4.881   7.472   8.896 -0.5570 -0.8143 -0.1356
 2059TIP3    H230373   4.890   7.421   8.753  0.5977 -1.0191 -0.0049
 2060TIP3   OH230374   1.633   6.774   9.232  0.4069 -0.1443 -0.0246
 2060TIP3    H130375   1.622   6.857   9.279  0.1383  0.8335 -1.7511
 2060TIP3    H230376   1.545   6.739   9.224  0.4280 -0.2039  0.0019
 2061TIP3   OH230377   2.810   2.378   7.340  0.1934 -0.2701  0.8836
 2061TIP3    H130378   2.737   2.318   7.325 -0.7731  1.1925 -0.5548
 2061TIP3    H230379   2.882   2.341   7.288 -0.3442 -0.2998  0.1408
 2062TIP3   OH230380   7.135   4.969   8.998  0.2356 -0.5639  0.6637
 2062TIP3    H130381   7.167   5.057   8.976  0.4749 -0.8266 -0.0531
 2062TIP3    H230382   7.200   4.936   9.060 -0.1025 -0.0633  1.3001
 2063TIP3   OH230383   6.685   0.474   7.584 -0.2009  0.2915  0.4988
 2063TIP3    H130384   6.596   0.506   7.596 -0.2866 -0.2173  1.2640
 2063TIP3    H230385   6.676   0.401   7.523 -0.3603  0.0074  0.8592
 2064TIP3   OH230386   1.166   4.019   7.892  0.4353  0.3158 -0.0287
 2064TIP3    H130387   1.158   4.031   7.798 -2.7786  1.2365  0.2464
 2064TIP3    H230388   1.098   3.956   7.915 -2.3758  3.7092  2.1272
 2065TIP3   OH230389   5.001   7.159   8.645  0.2453 -0.0182  0.2807
 2065TIP3    H130390   5.087   7.189   8.616  0.7853 -1.6172  0.1479
 2065TIP3    H230391   4.988   7.075   8.602 -0.4435 -0.8184  1.9391
 2066TIP3   OH230392   2.134   3.639   8.970 -0.2651 -0.1911  0.1784
 2066TIP3    H130393   2.206   3.610   9.027  0.6929  0.2731 -0.7458
 2066TIP3    H230394   2.135   3.734   8.976  0.7595 -0.0256 -1.5916
 2067TIP3   OH230395   1.796   4.824   9.579  0.3047 -0.2161  0.0268
 2067TIP3    H130396   1.847   4.744   9.582  1.0294  0.1467 -1.6750
 2067TIP3    H230397   1.837   4.882   9.644  1.0894 -0.4812 -0.2310
 2068TIP3   OH230398   1.375   4.603   9.267 -0.3442 -0.2347  0.7278
 2068TIP3    H130399   1.465   4.600   9.236 -1.1792 -1.3993 -1.8253
 2068TIP3    H230400   1.323   4.623   9.189 -2.2901  0.7428  2.1865
 2069TIP3   OH230401   7.283   6.979   6.873 -0.3212  0.4383  0.2128
 2069TIP3    H130402   7.248   7.065   6.848  0.0015  0.7494  0.8057
 2069TIP3    H230403   7.209   6.920   6.866 -0.3543  0.5874 -1.0301
 2070TIP3   OH230404   0.644   0.538   7.844  0.1124  0.2093 -0.1309
 2070TIP3    H130405   0.679   0.469   7.900 -1.7191 -0.1279  0.6872
 2070TIP3    H230406   0.591   0.592   7.904 -0.2084  1.0654 -1.1552
 2071TIP3   OH230407   1.626   4.110   8.958 -0.1611 -0.1474  0.2421
 2071TIP3    H130408   1.597   4.179   9.017  0.7350  1.3243 -0.9893
 2071TIP3    H230409   1.580   4.128   8.876  0.5143 -0.6819 -0.2586
 2072TIP3   OH230410   0.023   0.435   8.104  0.0378  0.3664 -0.1829
 2072TIP3    H130411  -0.018   0.496   8.044  0.3444  0.4990 -0.2584
 2072TIP3    H230412   0.114   0.465   8.111 -0.2416  0.9873  1.1546
 2073TIP3   OH230413   0.474   4.948   8.681  0.2234 -0.0986  0.1975
 2073TIP3    H130414   0.490   4.859   8.652 -0.2703 -0.1461  0.0672
 2073TIP3    H230415   0.442   4.939   8.771 -0.8003 -0.1193 -0.1639
 2074TIP3   OH230416   2.528   4.534   6.553 -0.1358  0.0499  0.1835
 2074TIP3    H130417   2.548   4.477   6.627 -0.6265  1.0206  1.0882
 2074TIP3    H230418   2.434   4.548   6.558 -0.2683 -0.2637 -0.9420
 2075TIP3   OH230419   0.355   2.120   8.154  0.0619 -0.5228  1.1847
 2075TIP3    H130420   0.433   2.158   8.194  0.7727 -0.3403 -0.3071
 2075TIP3    H230421   0.344   2.035   8.198  1.4664 -0.8222  0.9944
 2076TIP3   OH230422   3.337   0.851   9.238  0.2289  0.4231  0.1130
 2076TIP3    H130423   3.343   0.945   9.224 -0.2272  0.4304 -0.0841
 2076TIP3    H230424   3.391   0.813   9.169 -1.5617  0.4820 -1.4231
 2077TIP3   OH230425   3.475   0.061   8.624 -0.5812  0.3585  0.2825
 2077TIP3    H130426   3.474  -0.034   8.639  0.5855  0.4674  1.2777
 2077TIP3    H230427   3.422   0.096   8.696  1.1692  0.5929  1.5248
 2078TIP3   OH230428   5.304   3.554   8.368 -0.1966  0.1675  0.0768
 2078TIP3    H130429   5.335   3.560   8.459 -2.1501  0.9622  0.7664
 2078TIP3    H230430   5.303   3.461   8.349  1.0493  0.0390  0.5519
 2079TIP3   OH230431   4.108   5.690   7.608  0.5684  0.0715  0.0145
 2079TIP3    H130432   4.023   5.661   7.575 -0.5258  1.3329  1.5619
 2079TIP3    H230433   4.146   5.611   7.648  0.4870 -0.6777 -1.3163
 2080TIP3   OH230434   7.017   4.207   9.020 -0.0686  0.0339  0.2837
 2080TIP3    H130435   7.015   4.295   9.058  0.0142 -0.9568  2.7157
 2080TIP3    H230436   6.975   4.151   9.085  0.8336 -1.9136 -0.7233
 2081TIP3   OH230437   6.220   6.114   9.344 -0.1701  0.4661  0.0362
 2081TIP3    H130438   6.209   6.028   9.384 -0.8305  0.3006 -0.4921
 2081TIP3    H230439   6.157   6.116   9.272 -0.7254  1.7061  0.5407
 2082TIP3   OH230440   2.791   1.618   8.460 -0.1297 -0.0302  0.3581
 2082TIP3    H130441   2.782   1.676   8.535  0.8800  0.6536 -0.0258
 2082TIP3    H230442   2.886   1.606   8.450 -0.3128 -1.6734  0.3691
 2083TIP3   OH230443   1.604   5.672   7.263  0.8192  0.0589 -0.0494
 2083TIP3    H130444   1.581   5.700   7.352 -0.4719  0.7799 -0.5823
 2083TIP3    H230445   1.690   5.712   7.247  1.4454 -0.7647  1.1583
 2084TIP3   OH230446   2.704   3.108   7.462 -0.0852 -0.2913  0.0247
 2084TIP3    H130447   2.732   3.018   7.445 -0.2930 -0.3197 -0.1734
 2084TIP3    H230448   2.612   3.100   7.488 -0.2116 -0.1045 -0.3522
 2085TIP3   OH230449   3.865   2.325   7.932  0.2814  0.2445 -0.2930
 2085TIP3    H130450   3.924   2.400   7.933  1.2822 -0.4650  2.1857
 2085TIP3    H230451   3.875   2.287   7.844  3.3384  0.3396 -0.0984
 2086TIP3   OH230452   6.611   1.405   9.279  0.0376 -0.3328  0.0792
 2086TIP3    H130453   6.691   1.447   9.248 -0.1683  0.9087  1.1561
 2086TIP3    H230454   6.543   1.472   9.271 -0.0806  0.0125  2.8868
 2087TIP3   OH230455   1.182   5.199   9.103  0.1412  0.5915 -0.1373
 2087TIP3    H130456   1.125   5.201   9.180  1.0609  0.9104  0.5507
 2087TIP3    H230457   1.149   5.269   9.048  0.1060  1.0403  0.4394
 2088TIP3   OH230458   5.110   2.265   9.653  0.0192  0.1287 -0.1530
 2088TIP3    H130459   5.149   2.178   9.639 -0.0975 -0.1316  0.9745
 2088TIP3    H230460   5.039   2.249   9.715  0.3144  1.0923  0.4553
 2089TIP3   OH230461   0.748   4.971   8.744 -0.2641 -0.1744  0.3091
 2089TIP3    H130462   0.692   4.974   8.821 -1.9858  2.8527 -0.9135
 2089TIP3    H230463   0.691   4.996   8.672  2.0906  0.5705 -1.4048
 2090TIP3   OH230464   6.682   6.388   7.278  0.8856 -0.3618 -0.1127
 2090TIP3    H130465   6.648   6.370   7.365  0.5487 -0.5190 -0.2754
 2090TIP3    H230466   6.725   6.307   7.251 -1.2092 -1.2318 -1.1170
 2091TIP3   OH230467   0.555   4.089   9.878 -0.2550 -0.5898 -0.1406
 2091TIP3    H130468   0.499   4.125   9.947  2.1949  0.8747  1.2104
 2091TIP3    H230469   0.615   4.160   9.856  0.1252 -1.5880 -2.6352
 2092TIP3   OH230470   5.049   1.718   7.057 -1.0165  0.3891  0.0626
 2092TIP3    H130471   4.956   1.718   7.034 -1.0791  0.0539  0.2979
 2092TIP3    H230472   5.063   1.802   7.100 -0.5845  1.6532 -2.3547
 2093TIP3   OH230473   3.543   5.932   8.240  0.3312 -0.1812 -0.5224
 2093TIP3    H130474   3.455   5.946   8.278  0.3007 -1.3491 -0.1378
 2093TIP3    H230475   3.542   5.841   8.211  1.4545 -0.2265 -0.4313
 2094TIP3   OH230476   6.234   6.830   7.673  0.1852  0.0923 -0.7713
 2094TIP3    H130477   6.239   6.738   7.698 -1.3536 -0.3984 -2.1094
 2094TIP3    H230478   6.191   6.873   7.747  2.1648  0.0527  0.4774
 2095TIP3   OH230479   5.654   0.942   7.627  0.4216  0.8255 -0.0287
 2095TIP3    H130480   5.648   0.885   7.551  1.6742  1.1687 -0.3983
 2095TIP3    H230481   5.565   0.978   7.636  0.0665  0.1914 -0.8519
 2096TIP3   OH230482   7.347   7.296   7.131 -0.2718 -0.1498 -0.2397
 2096TIP3    H130483   7.385   7.218   7.172  0.2405  0.3878  0.3245
 2096TIP3    H230484   7.412   7.323   7.066 -0.5522 -0.3147 -0.5955
 2097TIP3   OH230485   3.907   6.216   9.500 -0.7188  0.2145 -0.1684
 2097TIP3    H130486   3.852   6.138   9.491 -0.1367 -0.0251 -2.1430
 2097TIP3    H230487   3.962   6.216   9.421 -0.4701  2.4541 -0.0693
 2098TIP3   OH230488   1.913   4.463   8.620  0.4724 -0.1872 -0.3728
 2098TIP3    H130489   1.992   4.410   8.616  0.5636 -0.0750 -0.0665
 2098TIP3    H230490   1.842   4.403   8.594  0.4035 -0.8044  1.1328
 2099TIP3   OH230491   4.571   3.978   8.435  0.6014 -0.2564  0.1529
 2099TIP3    H130492   4.603   3.950   8.521  1.5583  2.1243  0.6629
 2099TIP3    H230493   4.484   4.014   8.452  0.7037  0.0230  0.0895
 2100TIP3   OH230494   1.061   3.317   6.823 -0.2777  0.1454  0.4499
 2100TIP3    H130495   1.131   3.380   6.801 -0.7560  0.5295  0.0041
 2100TIP3    H230496   1.108   3.242   6.860  0.5708 -0.3989 -1.5594
 2101TIP3   OH230497   3.059   4.254   8.242 -0.8442  0.3271  0.3799
 2101TIP3    H130498   3.070   4.333   8.189 -3.8554  0.3483 -0.3912
 2101TIP3    H230499   3.035   4.186   8.179  0.5681 -0.9759  1.1746
 2102TIP3   OH230500   3.119   3.809   8.772  0.1312 -0.0688  0.2265
 2102TIP3    H130501   3.203   3.783   8.733 -0.3975 -1.5032  0.0018
 2102TIP3    H230502   3.101   3.895   8.733  0.6891 -0.4839 -0.9990
 2103TIP3   OH230503   2.965   7.153   9.631  0.0843  0.8489  0.4783
 2103TIP3    H130504   2.908   7.224   9.600 -0.2719 -0.5632 -2.3474
 2103TIP3    H230505   3.049   7.169   9.589 -0.5717 -1.4276 -1.8992
 2104TIP3   OH230506   5.213   2.965   8.569  0.5364 -0.1914 -0.3155
 2104TIP3    H130507   5.276   2.926   8.509  1.3146 -0.0100  0.3700
 2104TIP3    H230508   5.143   2.899   8.577  1.0182 -0.7251 -0.4728
 2105TIP3   OH230509   3.733   7.510   9.055 -0.0582 -0.0506 -0.0875
 2105TIP3    H130510   3.827   7.523   9.065  0.2648 -1.2176 -1.3272
 2105TIP3    H230511   3.725   7.429   9.004 -1.6809  1.3293 -2.2013
 2106TIP3   OH230512   2.185   7.392   9.620  0.2225 -0.3811 -0.2826
 2106TIP3    H130513   2.273   7.427   9.604  0.8092 -1.4868  0.4162
 2106TIP3    H230514   2.127   7.468   9.610  1.6078  1.3444  3.1112
 2107TIP3   OH230515   0.007   5.413   9.134 -0.2607 -0.1222  0.3900
 2107TIP3    H130516   0.009   5.417   9.039  0.5465  2.1787  0.4416
 2107TIP3    H230517  -0.070   5.359   9.155 -0.7289 -0.2529 -1.5317
 2108TIP3   OH230518   1.505   4.773   7.956 -0.2919  0.1348  0.2809
 2108TIP3    H130519   1.550   4.732   7.882 -1.1184 -2.4091  1.0509
 2108TIP3    H230520   1.571   4.779   8.024 -0.2372 -0.3362  0.2763
 2109TIP3   OH230521   3.360   5.456   7.503 -0.3176  0.2756  0.9120
 2109TIP3    H130522   3.279   5.425   7.464  0.0669 -1.0129  1.0796
 2109TIP3    H230523   3.423   5.385   7.487  1.1790  1.7958 -0.4440
 2110TIP3   OH230524   6.425   7.102   8.124 -0.1416  0.3717  0.1109
 2110TIP3    H130525   6.381   7.021   8.099  0.2562 -0.4320  1.8243
 2110TIP3    H230526   6.487   7.119   8.053 -1.6775  0.3651 -1.2914
 2111TIP3   OH230527   3.061   5.418   9.101  0.1295 -0.1868 -0.2001
 2111TIP3    H130528   3.154   5.439   9.109  0.0398  0.1084  0.0732
 2111TIP3    H230529   3.016   5.502   9.109 -0.2512 -0.4895  1.3260
 2112TIP3   OH230530   5.237   6.872   9.830 -0.7702  0.3084  0.6455
 2112TIP3    H130531   5.238   6.797   9.771  1.2406  1.8024 -1.3790
 2112TIP3    H230532   5.318   6.866   9.880 -1.7791 -0.1521  2.3199
 2113TIP3   OH230533   0.869   2.551   8.089  0.5451  0.3971 -0.0312
 2113TIP3    H130534   0.848   2.474   8.036  0.6059  1.8452 -2.2876
 2113TIP3    H230535   0.806   2.617   8.060  1.3189  1.5975  0.9426
 2114TIP3   OH230536   0.659   5.740   9.146  0.2438 -0.1935  0.2628
 2114TIP3    H130537   0.710   5.760   9.225  3.0015  0.1329 -1.4827
 2114TIP3    H230538   0.618   5.823   9.122 -0.1730 -0.1691  1.0254
 2115TIP3   OH230539   2.222   1.906   8.793 -0.1863  0.1553 -0.2495
 2115TIP3    H130540   2.179   1.878   8.712 -0.4921  0.1225 -0.0743
 2115TIP3    H230541   2.186   1.849   8.861 -1.5981  1.6295  0.2957
 2116TIP3   OH230542   4.842   3.061   7.377 -0.2252  0.2476 -0.6486
 2116TIP3    H130543   4.879   3.135   7.425 -0.7261  0.4811 -0.6157
 2116TIP3    H230544   4.757   3.092   7.346 -0.3308 -0.2282 -0.8553
 2117TIP3   OH230545   5.425   6.409   7.746 -0.2986  0.0004  0.3508
 2117TIP3    H130546   5.479   6.350   7.798 -0.9260 -0.5317  0.4121
 2117TIP3    H230547   5.344   6.360   7.730  0.2350 -0.2490 -1.9764
 2118TIP3   OH230548   1.007   3.362   8.414 -0.2139 -0.1289 -0.2155
 2118TIP3    H130549   1.059   3.313   8.350 -0.3404 -0.2746 -0.2059
 2118TIP3    H230550   0.991   3.300   8.485 -1.5483 -0.5146 -0.8244
 2119TIP3   OH230551   1.439   1.183   9.162  0.4232  0.3131 -0.6238
 2119TIP3    H130552   1.507   1.205   9.097  0.5934  1.7006  0.0036
 2119TIP3    H230553   1.487   1.137   9.231  0.5112  0.2394 -0.7322
 2120TIP3   OH230554   4.289   4.827   8.509 -0.4783  0.1337  0.1423
 2120TIP3    H130555   4.270   4.796   8.420 -0.9699  1.3744 -0.2115
 2120TIP3    H230556   4.324   4.750   8.554 -1.1639 -0.7914 -0.8288
 2121TIP3   OH230557   5.403   0.492   8.267 -0.2878  0.5147 -0.2341
 2121TIP3    H130558   5.463   0.511   8.196 -0.7944  0.5883 -0.6506
 2121TIP3    H230559   5.427   0.552   8.337  0.5762  0.0590 -0.1337
 2122TIP3   OH230560   1.050   0.027   9.445  0.5494  0.3027 -0.0970
 2122TIP3    H130561   0.993   0.023   9.522  1.6523 -1.1757  0.6969
 2122TIP3    H230562   1.080  -0.063   9.433  1.6125  0.7930 -1.3359
 2123TIP3   OH230563   0.004   6.489   7.316  0.2265 -0.1606 -0.2468
 2123TIP3    H130564   0.083   6.479   7.369 -0.9402 -2.1835  1.2404
 2123TIP3    H230565   0.025   6.445   7.234  1.2508  0.9920 -0.6475
 2124TIP3   OH230566   6.864   3.018   9.461  0.0607  0.0980 -0.6696
 2124TIP3    H130567   6.923   3.091   9.442  2.1771 -0.6348  2.3010
 2124TIP3    H230568   6.903   2.944   9.415 -0.2240  0.2027 -1.0778
 2125TIP3   OH230569   4.928   3.198   9.642 -0.6037  0.3773  0.4991
 2125TIP3    H130570   4.909   3.107   9.663 -0.5326 -0.0638 -1.1558
 2125TIP3    H230571   4.949   3.197   9.548 -2.9828  2.4137 -0.1828
 2126TIP3   OH230572   5.342   0.450   9.211  0.4329 -0.2616 -0.0303
 2126TIP3    H130573   5.290   0.384   9.166 -1.1296  1.2879 -0.6156
 2126TIP3    H230574   5.337   0.528   9.154  1.2817  0.7137  1.1597
 2127TIP3   OH230575   6.210   3.850   8.478 -0.0138  0.5779  0.3347
 2127TIP3    H130576   6.208   3.822   8.569 -0.5728 -0.1620  0.0972
 2127TIP3    H230577   6.245   3.775   8.430 -1.7066  0.1705 -0.3303
 2128TIP3   OH230578   3.847   6.570   7.947  0.5844 -0.6974 -0.0855
 2128TIP3    H130579   3.809   6.487   7.919 -2.6731  0.5710  0.1152
 2128TIP3    H230580   3.829   6.574   8.041  1.0899  0.0465 -0.0104
 2129TIP3   OH230581   2.191   5.950   9.321 -0.2838 -1.0026 -0.3184
 2129TIP3    H130582   2.200   5.860   9.289  1.3248 -1.1808  0.5457
 2129TIP3    H230583   2.218   5.946   9.413  1.2542  0.5955 -0.6508
 2130TIP3   OH230584   7.065   6.374   7.453  0.7940 -0.0121  0.3497
 2130TIP3    H130585   7.160   6.384   7.458  0.8866 -0.3984 -0.6212
 2130TIP3    H230586   7.034   6.457   7.417  0.6392  0.5698  1.7559
 2131TIP3   OH230587   6.159   2.058   9.374 -0.3195  0.3369 -0.1245
 2131TIP3    H130588   6.245   2.067   9.332  0.2147 -1.0898  0.5983
 2131TIP3    H230589   6.177   2.061   9.468 -1.2314  1.2572  0.0453
 2132TIP3   OH230590   1.651   5.927   7.302  0.0605 -0.4257 -0.2222
 2132TIP3    H130591   1.707   5.969   7.237 -0.7749  0.2990 -0.5031
 2132TIP3    H230592   1.584   5.882   7.251  0.5562 -1.5410  0.1033
 2133TIP3   OH230593   3.082   6.614   7.642 -0.1169 -0.4081  0.1135
 2133TIP3    H130594   3.036   6.640   7.722  1.6195  0.2952  0.9440
 2133TIP3    H230595   3.024   6.641   7.571 -0.5074  1.4595  1.0733
 2134TIP3   OH230596   7.257   4.311   7.438  0.0729  0.3910 -0.0524
 2134TIP3    H130597   7.165   4.324   7.462  0.4198  0.2370  1.4476
 2134TIP3    H230598   7.292   4.253   7.505  0.7899 -1.2099 -1.7255
 2135TIP3   OH230599   3.219   0.389   7.341  0.2989 -0.0659  0.1376
 2135TIP3    H130600   3.254   0.307   7.310 -0.4583 -1.0414  1.7023
 2135TIP3    H230601   3.291   0.452   7.333  1.8339 -1.5558  1.5477
 2136TIP3   OH230602   5.731   4.384   9.449  0.4235 -0.1007 -0.0857
 2136TIP3    H130603   5.789   4.339   9.387 -0.4922 -0.2712 -0.8306
 2136TIP3    H230604   5.696   4.458   9.401 -1.2003 -0.8837 -0.1953
 2137TIP3   OH230605   1.337   4.943   7.805 -0.0324  0.4535  1.0279
 2137TIP3    H130606   1.397   4.875   7.837  1.3874  1.5193  0.6896
 2137TIP3    H230607   1.338   5.010   7.873 -0.5054  0.6978  0.8025
 2138TIP3   OH230608   0.003   1.003   8.472 -0.2705 -0.3980  0.4060
 2138TIP3    H130609   0.096   1.012   8.452 -0.4811  0.8174 -0.1475
 2138TIP3    H230610   0.001   0.967   8.560  0.7797  1.4028  1.2328
 2139TIP3   OH230611   1.680   0.751   7.202  0.0482  0.3522  0.0375
 2139TIP3    H130612   1.679   0.730   7.109 -0.9091  0.2717  0.0617
 2139TIP3    H230613   1.765   0.794   7.216  0.3636  0.0019 -0.7847
 2140TIP3   OH230614   4.633   1.132   8.202 -0.4098  0.0679  0.4421
 2140TIP3    H130615   4.631   1.227   8.209  0.6159  0.1253  0.0026
 2140TIP3    H230616   4.707   1.104   8.257 -0.5640 -0.4637  0.3930
 2141TIP3   OH230617   0.781   0.953   7.370  0.3828  0.1030  0.2472
 2141TIP3    H130618   0.713   1.016   7.395  1.3156  0.4561  2.0704
 2141TIP3    H230619   0.823   0.992   7.293 -0.4001  0.6751  0.1019
 2142TIP3   OH230620   0.875   6.311   7.660 -0.8746  0.1663 -0.3784
 2142TIP3    H130621   0.838   6.223   7.657  0.5891 -0.5631  0.9400
 2142TIP3    H230622   0.857   6.349   7.574  1.1646 -2.5950 -2.2025
 2143TIP3   OH230623   5.721   0.411   7.804  0.2016  0.4852  0.0714
 2143TIP3    H130624   5.770   0.466   7.864 -0.2819  1.6543 -0.5732
 2143TIP3    H230625   5.782   0.393   7.732  0.4517 -0.0665  0.4188
 2144TIP3   OH230626   6.322   1.303   9.147  0.2127  0.4436  0.2281
 2144TIP3    H130627   6.403   1.328   9.191 -0.9999  3.3015  1.0908
 2144TIP3    H230628   6.257   1.297   9.217 -0.5389 -0.9012 -0.5384
 2145TIP3   OH230629   4.751   7.225   7.286  0.5639 -0.0293 -0.2125
 2145TIP3    H130630   4.754   7.310   7.243  0.4128  0.0771 -0.0157
 2145TIP3    H230631   4.773   7.243   7.377  1.7181 -0.3766 -0.4156
 2146TIP3   OH230632   3.254   1.463   8.791 -0.2733  0.2217  0.2427
 2146TIP3    H130633   3.254   1.453   8.886 -0.1047  1.0685  0.3403
 2146TIP3    H230634   3.182   1.409   8.761 -0.2319 -0.1741  0.8390
 2147TIP3   OH230635   2.476   3.406   7.602 -0.8623  0.4410  0.6274
 2147TIP3    H130636   2.559   3.424   7.558 -0.5553 -0.0262  1.0088
 2147TIP3    H230637   2.419   3.479   7.576  0.1915  1.7301  1.7517
 2148TIP3   OH230638   4.927   4.706   8.286 -0.0564 -0.2162  0.2267
 2148TIP3    H130639   4.970   4.624   8.311  1.0005 -0.0461 -0.9143
 2148TIP3    H230640   4.890   4.688   8.200 -0.2182  0.3762  0.1707
 2149TIP3   OH230641   2.540   3.353   9.123 -0.4943  0.7540  0.1394
 2149TIP3    H130642   2.614   3.375   9.180  0.1208  0.4867 -0.5434
 2149TIP3    H230643   2.540   3.258   9.119 -1.0907  0.7354  0.3959
 2150TIP3   OH230644   5.852   1.719   8.935 -0.3201 -0.4292  0.3501
 2150TIP3    H130645   5.944   1.704   8.955 -0.2442 -1.1766 -0.5190
 2150TIP3    H230646   5.819   1.769   9.010  0.8844  0.2162  0.4683
 2151TIP3   OH230647   2.987   7.272   9.168 -0.1256  0.4538 -0.5057
 2151TIP3    H130648   2.948   7.351   9.205  1.6621  0.3681  1.7792
 2151TIP3    H230649   2.914   7.229   9.123 -1.4033  2.7972 -0.8678
 2152TIP3   OH230650   3.312   6.376   7.983  0.1409  0.1223 -0.1512
 2152TIP3    H130651   3.273   6.464   7.985 -0.4102 -0.1117  1.5652
 2152TIP3    H230652   3.299   6.345   7.894 -0.1669  1.5607 -0.6343
 2153TIP3   OH230653   3.288   5.882   6.615  0.2544 -0.2658  0.4292
 2153TIP3    H130654   3.249   5.954   6.665  1.0044 -0.5994  1.5389
 2153TIP3    H230655   3.259   5.803   6.662  0.5368 -0.6133  0.0215
 2154TIP3   OH230656   3.506   4.641   8.139  0.2300 -0.1052  0.1548
 2154TIP3    H130657   3.501   4.736   8.135 -2.8877 -0.1824  0.3314
 2154TIP3    H230658   3.483   4.612   8.051 -0.2457 -0.7223  0.4797
 2155TIP3   OH230659   3.760   7.441   6.660 -0.0997 -0.2857 -0.7824
 2155TIP3    H130660   3.731   7.531   6.648 -0.5395 -0.0969  1.2691
 2155TIP3    H230661   3.856   7.446   6.658  0.0206  0.7969  2.0953
 2156TIP3   OH230662   6.076   6.639   8.366  0.0480 -0.5520  0.3654
 2156TIP3    H130663   6.153   6.583   8.356  1.2988  0.9448  1.1898
 2156TIP3    H230664   6.105   6.711   8.422 -1.9100  0.1711  0.5543
 2157TIP3   OH230665   5.577   1.083   8.110  0.0100 -0.0295  0.3472
 2157TIP3    H130666   5.584   1.109   8.202 -1.6715 -1.1583  0.8390
 2157TIP3    H230667   5.520   1.006   8.112 -0.4804  0.2440 -1.6987
 2158TIP3   OH230668   7.376   6.023   8.464  0.5532 -0.5072 -0.2873
 2158TIP3    H130669   7.377   6.118   8.456 -0.5799 -0.5247 -0.9723
 2158TIP3    H230670   7.364   6.006   8.557 -0.3681  0.0616 -0.2857
 2159TIP3   OH230671   5.723   5.127   9.685  0.0028 -0.1471  0.1644
 2159TIP3    H130672   5.746   5.186   9.614  0.8683  0.0771  0.6107
 2159TIP3    H230673   5.751   5.173   9.765  0.2137 -0.9220  0.5520
 2160TIP3   OH230674   2.824   3.243   8.664 -0.0085  0.4442  0.2490
 2160TIP3    H130675   2.842   3.212   8.575  2.0629  1.4728  0.2529
 2160TIP3    H230676   2.872   3.184   8.720  0.7340  1.2727  0.5061
 2161TIP3   OH230677   6.355   0.308   8.195 -0.5343 -0.1579  0.2279
 2161TIP3    H130678   6.415   0.314   8.121 -0.1057  0.9635  0.6430
 2161TIP3    H230679   6.358   0.216   8.221 -0.2868 -0.4548 -0.8077
 2162TIP3   OH230680   3.328   2.027   9.341 -0.0255 -0.0194 -0.0842
 2162TIP3    H130681   3.396   2.052   9.278  0.5871 -3.4728 -1.0334
 2162TIP3    H230682   3.357   1.942   9.374 -2.5024 -0.2860  1.6494
 2163TIP3   OH230683   1.912   7.130   7.452  0.0930  0.0431  0.3919
 2163TIP3    H130684   1.930   7.194   7.521  0.4268  0.2127  0.1528
 2163TIP3    H230685   1.843   7.170   7.400 -0.3763 -0.2220  0.8076
 2164TIP3   OH230686   0.892   0.934   8.237 -0.5323  0.1819 -0.1539
 2164TIP3    H130687   0.899   0.839   8.230  0.1877  0.1482  0.8705
 2164TIP3    H230688   0.982   0.964   8.250 -0.9819  0.8008  1.8049
 2165TIP3   OH230689   1.114   2.279   8.395  0.2795  0.0172  0.8120
 2165TIP3    H130690   1.116   2.373   8.373  1.5752 -0.5250 -1.8055
 2165TIP3    H230691   1.021   2.258   8.399 -0.0671  1.0258 -0.7580
 2166TIP3   OH230692   0.524   3.575   9.448 -0.0226 -0.2910  0.3654
 2166TIP3    H130693   0.614   3.596   9.421  0.7929 -1.4880  1.9289
 2166TIP3    H230694   0.515   3.619   9.533 -0.6688 -0.7228  0.5242
 2167TIP3   OH230695   1.399   5.367   8.994 -0.2161 -0.1257 -0.1776
 2167TIP3    H130696   1.309   5.390   9.015 -0.6703 -0.9073 -1.1879
 2167TIP3    H230697   1.407   5.275   9.022  0.0096 -0.3099 -0.8299
 2168TIP3   OH230698   0.574   3.474   8.001  0.6771  0.2123 -0.0782
 2168TIP3    H130699   0.584   3.421   7.922  2.1752  2.7029 -1.7008
 2168TIP3    H230700   0.480   3.478   8.015  0.3994 -0.6554 -1.4627
 2169TIP3   OH230701   2.018   0.174   8.561  0.3197  0.1652  0.4292
 2169TIP3    H130702   1.940   0.197   8.510 -0.5454 -0.3311  1.4708
 2169TIP3    H230703   2.079   0.246   8.545 -0.3056  0.5158 -0.5031
 2170TIP3   OH230704   3.453   0.049   7.509  0.6931  0.0422  0.1095
 2170TIP3    H130705   3.403   0.118   7.552 -0.7934 -0.6329 -0.4417
 2170TIP3    H230706   3.457  -0.022   7.574  0.2518 -0.1849 -0.1010
 2171TIP3   OH230707   5.931   0.946   7.610 -0.0961  0.3680  0.0766
 2171TIP3    H130708   5.946   0.862   7.655 -2.6602 -0.6417 -0.7578
 2171TIP3    H230709   5.839   0.967   7.629 -0.9255  0.5588 -3.5000
 2172TIP3   OH230710   5.203   2.145   8.913  0.1124 -0.2103 -0.1249
 2172TIP3    H130711   5.264   2.138   8.839 -0.1769 -1.3756 -0.2770
 2172TIP3    H230712   5.186   2.239   8.921  0.5312 -0.0182 -1.2331
 2173TIP3   OH230713   4.366   7.029   8.554 -0.6434 -0.4026 -0.0796
 2173TIP3    H130714   4.288   7.065   8.597 -0.3301 -0.6984  0.7568
 2173TIP3    H230715   4.348   6.935   8.548 -0.8618 -0.3188 -0.9989
 2174TIP3   OH230716   7.282   3.788   6.969  0.5167  0.2972 -0.1528
 2174TIP3    H130717   7.194   3.803   7.004  1.2355 -0.0282  1.9063
 2174TIP3    H230718   7.275   3.706   6.920 -0.3159  0.2602  0.0136
 2175TIP3   OH230719   1.013   3.673   8.424  0.2800  0.3019  0.6572
 2175TIP3    H130720   0.953   3.601   8.441 -0.3220  0.6805  0.2010
 2175TIP3    H230721   1.037   3.706   8.510 -0.4610  0.3798  0.8370
 2176TIP3   OH230722   0.869   4.624   8.412 -0.4624  0.5712  0.3979
 2176TIP3    H130723   0.859   4.611   8.317 -3.1303  1.1840  0.5218
 2176TIP3    H230724   0.858   4.536   8.449 -3.1860  0.8108  0.3127
 2177TIP3   OH230725   1.372   2.234   6.820 -0.2061  0.3993  0.1065
 2177TIP3    H130726   1.426   2.203   6.892 -1.1333  0.9547  1.0648
 2177TIP3    H230727   1.316   2.160   6.798 -0.8692  0.6437  0.8991
 2178TIP3   OH230728   7.040   6.166   9.354 -0.0439 -0.3834  0.4007
 2178TIP3    H130729   6.949   6.184   9.332  0.0461 -0.0315  0.3238
 2178TIP3    H230730   7.086   6.165   9.270  0.2845  0.8687  0.5509
 2179TIP3   OH230731   0.653   6.229   9.471 -0.1515 -0.3643  0.3245
 2179TIP3    H130732   0.668   6.322   9.489 -2.6498  0.2592 -0.4235
 2179TIP3    H230733   0.727   6.203   9.416  0.0683  1.4637 -0.3174
 2180TIP3   OH230734   3.976   3.389   9.523 -0.0842  0.0502  0.0262
 2180TIP3    H130735   4.068   3.395   9.497  0.0259  0.8453  0.5768
 2180TIP3    H230736   3.971   3.307   9.573  0.7502  0.9534  1.6518
 2181TIP3   OH230737   0.816   4.553   9.576 -0.0148  0.0618 -0.0006
 2181TIP3    H130738   0.845   4.643   9.561 -2.4317  0.8402 -0.4654
 2181TIP3    H230739   0.773   4.528   9.495 -1.4553 -0.6212  0.9301
 2182TIP3   OH230740   0.033   4.008   7.927 -0.0058 -0.1180 -0.3063
 2182TIP3    H130741   0.012   3.943   7.860 -1.7537 -0.2469  0.3364
 2182TIP3    H230742   0.123   3.986   7.953 -0.4753 -2.1467 -0.2547
 2183TIP3   OH230743   7.065   5.947   8.025  0.0006  0.1931 -0.6619
 2183TIP3    H130744   7.038   5.920   7.937  1.0663  0.7753 -1.1857
 2183TIP3    H230745   6.995   6.004   8.056  0.1361  0.8838 -1.5962
 2184TIP3   OH230746   2.766   0.044   8.398 -0.3460  0.2051 -0.3953
 2184TIP3    H130747   2.709   0.042   8.475 -0.7557  3.0412 -0.4971
 2184TIP3    H230748   2.713   0.084   8.330  1.1798  1.3085 -0.9999
 2185TIP3   OH230749   2.190   6.293   8.008  0.0472 -0.0456  0.8589
 2185TIP3    H130750   2.279   6.257   8.000  0.0172  0.0398  0.1211
 2185TIP3    H230751   2.198   6.384   7.978 -0.3221 -0.0824  0.6502
 2186TIP3   OH230752   2.669   5.048   9.684  0.6380 -0.2271 -0.2678
 2186TIP3    H130753   2.675   4.974   9.744  0.8306 -0.0158 -0.0245
 2186TIP3    H230754   2.753   5.050   9.638  1.3950  0.9850  1.0870
 2187TIP3   OH230755   0.831   6.646   7.905 -0.0126 -0.5740 -1.0363
 2187TIP3    H130756   0.810   6.559   7.938 -0.0461 -0.5632 -1.0286
 2187TIP3    H230757   0.757   6.670   7.850  0.3314 -0.8572 -1.6385
 2188TIP3   OH230758   0.869   6.464   9.952  0.2030 -0.3266 -0.1427
 2188TIP3    H130759   0.907   6.419   9.876 -0.7403 -0.9450 -0.2601
 2188TIP3    H230760   0.867   6.397  10.021  0.4623  0.0535  0.2381
 2189TIP3   OH230761   7.261   4.653   6.669 -0.1050 -0.1241 -0.2781
 2189TIP3    H130762   7.272   4.747   6.677  0.6974 -0.1558 -0.8242
 2189TIP3    H230763   7.171   4.636   6.696 -0.4144  0.8607 -0.6674
 2190TIP3   OH230764   1.112   3.947   8.321 -0.4251 -0.7579  0.2275
 2190TIP3    H130765   1.069   3.862   8.328 -2.2905  0.1397  0.3116
 2190TIP3    H230766   1.164   3.954   8.401 -3.7188 -0.0485  2.4804
 2191TIP3   OH230767   6.100   3.762   9.647  0.2373 -0.3397 -0.1086
 2191TIP3    H130768   6.079   3.812   9.725  0.1733  0.0992 -0.4062
 2191TIP3    H230769   6.090   3.824   9.574 -2.4921 -1.4067 -0.7679
 2192TIP3   OH230770   5.743   5.892   8.938  0.1713 -0.4244  0.2891
 2192TIP3    H130771   5.787   5.825   8.885  1.7792  1.4276 -0.8222
 2192TIP3    H230772   5.720   5.961   8.876 -0.7159  0.4314  1.5337
 2193TIP3   OH230773   2.780   5.148   7.921 -0.0528  0.1826 -0.1240
 2193TIP3    H130774   2.756   5.083   7.987 -0.7646  1.8249  1.3128
 2193TIP3    H230775   2.700   5.200   7.909  0.3076  0.4241 -1.7127
 2194TIP3   OH230776   0.085   1.197   8.049 -0.3117  0.2449 -0.8977
 2194TIP3    H130777   0.122   1.285   8.054  1.0884 -0.3105 -1.1969
 2194TIP3    H230778   0.072   1.181   7.956 -0.6149  0.1480 -0.8416
 2195TIP3   OH230779   0.031   3.773   7.044  0.2406 -0.0829 -0.0318
 2195TIP3    H130780  -0.051   3.806   7.008 -1.0965 -2.5029  0.5467
 2195TIP3    H230781   0.034   3.681   7.017  0.8692 -1.0837  3.0631
 2196TIP3   OH230782   3.215   6.925   9.011  0.8603  0.4014  0.1226
 2196TIP3    H130783   3.286   6.874   9.052 -0.5778 -0.1862  2.0099
 2196TIP3    H230784   3.196   6.995   9.073 -0.8813 -0.0433  0.1368
 2197TIP3   OH230785   1.653   3.099   8.985 -0.0342 -0.0725  0.1372
 2197TIP3    H130786   1.643   3.006   9.005  0.0917  0.3130  2.1201
 2197TIP3    H230787   1.593   3.113   8.911  1.5897 -2.1519 -1.7367
 2198TIP3   OH230788   4.499   6.726   7.794  0.6551  0.5890  0.3433
 2198TIP3    H130789   4.578   6.737   7.846  1.2575 -1.5984 -0.0044
 2198TIP3    H230790   4.447   6.661   7.841  0.2641  0.1067 -0.7031
 2199TIP3   OH230791   3.518   0.410   8.565 -0.1551 -0.4134  0.0500
 2199TIP3    H130792   3.500   0.372   8.651  1.6043 -0.6375  0.3706
 2199TIP3    H230793   3.486   0.500   8.571 -0.9349 -0.7191  0.5866
 2200TIP3   OH230794   0.471   3.474   9.088  0.1130 -0.1500  0.3184
 2200TIP3    H130795   0.484   3.415   9.162  1.5836  0.8755  0.9369
 2200TIP3    H230796   0.462   3.561   9.128  1.0733  0.4365 -0.6819
 2201TIP3   OH230797   2.225   2.393   9.003 -0.1984 -0.0015  0.3222
 2201TIP3    H130798   2.268   2.347   9.075  1.4457  0.4902 -0.2782
 2201TIP3    H230799   2.194   2.475   9.041  0.4713  0.1591  0.5367
 2202TIP3   OH230800   6.522   3.680   9.309 -0.3274  0.0144 -0.0679
 2202TIP3    H130801   6.600   3.659   9.360 -0.8455 -0.1497  0.6710
 2202TIP3    H230802   6.451   3.682   9.373 -1.0408 -0.4872 -0.8155
 2203TIP3   OH230803   1.103   4.407   8.998  0.3559 -0.2109  0.2829
 2203TIP3    H130804   1.134   4.412   8.908  1.1328 -0.7555  0.5159
 2203TIP3    H230805   1.108   4.497   9.030  2.7691 -0.4161  0.6545
 2204TIP3   OH230806   3.586   5.057   9.305 -0.4671  0.3614  0.1304
 2204TIP3    H130807   3.599   4.985   9.366 -0.1585 -1.3890 -1.8603
 2204TIP3    H230808   3.506   5.100   9.335 -1.7938 -2.0265  0.3259
 2205TIP3   OH230809   3.711   0.869   9.337 -0.0581  0.0761  0.0495
 2205TIP3    H130810   3.768   0.800   9.373  1.5212  2.0078  1.4796
 2205TIP3    H230811   3.638   0.874   9.399 -0.2206 -0.3413 -0.1027
 2206TIP3   OH230812   5.086   5.242   9.267  0.0858 -0.6211 -0.6523
 2206TIP3    H130813   5.009   5.198   9.302  1.6317 -1.3263  2.2441
 2206TIP3    H230814   5.079   5.332   9.301  1.0609 -1.0087  0.6491
 2207TIP3   OH230815   0.540   5.528   9.270  0.0383 -0.3207  0.4372
 2207TIP3    H130816   0.532   5.618   9.239 -2.5492 -2.1155 -5.5455
 2207TIP3    H230817   0.630   5.503   9.251 -0.1126  0.1421 -0.9287
 2208TIP3   OH230818   1.989   1.308   7.614 -0.5105  0.2875  0.7761
 2208TIP3    H130819   2.063   1.362   7.586 -1.2132  0.3175 -1.1425
 2208TIP3    H230820   1.921   1.370   7.638 -0.9803  0.2929 -0.4977
 2209TIP3   OH230821   1.793   6.165   6.426  0.2080 -0.2419 -0.8909
 2209TIP3    H130822   1.865   6.141   6.368 -0.5627 -0.3677 -1.8326
 2209TIP3    H230823   1.727   6.097   6.412 -0.4994  0.4086 -0.8150
 2210TIP3   OH230824   1.306   2.071   8.473  0.3539 -0.2612 -0.2008
 2210TIP3    H130825   1.229   2.116   8.436  0.0156 -0.5087  0.1951
 2210TIP3    H230826   1.319   1.995   8.416  1.0696  0.4508 -1.0130
 2211TIP3   OH230827   2.744   4.388   9.822  0.6459 -0.0764  0.4238
 2211TIP3    H130828   2.726   4.455   9.757 -0.0689 -0.8317 -0.1777
 2211TIP3    H230829   2.658   4.362   9.855  0.9527 -0.2516  1.1087
 2212TIP3   OH230830   3.607   2.014   7.952 -0.2485  0.0922 -0.1138
 2212TIP3    H130831   3.545   2.058   8.010 -0.5944 -0.6806  0.1197
 2212TIP3    H230832   3.672   1.976   8.011 -0.1217  0.0379 -0.2881
 2213TIP3   OH230833   3.920   1.394   7.800 -0.1910  0.3296  0.2526
 2213TIP3    H130834   3.988   1.395   7.733  0.0836 -0.8367  0.4989
 2213TIP3    H230835   3.899   1.487   7.814  0.8867  0.6738 -0.2829
 2214TIP3   OH230836   3.284   7.352   8.256  0.7021  0.7480 -0.1548
 2214TIP3    H130837   3.190   7.340   8.270  0.7600 -0.3072 -0.6117
 2214TIP3    H230838   3.302   7.439   8.293 -0.5388  1.1836 -0.5127
 2215TIP3   OH230839   5.212   7.048   8.999  0.1202 -0.5751  0.0542
 2215TIP3    H130840   5.120   7.042   9.024  0.4831 -3.4982  1.0651
 2215TIP3    H230841   5.211   7.064   8.905 -1.3798  0.0571  0.1584
 2216TIP3   OH230842   0.231   2.099   7.483  0.0676 -0.5040  0.2113
 2216TIP3    H130843   0.149   2.120   7.438 -0.5633 -0.0901  1.5021
 2216TIP3    H230844   0.229   2.004   7.494  0.0626 -0.5675 -0.3032
 2217TIP3   OH230845   6.784   2.261   8.913  0.1159 -0.0831 -0.3152
 2217TIP3    H130846   6.724   2.335   8.904 -0.3166 -0.4061 -0.0999
 2217TIP3    H230847   6.792   2.248   9.007  0.2870 -0.2356 -0.3501
 2218TIP3   OH230848   2.544   1.803   7.830 -0.2507  0.4248  0.9620
 2218TIP3    H130849   2.592   1.794   7.912  0.0015 -0.2291  0.7498
 2218TIP3    H230850   2.573   1.887   7.794  0.9837 -0.1033  0.6822
 2219TIP3   OH230851   4.186   7.437   8.341 -0.5289  0.4020  0.3877
 2219TIP3    H130852   4.094   7.411   8.347 -0.8726  1.1918 -1.0474
 2219TIP3    H230853   4.184   7.523   8.301  0.8579  0.3872  0.2475
 2220TIP3   OH230854   7.234   6.349   7.942  0.2999 -0.7732 -0.1595
 2220TIP3    H130855   7.270   6.378   7.858  0.4291 -2.6653 -0.7994
 2220TIP3    H230856   7.180   6.422   7.971 -2.9579 -1.3764 -3.8070
 2221TIP3   OH230857   1.675   5.329   7.744 -0.0260 -0.5636 -0.1777
 2221TIP3    H130858   1.665   5.238   7.717 -0.5988 -0.3707 -0.6467
 2221TIP3    H230859   1.650   5.380   7.667  0.9980 -0.0049 -0.1651
 2222TIP3   OH230860   0.539   7.109   7.380  0.0965 -0.2139 -0.2180
 2222TIP3    H130861   0.491   7.191   7.392  1.9986  1.1527 -1.4150
 2222TIP3    H230862   0.542   7.097   7.285  2.1857 -0.1532 -0.1975
 2223TIP3   OH230863   1.964   1.377   6.950  0.1257  0.2486 -0.0572
 2223TIP3    H130864   1.975   1.454   6.893 -0.5218 -0.0237 -0.5653
 2223TIP3    H230865   2.019   1.310   6.911  0.5696  0.4019  0.2971
 2224TIP3   OH230866   5.007   4.059   7.319 -0.3640 -0.2932  0.4217
 2224TIP3    H130867   5.001   4.128   7.253  1.6833  0.0208  0.4854
 2224TIP3    H230868   4.948   3.990   7.288 -0.9926  0.6886 -0.6403
 2225TIP3   OH230869   7.221   5.469   7.992 -0.2687  0.5295  0.0034
 2225TIP3    H130870   7.152   5.531   7.970 -0.9018  0.2383  1.0748
 2225TIP3    H230871   7.289   5.522   8.033  0.1688  0.8201 -1.0745
 2226TIP3   OH230872   7.407   3.515   8.944 -0.0641  0.5040  0.2918
 2226TIP3    H130873   7.372   3.470   9.021  1.0355 -0.4380  0.2691
 2226TIP3    H230874   7.359   3.598   8.941 -1.6988 -0.3920  0.6994
 2227TIP3   OH230875   2.489   0.657   8.786  0.1626 -0.1144  0.4588
 2227TIP3    H130876   2.428   0.725   8.758  1.8824  1.5425  0.4619
 2227TIP3    H230877   2.568   0.673   8.734  0.5329 -2.3461  0.2387
 2228TIP3   OH230878   6.099   3.300   8.503  0.3146 -0.5175 -0.0775
 2228TIP3    H130879   6.082   3.259   8.418 -1.7848 -1.1454  0.6092
 2228TIP3    H230880   6.059   3.387   8.496  0.6940 -0.3230  0.0817
 2229TIP3   OH230881   4.803   2.642   8.546 -0.3640 -0.4603 -0.2323
 2229TIP3    H130882   4.885   2.658   8.499  0.7233 -0.3749  1.6132
 2229TIP3    H230883   4.805   2.703   8.619  0.1701 -3.4763  2.4984
 2230TIP3   OH230884   2.452   2.223   8.810 -0.5392 -0.5248  0.3832
 2230TIP3    H130885   2.435   2.280   8.735 -0.0713 -0.6605  0.1673
 2230TIP3    H230886   2.429   2.135   8.779 -1.6636 -0.4104  0.8520
 2231TIP3   OH230887   3.968   6.664   8.898  0.3838 -0.1194 -0.4164
 2231TIP3    H130888   3.892   6.641   8.845  0.4471 -0.2563 -0.4480
 2231TIP3    H230889   4.032   6.698   8.834  0.4833 -0.3430 -0.4354
 2232TIP3   OH230890   0.336   6.723   7.190 -0.7032  0.3378  0.2854
 2232TIP3    H130891   0.259   6.765   7.228 -0.0641  0.2309  1.7635
 2232TIP3    H230892   0.360   6.655   7.252  0.2106 -0.0461 -0.4633
 2233TIP3   OH230893   0.427   0.074   7.100  0.5110  0.3793  0.2169
 2233TIP3    H130894   0.460   0.155   7.140  1.6344  0.2081 -0.3099
 2233TIP3    H230895   0.437   0.088   7.006 -1.1541  0.3796  0.0253
 2234TIP3   OH230896   6.764   1.216   9.549 -0.5118 -0.2135 -0.1942
 2234TIP3    H130897   6.763   1.304   9.586 -3.1425  0.0833 -0.8214
 2234TIP3    H230898   6.689   1.172   9.589 -1.1362 -1.1203 -2.2671
 2235TIP3   OH230899   3.705   6.049   8.415  0.0310  0.0653 -0.0121
 2235TIP3    H130900   3.717   5.967   8.462 -0.1728  0.4574  0.7463
 2235TIP3    H230901   3.660   6.024   8.334  0.0030 -0.5694  0.1959
 2236TIP3   OH230902   2.172   0.129   7.922  0.7353 -0.3408 -0.8546
 2236TIP3    H130903   2.146   0.065   7.856 -0.7259 -1.1547  0.4465
 2236TIP3    H230904   2.264   0.110   7.939  0.7174 -1.1257 -1.5449
 2237TIP3   OH230905   3.158   3.030   9.448 -0.4364  0.0377 -0.1125
 2237TIP3    H130906   3.165   2.938   9.471 -1.4914 -0.0461 -0.0621
 2237TIP3    H230907   3.164   3.032   9.352  1.2708  0.1041 -0.0184
 2238TIP3   OH230908   2.461   5.897   8.322  0.0414 -0.3061 -0.3186
 2238TIP3    H130909   2.527   5.851   8.373 -0.3273  0.4927  0.9291
 2238TIP3    H230910   2.388   5.909   8.382 -0.3396  0.8232 -0.9709
 2239TIP3   OH230911   1.013   3.619   7.289  0.2925 -0.3526 -0.3259
 2239TIP3    H130912   1.109   3.626   7.292  0.1789  1.0889  1.7915
 2239TIP3    H230913   0.988   3.666   7.209  1.2562  0.8908  0.0698
 2240TIP3   OH230914   3.478   1.531   8.006  0.1825 -0.2186 -0.3758
 2240TIP3    H130915   3.559   1.527   8.056  0.0682  0.6684 -0.1057
 2240TIP3    H230916   3.427   1.455   8.035  0.0012  0.4349  1.0574
 2241TIP3   OH230917   1.889   6.866   7.568  0.0688  0.0700  0.4895
 2241TIP3    H130918   1.824   6.812   7.523  2.3214 -1.7488 -0.8302
 2241TIP3    H230919   1.880   6.953   7.528  0.0015 -0.7521 -1.4083
 2242TIP3   OH230920   6.276   3.897   9.259  0.1617  0.4796 -0.4835
 2242TIP3    H130921   6.250   3.805   9.265 -1.0445  0.6717 -2.0659
 2242TIP3    H230922   6.220   3.942   9.321 -1.7763  0.5609 -2.1884
 2243TIP3   OH230923   4.703   0.757   8.004  0.2268 -0.3303 -0.0981
 2243TIP3    H130924   4.719   0.769   7.910  0.6938  1.1211  0.1444
 2243TIP3    H230925   4.789   0.733   8.040  0.4476  0.8726  0.2097
 2244TIP3   OH230926   3.193   2.767   9.435 -0.3819 -0.2632  0.7037
 2244TIP3    H130927   3.281   2.737   9.412  0.2377  0.4560  2.0481
 2244TIP3    H230928   3.135   2.709   9.386  0.7995  1.2424 -2.7318
 2245TIP3   OH230929   0.549   4.654   8.196 -0.0479 -0.1416 -0.1294
 2245TIP3    H130930   0.489   4.676   8.126 -0.3070 -1.5299 -0.3812
 2245TIP3    H230931   0.494   4.643   8.274  0.2747  1.7281  0.4115
 2246TIP3   OH230932   2.906   6.646   7.408  0.2631  0.3683  0.0797
 2246TIP3    H130933   2.923   6.605   7.323 -0.3861 -0.3854  0.2977
 2246TIP3    H230934   2.818   6.681   7.400  0.3986  0.7538  0.2710
 2247TIP3   OH230935   2.155   6.329   8.850  0.2912 -0.6791 -0.2047
 2247TIP3    H130936   2.159   6.391   8.923 -0.6309 -0.6950 -0.1335
 2247TIP3    H230937   2.181   6.379   8.773 -2.3698  0.3897 -0.5142
 2248TIP3   OH230938   7.498   3.931   7.273 -0.5368 -0.3838  0.2660
 2248TIP3    H130939   7.417   3.879   7.282 -0.8568 -0.1825 -1.1781
 2248TIP3    H230940   7.529   3.912   7.185 -0.6025  1.7695 -0.2905
 2249TIP3   OH230941   5.094   2.401   7.348  0.2590 -0.4803  0.2071
 2249TIP3    H130942   5.151   2.411   7.272 -0.7614 -1.2244 -0.6900
 2249TIP3    H230943   5.096   2.486   7.392 -0.2239  0.4230 -1.4350
 2250TIP3   OH230944   6.556   6.862   8.777  0.2765  0.7149 -0.4044
 2250TIP3    H130945   6.508   6.796   8.827  0.1944  1.8447  1.0600
 2250TIP3    H230946   6.525   6.849   8.687 -1.8604  0.5737  0.2780
 2251TIP3   OH230947   6.169   2.693   8.702  0.0919  0.3942 -0.8290
 2251TIP3    H130948   6.211   2.665   8.621  0.8064  1.5311 -0.8695
 2251TIP3    H230949   6.157   2.787   8.692 -0.1079  0.5004  0.2473
 2252TIP3   OH230950   5.946   6.568   7.913 -0.2273 -0.1909  0.2286
 2252TIP3    H130951   6.028   6.542   7.870 -0.1406  1.4119 -0.6297
 2252TIP3    H230952   5.900   6.621   7.849 -0.7315  1.1330  1.6186
 2253TIP3   OH230953   0.068   6.739   9.100 -0.2672 -0.6368 -0.0152
 2253TIP3    H130954   0.074   6.690   9.183  0.3208  1.5108  1.2900
 2253TIP3    H230955   0.093   6.828   9.123 -2.6578  0.6618 -1.9908
 2254TIP3   OH230956   7.285   1.060   8.859  0.4230 -0.6179 -0.1126
 2254TIP3    H130957   7.199   1.101   8.868 -0.2450 -1.7400 -1.0643
 2254TIP3    H230958   7.347   1.131   8.874 -0.6767  0.5833 -0.9870
 2255TIP3   OH230959   4.746   5.182   9.061 -0.2738  0.1826  0.6372
 2255TIP3    H130960   4.716   5.180   8.970 -1.8609 -2.4181  1.1221
 2255TIP3    H230961   4.807   5.108   9.067  2.0625  2.0177  1.0778
 2256TIP3   OH230962   4.466   6.675   8.117  0.0423  0.2008 -0.7189
 2256TIP3    H130963   4.554   6.641   8.102 -0.2955 -0.3841 -1.4438
 2256TIP3    H230964   4.420   6.604   8.163  0.0676  0.6666  0.0426
 2257TIP3   OH230965   0.917   2.878   7.541  0.0331  0.2747 -0.0474
 2257TIP3    H130966   0.956   2.804   7.587 -2.9528 -1.5349 -0.1460
 2257TIP3    H230967   0.930   2.858   7.448  0.3056  0.5276 -0.0652
 2258TIP3   OH230968   0.891   3.702   9.661  0.1984 -0.8182 -0.3317
 2258TIP3    H130969   0.946   3.759   9.715 -0.6841 -0.0726 -0.2084
 2258TIP3    H230970   0.906   3.732   9.571 -2.3693  1.5666 -0.0929
 2259TIP3   OH230971   6.665   4.969   8.237 -0.5568 -0.2041 -0.2661
 2259TIP3    H130972   6.674   4.890   8.183 -0.6706 -0.3514 -0.0749
 2259TIP3    H230973   6.647   4.935   8.325  0.3223  0.0124  0.0107
 2260TIP3   OH230974   6.504   6.745   7.465  0.6074  0.4350 -0.0360
 2260TIP3    H130975   6.576   6.739   7.528  0.8472  0.4767 -0.3014
 2260TIP3    H230976   6.546   6.731   7.380  0.9799  4.0308 -0.6196
 2261TIP3   OH230977   2.551   0.656   8.202  0.0339 -0.2617 -0.0244
 2261TIP3    H130978   2.561   0.570   8.242 -1.8914 -0.1918  0.7067
 2261TIP3    H230979   2.523   0.637   8.112  1.3456 -0.3765 -0.4380
 2262TIP3   OH230980   4.889   0.249   7.656  0.5176  0.2437 -0.2304
 2262TIP3    H130981   4.901   0.188   7.730 -0.1467 -0.6943 -0.8778
 2262TIP3    H230982   4.887   0.193   7.579 -1.1104  0.9749 -0.7669
 2263TIP3   OH230983   0.259   4.022   7.353 -0.0784 -0.5650 -0.4351
 2263TIP3    H130984   0.177   4.069   7.338 -0.7538 -1.5054  0.2531
 2263TIP3    H230985   0.246   3.937   7.312  0.4978 -0.7789 -0.1887
 2264TIP3   OH230986   0.483   3.183   7.854 -0.1299  0.4342  0.9255
 2264TIP3    H130987   0.502   3.091   7.875  0.9230  0.0846 -1.2621
 2264TIP3    H230988   0.402   3.202   7.901 -1.4845 -2.2466 -0.0769
 2265TIP3   OH230989   5.551   0.949   8.636  0.1311  0.0430  0.3001
 2265TIP3    H130990   5.626   0.937   8.578 -0.9296 -1.0287 -0.9001
 2265TIP3    H230991   5.579   0.912   8.719  0.6056 -1.2416 -0.4104
 2266TIP3   OH230992   3.742   2.260   8.160 -0.0795 -0.7030 -0.4633
 2266TIP3    H130993   3.772   2.272   8.070 -0.9889  0.8627 -0.5887
 2266TIP3    H230994   3.648   2.246   8.152 -0.1462 -0.6905  0.2468
 2267TIP3   OH230995   1.553   1.766   7.889 -0.1400 -0.0525  0.1998
 2267TIP3    H130996   1.634   1.808   7.861 -0.7342  0.8418 -0.2328
 2267TIP3    H230997   1.538   1.697   7.824 -0.4284  0.6717 -0.5211
 2268TIP3   OH230998   5.048   4.243   9.501 -0.1437 -0.8535 -0.1427
 2268TIP3    H130999   4.990   4.206   9.568 -0.5898 -0.3766 -0.2565
 2268TIP3    H231000   4.993   4.306   9.455  0.4524 -0.4398 -0.2975
 2269TIP3   OH231001   0.568   6.299   7.135  0.0914  0.2427  0.0460
 2269TIP3    H131002   0.633   6.368   7.150  1.8281 -1.1733 -0.5569
 2269TIP3    H231003   0.531   6.319   7.049 -0.9685  1.5595  0.7760
 2270TIP3   OH231004   7.501   2.008   7.861  0.1416  0.1535  0.2156
 2270TIP3    H131005   7.429   1.974   7.808  0.8468 -1.0736  0.0063
 2270TIP3    H231006   7.512   1.943   7.930  1.9407 -0.4487 -0.5688
 2271TIP3   OH231007   0.957   0.601   7.496  0.1655 -0.1877  0.4480
 2271TIP3    H131008   0.876   0.633   7.457  0.9492  1.7557  0.2982
 2271TIP3    H231009   0.995   0.678   7.540  2.4163 -0.7594 -0.3488
 2272TIP3   OH231010   4.066   0.504   8.940  0.0723  0.3870  0.5464
 2272TIP3    H131011   4.004   0.469   8.876  2.1826 -2.3981 -0.1910
 2272TIP3    H231012   4.019   0.500   9.024 -1.1643 -0.4331 -0.1512
 2273TIP3   OH231013   2.590   4.563   7.084  0.1879 -0.2968  0.4946
 2273TIP3    H131014   2.616   4.643   7.038 -0.4837 -0.4483 -0.1733
 2273TIP3    H231015   2.496   4.554   7.065 -0.4067  0.2384  2.8104
 2274TIP3   OH231016   6.332   1.538   7.569 -0.2295  0.0022 -0.5666
 2274TIP3    H131017   6.387   1.467   7.601  1.7411  1.4368 -0.5973
 2274TIP3    H231018   6.266   1.495   7.515  0.6240 -1.8314 -0.2224
 2275TIP3   OH231019   0.333   6.930   8.931 -0.4716  0.3652 -0.1541
 2275TIP3    H131020   0.373   6.994   8.872 -0.8462 -0.9832 -1.9658
 2275TIP3    H231021   0.342   6.969   9.018  0.5345  2.2279 -1.0214
 2276TIP3   OH231022   2.325   0.430   8.833 -0.0065  0.1126  1.0080
 2276TIP3    H131023   2.366   0.516   8.823 -1.3348  0.7251  0.4234
 2276TIP3    H231024   2.236   0.450   8.864 -2.1321 -0.5570 -3.7459
 2277TIP3   OH231025   6.232   1.097   8.152  0.3719 -0.0669  0.5656
 2277TIP3    H131026   6.160   1.130   8.099  0.0195 -0.8424  0.5519
 2277TIP3    H231027   6.225   1.001   8.147  1.6346 -0.1630  0.2360
 2278TIP3   OH231028   6.260   0.858   8.999 -0.9451 -0.4702  0.2304
 2278TIP3    H131029   6.286   0.849   8.907 -0.2761 -0.6338  0.4332
 2278TIP3    H231030   6.333   0.904   9.040 -1.7351  0.6294  0.4447
 2279TIP3   OH231031   3.924   4.024   7.970  0.2656 -0.6174 -0.2700
 2279TIP3    H131032   3.841   3.983   7.944 -0.6679  0.4892  0.8075
 2279TIP3    H231033   3.982   4.011   7.895 -1.5107  0.2510 -1.8882
 2280TIP3   OH231034   0.505   5.107   7.300  0.3090  0.2151  0.1758
 2280TIP3    H131035   0.491   5.171   7.231  0.8959  0.1663  0.0057
 2280TIP3    H231036   0.528   5.159   7.377 -2.4251  0.4272  0.9476
 2281TIP3   OH231037   1.914   0.357   8.351 -0.0345  0.0728  0.1759
 2281TIP3    H131038   1.880   0.417   8.284 -0.0686  0.0019  0.1308
 2281TIP3    H231039   1.836   0.326   8.397 -0.1764 -1.3905 -1.0080
 2282TIP3   OH231040   5.742   2.136   9.200  0.3957  0.0453  0.0544
 2282TIP3    H131041   5.780   2.116   9.286 -0.3035 -1.6231  0.0189
 2282TIP3    H231042   5.808   2.105   9.137  0.7478  0.9330 -0.0251
 2283TIP3   OH231043   6.216   2.793   7.826 -0.3228  0.1874  0.1528
 2283TIP3    H131044   6.268   2.714   7.843 -1.5307 -0.5793  0.4341
 2283TIP3    H231045   6.258   2.861   7.878 -1.9644 -1.3379  3.8107
 2284TIP3   OH231046   0.154   4.817   8.195  0.4227  0.2088 -0.1730
 2284TIP3    H131047   0.165   4.822   8.100  2.5983 -0.5146 -0.0082
 2284TIP3    H231048   0.193   4.898   8.228  0.7733 -0.0890  0.1560
 2285TIP3   OH231049   0.539   3.476   8.792  0.2988 -0.3579 -0.3310
 2285TIP3    H131050   0.504   3.486   8.880  1.8313  0.5872  0.2238
 2285TIP3    H231051   0.572   3.386   8.789 -1.4442 -1.0083 -0.6151
 2286TIP3   OH231052   0.682   0.567   8.850  0.6238  0.4213 -0.1559
 2286TIP3    H131053   0.652   0.646   8.895 -0.2184  0.4291 -0.7022
 2286TIP3    H231054   0.719   0.512   8.919  0.2931  0.8660  0.3804
 2287TIP3   OH231055   6.500   3.744   8.556 -0.3300 -0.0026 -0.7658
 2287TIP3    H131056   6.511   3.838   8.536 -1.8537  0.0617 -1.3950
 2287TIP3    H231057   6.527   3.736   8.648 -1.3909  1.3049 -0.3057
 2288TIP3   OH231058   1.862   2.714   9.029  0.3643 -0.2111 -0.0725
 2288TIP3    H131059   1.853   2.621   9.050  1.1999 -0.0232  1.1982
 2288TIP3    H231060   1.932   2.717   8.963  2.2577 -0.2934  1.8443
 2289TIP3   OH231061   1.633   1.587   9.297  0.0164  0.0336  0.2450
 2289TIP3    H131062   1.645   1.552   9.209  0.4456 -0.3028  0.4382
 2289TIP3    H231063   1.538   1.587   9.311  0.0440 -3.0267  1.0378
 2290TIP3   OH231064   1.444   3.440   9.110  0.2440 -0.1500  0.3407
 2290TIP3    H131065   1.521   3.455   9.166  0.9088 -1.1176 -0.2717
 2290TIP3    H231066   1.418   3.350   9.130 -0.3098 -0.0587  0.0377
 2291TIP3   OH231067   7.254   2.709   9.085  0.2564 -0.4569  0.1373
 2291TIP3    H131068   7.324   2.676   9.141  0.1656 -1.2831 -0.2314
 2291TIP3    H231069   7.190   2.639   9.082 -0.1625 -0.0656 -0.2762
 2292TIP3   OH231070   1.265   5.329   7.950  0.7782  0.0619  0.1908
 2292TIP3    H131071   1.258   5.239   7.981 -1.4624  0.1517  0.0589
 2292TIP3    H231072   1.359   5.349   7.954  1.5286 -2.7521 -1.1746
 2293TIP3   OH231073   6.515   1.628   9.587  0.3109 -0.0893  0.2158
 2293TIP3    H131074   6.480   1.715   9.608  0.1047 -0.5260  1.8251
 2293TIP3    H231075   6.445   1.587   9.536 -0.2581  0.1428  0.7863
 2294TIP3   OH231076   6.695   5.767   8.864  0.6237  0.0158 -0.5268
 2294TIP3    H131077   6.766   5.777   8.928  1.8720 -2.6073 -1.3440
 2294TIP3    H231078   6.728   5.808   8.785  1.3119 -1.2105 -0.9094
 2295TIP3   OH231079   5.610   5.531   7.427  0.2057  0.8792 -0.2048
 2295TIP3    H131080   5.587   5.557   7.516  1.0957  2.0875 -0.3086
 2295TIP3    H231081   5.528   5.535   7.378 -0.5389 -0.9340  0.7845
 2296TIP3   OH231082   6.269   6.416   7.512  0.4751  0.0292  0.1318
 2296TIP3    H131083   6.239   6.350   7.450 -0.7580  0.0756  0.6548
 2296TIP3    H231084   6.362   6.398   7.523  0.6891 -0.1021 -1.5680
 2297TIP3   OH231085   2.763   2.663   9.135  0.1739 -0.2564 -0.7285
 2297TIP3    H131086   2.678   2.639   9.098  0.4000  0.6778 -1.8932
 2297TIP3    H231087   2.815   2.582   9.128 -1.1870 -1.4946  1.9306
 2298TIP3   OH231088   5.880   2.759   7.880 -0.6579 -0.2743 -0.6043
 2298TIP3    H131089   5.823   2.835   7.869 -1.6352 -0.9079 -0.0607
 2298TIP3    H231090   5.876   2.738   7.973  1.2423  0.2326 -0.3586
 2299TIP3   OH231091   2.072   0.477   7.611 -0.6244 -0.0128 -0.1224
 2299TIP3    H131092   2.031   0.436   7.687  0.0509 -0.1211  0.1840
 2299TIP3    H231093   1.998   0.502   7.555 -1.0690 -1.9508 -0.4882
 2300TIP3   OH231094   5.025   0.684   7.409  0.7053 -0.5625 -0.1827
 2300TIP3    H131095   4.948   0.738   7.391  0.8295 -0.6045 -0.8648
 2300TIP3    H231096   4.998   0.596   7.385  1.1565 -0.4855 -0.9929
 2301TIP3   OH231097   1.936   5.878   9.101  0.1343  0.5357 -0.2432
 2301TIP3    H131098   1.919   5.843   9.189  0.3977 -0.8611 -0.7288
 2301TIP3    H231099   1.996   5.951   9.116 -1.3790  1.6318  0.9058
 2302TIP3   OH231100   3.057   7.202   8.761 -0.3417 -0.1784  0.4043
 2302TIP3    H131101   3.043   7.251   8.680 -1.9324 -0.2552  0.5918
 2302TIP3    H231102   3.000   7.126   8.754 -3.1041  1.4135  2.8615
 2303TIP3   OH231103   5.934   4.831   8.877  0.2058 -0.8475 -0.2347
 2303TIP3    H131104   5.996   4.784   8.821  1.2641  1.1183 -0.8060
 2303TIP3    H231105   5.967   4.818   8.966 -0.0716 -1.9531 -0.2838
 2304TIP3   OH231106   1.542   3.933   7.666 -0.0869  0.0021  0.7606
 2304TIP3    H131107   1.556   4.027   7.672 -0.9396  0.0750  1.9491
 2304TIP3    H231108   1.451   3.924   7.638 -0.3835 -0.4543  1.8291
 2305TIP3   OH231109   6.718   2.000   9.208  0.1222 -0.0629 -0.5265
 2305TIP3    H131110   6.787   2.062   9.234 -0.9841  1.0496 -0.1407
 2305TIP3    H231111   6.650   2.056   9.169 -0.0660 -1.2538 -1.9915
 2306TIP3   OH231112   4.626   0.211   7.993  0.2876 -0.0962  0.5842
 2306TIP3    H131113   4.568   0.287   7.996 -0.7328 -0.7788 -0.4185
 2306TIP3    H231114   4.710   0.245   7.963 -0.0917  0.6800  0.3808
 2307TIP3   OH231115   3.795   3.300   9.218  0.6610  0.3346 -0.0792
 2307TIP3    H131116   3.826   3.249   9.293 -1.5506 -0.0308  0.6866
 2307TIP3    H231117   3.748   3.374   9.257 -0.7730 -0.0121 -1.0556
 2308TIP3   OH231118   5.841   1.444   9.516  0.1456 -0.3926 -0.4784
 2308TIP3    H131119   5.846   1.398   9.600  0.1648 -1.3860 -1.0142
 2308TIP3    H231120   5.754   1.422   9.482  1.1901 -2.4182 -2.0510
 2309TIP3   OH231121   5.154   2.611   9.398  0.0900  0.1756 -0.3576
 2309TIP3    H131122   5.156   2.610   9.302  1.0156 -1.6029 -0.3532
 2309TIP3    H231123   5.157   2.704   9.420  0.5683  0.6073 -2.0539
 2310TIP3   OH231124   3.967   3.187   8.723 -0.7616  0.7603 -0.2149
 2310TIP3    H131125   3.922   3.222   8.646  0.2847  1.7034 -0.4203
 2310TIP3    H231126   4.029   3.256   8.748 -1.2403  0.5794  1.6221
 2311TIP3   OH231127   6.825   3.680   7.717 -0.0319  0.4072  0.0496
 2311TIP3    H131128   6.736   3.682   7.683 -0.2281  1.9776  0.5480
 2311TIP3    H231129   6.879   3.712   7.645 -0.1822  1.6864  0.4830
 2312TIP3   OH231130   0.647   5.009   8.977 -0.3196 -0.4129 -0.7569
 2312TIP3    H131131   0.696   4.954   9.038  1.8323  0.9566 -1.1208
 2312TIP3    H231132   0.669   5.099   9.004 -1.6444  0.2468 -1.7776
 2313TIP3   OH231133   6.462   2.015   7.698 -0.4938  1.0468  0.3953
 2313TIP3    H131134   6.413   2.064   7.632 -2.2412  1.3342  1.8588
 2313TIP3    H231135   6.551   2.052   7.693 -0.3479  0.5515 -2.2544
 2314TIP3   OH231136   4.039   4.174   8.242 -0.4773 -0.2423 -0.4713
 2314TIP3    H131137   3.988   4.249   8.211 -0.5221  0.5486  1.4306
 2314TIP3    H231138   4.048   4.188   8.336  0.2966 -2.1693 -0.2200
 2315TIP3   OH231139   1.928   1.812   8.151 -0.2838  0.0834  0.1306
 2315TIP3    H131140   1.850   1.763   8.179 -0.1262 -2.3411 -3.0211
 2315TIP3    H231141   2.001   1.755   8.175  0.4725  1.6173  1.6445
 2316TIP3   OH231142   6.433   6.040   6.536 -0.4032  0.0540 -0.0064
 2316TIP3    H131143   6.401   6.122   6.500 -0.6388 -0.1775 -0.3243
 2316TIP3    H231144   6.524   6.059   6.561  0.3598 -0.2540 -2.3516
 2317TIP3   OH231145   4.262   4.648   8.984 -0.0684 -0.0201 -0.5019
 2317TIP3    H131146   4.262   4.583   9.054  1.7297  0.6602  0.1746
 2317TIP3    H231147   4.355   4.663   8.965 -0.4771 -0.1734 -3.0441
 2318TIP3   OH231148   6.032   6.503   7.648 -0.5294 -0.0916 -0.0271
 2318TIP3    H131149   6.122   6.490   7.616 -0.8942  0.3664 -1.2858
 2318TIP3    H231150   5.982   6.526   7.570 -1.5865  0.4846  0.7962
 2319TIP3   OH231151   1.550   7.357   7.955  0.4695  0.2108 -0.2555
 2319TIP3    H131152   1.513   7.425   7.900  2.9349 -0.5010 -3.0431
 2319TIP3    H231153   1.509   7.276   7.926  0.2964  0.0568  0.4024
 2320TIP3   OH231154   5.611   1.228   8.765 -0.3130 -0.0183  0.4901
 2320TIP3    H131155   5.700   1.240   8.733 -0.8157 -0.8861 -1.3763
 2320TIP3    H231156   5.555   1.253   8.691 -1.5583 -1.4010  0.9060
 2321TIP3   OH231157   7.500   6.808   7.953  0.8201  0.2267  0.2258
 2321TIP3    H131158   7.522   6.715   7.954  1.4925  0.3781  1.5327
 2321TIP3    H231159   7.558   6.846   7.887  1.5241 -0.0746  0.6581
 2322TIP3   OH231160   0.672   6.766   9.218 -0.1144 -0.4116  0.0532
 2322TIP3    H131161   0.701   6.839   9.163  2.4981  0.2789  2.1620
 2322TIP3    H231162   0.592   6.799   9.260 -0.3227  0.2584 -0.8227
 2323TIP3   OH231163   7.336   7.001   7.144 -0.1158 -0.0786 -0.0048
 2323TIP3    H131164   7.276   6.927   7.152  2.7590 -2.6387 -0.1563
 2323TIP3    H231165   7.348   7.012   7.050  0.3971 -0.2597  0.0356
 2324TIP3   OH231166   2.797   3.646   7.982  0.8671 -0.1386  0.3945
 2324TIP3    H131167   2.714   3.604   7.961 -0.0690  1.4981  0.6048
 2324TIP3    H231168   2.847   3.580   8.029 -0.6792 -0.8909  1.0442
 2325TIP3   OH231169   1.176   0.701   8.620 -0.0458 -0.1868  0.8303
 2325TIP3    H131170   1.091   0.682   8.582  1.1625 -0.4892 -2.0129
 2325TIP3    H231171   1.220   0.615   8.625  0.0723 -0.0563  2.3771
 2326TIP3   OH231172   3.891   1.333   9.724  0.4613 -0.0155  0.5707
 2326TIP3    H131173   3.934   1.326   9.639  2.6281 -1.9135  1.7198
 2326TIP3    H231174   3.850   1.247   9.737  0.9372 -0.0872  1.7913
 2327TIP3   OH231175   0.676   2.866   8.157 -0.5983  0.3443  0.1093
 2327TIP3    H131176   0.616   2.941   8.158 -0.8180  0.1764 -0.2666
 2327TIP3    H231177   0.716   2.866   8.244  2.9254  3.7348 -1.2248
 2328TIP3   OH231178   6.202   6.467   8.689  0.4016  0.4610 -0.2277
 2328TIP3    H131179   6.257   6.473   8.611  1.1550  2.1476  0.3919
 2328TIP3    H231180   6.119   6.508   8.662  0.2204 -0.0762 -0.4991
 2329TIP3   OH231181   2.732   0.763   7.234  0.5908 -0.4395  0.6923
 2329TIP3    H131182   2.823   0.793   7.232  0.5437 -0.1537  2.0221
 2329TIP3    H231183   2.683   0.832   7.190  1.1481 -1.2649 -1.3873
 2330TIP3   OH231184   4.585   5.064   8.096 -0.0038  0.0982  0.4638
 2330TIP3    H131185   4.525   5.083   8.024  1.0184  0.2983 -0.3548
 2330TIP3    H231186   4.592   4.969   8.097  0.1131  0.1031  0.1885
 2331TIP3   OH231187   0.265   1.045   8.312 -0.4633  0.6474  0.3366
 2331TIP3    H131188   0.269   1.140   8.318 -2.2001  0.7139  0.8199
 2331TIP3    H231189   0.217   1.027   8.231  0.2786  0.1433 -0.0171
 2332TIP3   OH231190   4.149   3.471   8.147  0.5811 -0.5261 -0.3482
 2332TIP3    H131191   4.141   3.418   8.068  0.0773 -0.0007 -0.6601
 2332TIP3    H231192   4.071   3.451   8.198 -0.0006  0.4466 -0.8128
 2333TIP3   OH231193   6.095   5.443   8.085  0.8297 -0.0623 -0.4722
 2333TIP3    H131194   6.167   5.492   8.124  0.3508  0.8395 -0.6924
 2333TIP3    H231195   6.016   5.485   8.119  0.3929 -1.2030 -0.0289
 2334TIP3   OH231196   1.646   5.166   8.968 -0.1212  0.0713 -0.2264
 2334TIP3    H131197   1.734   5.130   8.959 -0.9391 -1.8707 -1.0456
 2334TIP3    H231198   1.649   5.216   9.049  1.8162  0.3588 -0.4151
 2335TIP3   OH231199   7.386   7.274   8.101  0.0204 -0.1739 -0.1562
 2335TIP3    H131200   7.306   7.327   8.109 -0.3061 -0.8365  1.3443
 2335TIP3    H231201   7.457   7.338   8.102 -0.3183  0.2673  2.5246
 2336TIP3   OH231202   0.828   6.533   6.750 -0.2107  0.9658  0.5976
 2336TIP3    H131203   0.844   6.439   6.761 -2.0268  0.7247  1.5987
 2336TIP3    H231204   0.869   6.573   6.827  0.4112  0.9757  0.2627
 2337TIP3   OH231205   1.006   6.396   9.717  0.0792 -0.3311 -0.1551
 2337TIP3    H131206   1.081   6.417   9.772  1.3493 -1.1757 -1.4827
 2337TIP3    H231207   1.043   6.345   9.645 -1.3436  1.4733 -2.2942
 2338TIP3   OH231208   6.316   4.257   7.841  0.4025  0.4509  0.0416
 2338TIP3    H131209   6.400   4.258   7.886  1.7921 -1.0249 -2.2946
 2338TIP3    H231210   6.330   4.306   7.761 -1.1506  0.6421 -0.1551
 2339TIP3   OH231211   2.678   5.453   6.939 -0.1986 -0.4563  0.4899
 2339TIP3    H131212   2.715   5.494   6.861 -1.4981 -0.2350 -0.0406
 2339TIP3    H231213   2.717   5.500   7.013  0.1125  0.1530 -0.0595
 2340TIP3   OH231214   4.675   4.290   7.718 -0.3698 -0.5344  0.3027
 2340TIP3    H131215   4.612   4.303   7.647 -0.5396  0.0619  0.5602
 2340TIP3    H231216   4.643   4.213   7.765  0.3756 -1.6700 -0.9497
 2341TIP3   OH231217   6.054   6.482   9.681  0.1958 -0.2764 -0.5107
 2341TIP3    H131218   6.111   6.557   9.698  1.2740 -1.1684 -0.0802
 2341TIP3    H231219   6.094   6.438   9.606  0.5557 -1.3529  0.2823
 2342TIP3   OH231220   0.257   4.960   7.586 -1.4421 -0.5073  0.3969
 2342TIP3    H131221   0.211   5.043   7.579  0.5238  0.5796 -0.6553
 2342TIP3    H231222   0.297   4.962   7.673 -0.4829  0.1965 -0.0426
 2343TIP3   OH231223   3.611   2.593   7.062 -0.0566 -0.2722 -0.5624
 2343TIP3    H131224   3.683   2.649   7.035  0.8341 -1.3896 -0.5770
 2343TIP3    H231225   3.651   2.528   7.119 -0.9405 -1.2629 -1.0237
 2344TIP3   OH231226   1.925   5.096   8.954  0.1097 -0.4535 -0.6954
 2344TIP3    H131227   1.973   5.145   8.888  0.1781 -0.2217 -0.4731
 2344TIP3    H231228   1.983   5.024   8.979  0.4666 -0.0077 -0.2164
 2345TIP3   OH231229   4.765   7.324   8.292 -0.8730 -0.2373 -0.6426
 2345TIP3    H131230   4.739   7.241   8.333 -2.5538  0.7727  0.4370
 2345TIP3    H231231   4.775   7.302   8.199 -1.8121 -1.5466 -0.4642
 2346TIP3   OH231232   1.515   1.258   7.710  0.1706  0.3755  0.0237
 2346TIP3    H131233   1.535   1.276   7.619 -1.9036  0.1973 -0.5120
 2346TIP3    H231234   1.599   1.236   7.749  1.1659  0.9074 -1.7214
 2347TIP3   OH231235   4.910   7.397   9.638 -0.0112  0.1178 -0.0893
 2347TIP3    H131236   4.863   7.387   9.720  0.6937  3.1010  0.8073
 2347TIP3    H231237   4.978   7.331   9.641 -1.5509 -1.5222  0.4817
 2348TIP3   OH231238   0.981   1.285   9.463  0.0204 -0.2820  0.0504
 2348TIP3    H131239   0.928   1.290   9.543  0.0368 -1.0590  0.1217
 2348TIP3    H231240   1.058   1.234   9.490  0.0563 -0.4886 -0.4475
 2349TIP3   OH231241   4.566   3.825   9.070  0.5017 -0.6668  0.5668
 2349TIP3    H131242   4.624   3.888   9.112 -0.6423  0.1912  0.8794
 2349TIP3    H231243   4.521   3.782   9.143 -1.7417  1.0631  0.3005
 2350TIP3   OH231244   0.066   2.554   9.070  0.2783 -0.3907 -0.0423
 2350TIP3    H131245   0.095   2.636   9.029 -0.4235 -0.6057 -1.0094
 2350TIP3    H231246  -0.001   2.521   9.010  0.9004 -1.9174  0.0781
 2351TIP3   OH231247   5.056   1.927   8.785  0.1973  0.1337  0.0904
 2351TIP3    H131248   4.968   1.921   8.822  0.3599  0.9959  0.6285
 2351TIP3    H231249   5.095   2.005   8.825  0.5481  0.8367 -1.5360
 2352TIP3   OH231250   5.600   5.045   9.197  0.1953  0.3282  0.2475
 2352TIP3    H131251   5.536   5.008   9.258  2.2304 -1.4910  1.4324
 2352TIP3    H231252   5.549   5.103   9.141 -1.9660  1.3500  3.0384
 2353TIP3   OH231253   0.970   1.820   8.454 -0.1796 -0.2350 -0.5304
 2353TIP3    H131254   0.903   1.752   8.449  0.6425 -1.0897 -0.1929
 2353TIP3    H231255   0.954   1.863   8.538  1.4277 -2.3596  0.9816
 2354TIP3   OH231256   1.026   0.796   7.716 -0.5486  0.5677  0.0605
 2354TIP3    H131257   1.082   0.740   7.769 -1.1717  0.4139  0.5708
 2354TIP3    H231258   1.085   0.862   7.680  0.4773 -1.2513 -1.7696
 2355TIP3   OH231259   2.941   6.788   8.739  0.5932 -0.0358 -0.1692
 2355TIP3    H131260   2.957   6.848   8.666  1.1482 -0.2059 -0.1899
 2355TIP3    H231261   2.902   6.711   8.699 -1.5124  0.8673  0.0312
 2356TIP3   OH231262   0.002   3.438   8.454  0.1177  0.1356  0.0416
 2356TIP3    H131263   0.062   3.415   8.383  1.6959 -0.8411  1.5994
 2356TIP3    H231264  -0.083   3.407   8.425  0.4342  1.0329 -1.9936
 2357TIP3   OH231265   0.020   1.453   7.387 -0.1871  0.0304  0.2338
 2357TIP3    H131266   0.052   1.364   7.369 -0.9117 -0.2584  0.3412
 2357TIP3    H231267   0.094   1.510   7.365  0.1542 -0.5704 -0.1998
 2358TIP3   OH231268   4.237   5.182   8.432  0.2923 -0.4190  0.3153
 2358TIP3    H131269   4.270   5.260   8.477 -1.1168 -0.8679  2.2195
 2358TIP3    H231270   4.308   5.119   8.437  1.8668  0.9981 -2.1765
 2359TIP3   OH231271   7.289   6.899   9.531  0.4653  0.3991 -0.3605
 2359TIP3    H131272   7.365   6.956   9.525  0.2995  0.5120 -1.6653
 2359TIP3    H231273   7.232   6.926   9.459 -1.3219  1.0144  1.2003
 2360TIP3   OH231274   6.317   2.149   6.678 -0.0293 -0.7699 -0.4251
 2360TIP3    H131275   6.323   2.200   6.597 -0.3225  2.4390  1.3888
 2360TIP3    H231276   6.226   2.118   6.679 -0.6360  0.8795 -0.4546
 2361TIP3   OH231277   0.555   6.696   7.777  0.6886  0.2585 -0.2638
 2361TIP3    H131278   0.557   6.699   7.682  0.0703 -0.7559 -0.3166
 2361TIP3    H231279   0.475   6.743   7.801  0.3603 -0.2739 -0.2956
 2362TIP3   OH231280   3.215   5.455   8.319 -0.2137  0.6342  0.1103
 2362TIP3    H131281   3.188   5.539   8.356  0.7203  0.5946  0.9124
 2362TIP3    H231282   3.273   5.479   8.246  0.4818  0.6977  0.6719
 2363TIP3   OH231283   3.939   5.821   7.929 -0.0384 -0.3634  0.0780
 2363TIP3    H131284   3.927   5.898   7.984 -0.0795 -0.1985 -0.1621
 2363TIP3    H231285   3.852   5.800   7.896 -0.5853 -2.2088  2.3762
 2364TIP3   OH231286   6.335   7.007   9.161  0.1921  0.0873  0.0509
 2364TIP3    H131287   6.281   7.067   9.110  0.8644  1.2074  0.5996
 2364TIP3    H231288   6.424   7.041   9.151  0.3552  0.3358  1.8940
 2365TIP3   OH231289   3.826   1.867   8.686  0.3724  0.1468  0.0153
 2365TIP3    H131290   3.907   1.919   8.683 -0.7514  1.9740 -0.3108
 2365TIP3    H231291   3.756   1.932   8.692 -1.1882 -1.3143 -1.3602
 2366TIP3   OH231292   6.247   6.184   8.604  0.2328  0.0337  0.1986
 2366TIP3    H131293   6.237   6.275   8.633 -1.3544 -0.5912  1.8885
 2366TIP3    H231294   6.340   6.164   8.617 -0.0001  0.4103  3.3151
 2367TIP3   OH231295   0.307   7.484   8.963  0.1527 -0.2679 -0.7549
 2367TIP3    H131296   0.294   7.513   8.872  0.1219  0.7298 -0.4422
 2367TIP3    H231297   0.285   7.561   9.016 -2.1773 -1.4964  0.2379
 2368TIP3   OH231298   6.474   0.252   7.882 -0.3043  0.3415 -0.4465
 2368TIP3    H131299   6.559   0.229   7.844  0.3505  0.0973  1.0852
 2368TIP3    H231300   6.424   0.170   7.881  1.3416 -0.9110  3.2401
 2369TIP3   OH231301   5.709   0.307   8.786 -0.2058 -0.1230  0.1691
 2369TIP3    H131302   5.656   0.355   8.850 -1.2168 -1.6915  0.5736
 2369TIP3    H231303   5.668   0.220   8.781 -0.4068  0.0377 -2.8898
 2370TIP3   OH231304   1.363   5.453   8.296 -0.0361  0.0590 -0.5756
 2370TIP3    H131305   1.449   5.436   8.335  1.3936  0.3322 -3.3632
 2370TIP3    H231306   1.321   5.366   8.293 -0.0935 -0.0144  1.1730
 2371TIP3   OH231307   0.404   5.564   7.349 -0.0928  0.4525  0.1937
 2371TIP3    H131308   0.417   5.602   7.435 -2.6941  0.5525  0.6197
 2371TIP3    H231309   0.463   5.488   7.347  0.8923  1.1492  1.5562
 2372TIP3   OH231310   3.891   0.661   6.760 -0.7692 -0.2453 -0.7737
 2372TIP3    H131311   3.897   0.666   6.855  2.0595 -1.7786 -0.7565
 2372TIP3    H231312   3.831   0.588   6.743 -0.9157 -0.2655 -0.1691
 2373TIP3   OH231313   3.940   1.635   7.145  0.6138 -0.5999  0.2267
 2373TIP3    H131314   4.017   1.691   7.134  0.8065 -1.2810 -2.9039
 2373TIP3    H231315   3.972   1.557   7.189  1.9808 -1.2189 -1.7490
 2374TIP3   OH231316   0.287   3.605   7.650  0.4131 -0.0155  0.2682
 2374TIP3    H131317   0.265   3.686   7.604 -0.1627  0.4197  1.2623
 2374TIP3    H231318   0.382   3.611   7.664  0.1514  1.4193  1.9261
 2375TIP3   OH231319   6.716   6.969   9.448 -0.6949 -0.2609  0.0901
 2375TIP3    H131320   6.665   6.932   9.377  0.0398  0.1167 -0.6525
 2375TIP3    H231321   6.654   6.976   9.521 -0.9727 -2.4442  0.1118
 2376TIP3   OH231322   1.200   2.806   7.295  0.0990  0.1602  0.0003
 2376TIP3    H131323   1.114   2.812   7.254 -0.4351  0.3455  1.1024
 2376TIP3    H231324   1.202   2.880   7.356  1.0271  0.1340  0.0082
 2377TIP3   OH231325   3.009   4.858   8.351  0.1600  0.1618 -0.4447
 2377TIP3    H131326   2.949   4.926   8.323  0.5706  0.7123 -0.0092
 2377TIP3    H231327   2.959   4.805   8.414  0.0621  0.4785 -0.2564
 2378TIP3   OH231328   1.960   6.495   7.550 -0.3834  0.2625 -0.6162
 2378TIP3    H131329   1.975   6.515   7.642 -0.3814 -0.7375 -0.3866
 2378TIP3    H231330   1.883   6.437   7.550  0.2041 -0.5424 -1.1406
 2379TIP3   OH231331   3.651   5.668   8.749  0.6497 -0.3277  0.6541
 2379TIP3    H131332   3.715   5.700   8.811  1.4487 -2.1590  0.8252
 2379TIP3    H231333   3.658   5.573   8.753 -0.4200 -0.5293 -1.0526
 2380TIP3   OH231334   1.086   5.855   8.331  0.0386  0.6884 -0.2419
 2380TIP3    H131335   1.073   5.788   8.398 -1.7652 -1.7129 -2.7463
 2380TIP3    H231336   1.016   5.918   8.347  0.7216  1.1112  1.1577
 2381TIP3   OH231337   2.572   5.338   8.422  0.3589  0.8168  0.1226
 2381TIP3    H131338   2.586   5.256   8.470  0.7002  1.5982  1.3808
 2381TIP3    H231339   2.605   5.319   8.334  0.3115 -0.4365  0.3543
 2382TIP3   OH231340   2.864   2.510   8.063  0.1851  0.8803  0.0343
 2382TIP3    H131341   2.816   2.428   8.057  1.0944  0.3355  0.1496
 2382TIP3    H231342   2.902   2.511   8.150 -1.2111  2.2338  0.6913
 2383TIP3   OH231343   5.482   4.795   8.395  0.0070  0.0030 -0.0119
 2383TIP3    H131344   5.487   4.885   8.361  0.0441  0.4264  1.0703
 2383TIP3    H231345   5.397   4.763   8.365  0.5950 -0.1396 -1.6431
 2384TIP3   OH231346   5.961   6.771   8.140 -0.1967  0.5866 -0.5652
 2384TIP3    H131347   6.047   6.764   8.181 -1.2037 -0.4184  1.5324
 2384TIP3    H231348   5.951   6.689   8.092 -1.3082 -0.9544  2.0900
 2385TIP3   OH231349   0.119   0.597   8.369 -0.3796 -0.0932  0.3692
 2385TIP3    H131350   0.099   0.604   8.462 -1.3581  0.8817  0.1069
 2385TIP3    H231351   0.195   0.653   8.356 -1.3436  1.2574  0.2893
 2386TIP3   OH231352   7.282   0.508   7.099  0.3529  0.3558 -0.1068
 2386TIP3    H131353   7.292   0.420   7.064  1.6926 -0.4600  2.0871
 2386TIP3    H231354   7.325   0.564   7.035  2.5702 -1.0404  0.0376
 2387TIP3   OH231355   7.200   1.507   8.230  0.0998 -0.2134 -0.0754
 2387TIP3    H131356   7.259   1.432   8.229 -0.4046 -0.6552  1.4415
 2387TIP3    H231357   7.247   1.573   8.281 -0.0345  0.0242 -0.2563
 2388TIP3   OH231358   1.083   4.820   9.462 -0.5165 -0.2975 -1.0704
 2388TIP3    H131359   1.034   4.845   9.540  1.3100 -0.1950  0.0886
 2388TIP3    H231360   1.028   4.850   9.389 -2.0629 -0.0209  0.1591
 2389TIP3   OH231361   6.984   7.271   8.341  0.3052  0.2344 -0.6506
 2389TIP3    H131362   6.945   7.248   8.425  1.6757 -1.1693 -0.3514
 2389TIP3    H231363   6.923   7.237   8.275 -0.5147  0.8889 -0.2467
 2390TIP3   OH231364   0.857   5.692   9.376 -0.3100  0.1835  0.2304
 2390TIP3    H131365   0.916   5.685   9.300 -0.4333 -1.9039  0.2607
 2390TIP3    H231366   0.910   5.733   9.444 -0.1162  1.8683 -0.8644
 2391TIP3   OH231367   4.796   5.930   7.872  0.3701 -0.2173 -0.0790
 2391TIP3    H131368   4.725   5.986   7.842  1.2011  1.3256  0.7368
 2391TIP3    H231369   4.827   5.970   7.953  2.6634 -0.3717 -0.7789
 2392TIP3   OH231370   6.935   5.855   8.721  0.2292  0.5331  0.2637
 2392TIP3    H131371   6.912   5.886   8.633  0.3505 -0.0718  0.0111
 2392TIP3    H231372   7.017   5.899   8.742  0.3989  0.3868 -0.0891
 2393TIP3   OH231373   7.441   3.444   8.071 -0.3386  0.1388  0.1714
 2393TIP3    H131374   7.414   3.489   7.991 -1.2431 -1.9139 -0.7511
 2393TIP3    H231375   7.363   3.446   8.127  0.3211  1.6547  1.0980
 2394TIP3   OH231376   0.922   0.422   7.680  0.1214 -0.0735  0.0671
 2394TIP3    H131377   0.993   0.358   7.671 -0.2163 -0.3289 -0.8737
 2394TIP3    H231378   0.921   0.469   7.596  0.1853  0.9870  0.6397
 2395TIP3   OH231379   2.860   3.588   8.739 -0.4663 -0.2294 -0.0360
 2395TIP3    H131380   2.901   3.607   8.823 -0.3802 -2.3150  0.4357
 2395TIP3    H231381   2.876   3.667   8.687 -0.3516  1.0315  1.8090
 2396TIP3   OH231382   0.546   3.193   8.902  0.0214 -0.3254 -0.6525
 2396TIP3    H131383   0.558   3.134   8.976 -3.2134  0.9603  1.1533
 2396TIP3    H231384   0.478   3.152   8.848  0.3475  0.0512 -1.3685
 2397TIP3   OH231385   1.857   5.416   9.882  0.1257  0.2448  0.5746
 2397TIP3    H131386   1.874   5.478   9.953  0.8920  2.8235 -1.6586
 2397TIP3    H231387   1.881   5.465   9.803  2.0160 -3.3619 -1.3137
 2398TIP3   OH231388   7.182   0.368   7.636 -0.0132 -0.4067  0.0061
 2398TIP3    H131389   7.206   0.419   7.558 -1.5387  1.0634  0.4230
 2398TIP3    H231390   7.251   0.303   7.645  1.4270  0.8793 -1.2249
 2399TIP3   OH231391   0.253   4.285   9.446  0.2895  0.5165 -0.3346
 2399TIP3    H131392   0.208   4.369   9.438  0.4710  0.5960 -0.5219
 2399TIP3    H231393   0.219   4.232   9.373  0.7061  0.6718 -0.6410
 2400TIP3   OH231394   6.720   6.005   9.805 -0.2026  0.0231 -0.2863
 2400TIP3    H131395   6.804   6.002   9.850 -0.6998  0.0270  0.6638
 2400TIP3    H231396   6.736   5.963   9.721  0.3749 -1.4039  0.5052
 2401TIP3   OH231397   7.441   4.426   9.285 -0.1314 -0.2858  0.0108
 2401TIP3    H131398   7.388   4.463   9.355  0.4777  1.4844 -0.4103
 2401TIP3    H231399   7.384   4.362   9.243 -0.7790 -0.8079  1.5925
 2402TIP3   OH231400   5.001   7.026   9.773 -0.3857  0.1032 -0.0284
 2402TIP3    H131401   5.016   7.057   9.684 -0.4050 -0.7427 -0.3368
 2402TIP3    H231402   5.084   6.987   9.800  0.2725  2.1473  1.1041
 2403TIP3   OH231403   4.213   6.182   8.582  0.3136 -0.0224 -0.2018
 2403TIP3    H131404   4.143   6.210   8.642  0.6465  1.6660 -0.5515
 2403TIP3    H231405   4.294   6.202   8.628  0.6083 -1.6068  0.0336
 2404TIP3   OH231406   1.566   1.885   9.623  0.1087  0.3854  0.4606
 2404TIP3    H131407   1.479   1.870   9.587 -0.2149  1.0019  0.9660
 2404TIP3    H231408   1.596   1.965   9.581  0.0417  0.6876  0.9800
 2405TIP3   OH231409   3.542   4.060   7.943 -0.8325  0.2445 -0.2164
 2405TIP3    H131410   3.460   4.013   7.928 -0.4289 -0.7712  0.6104
 2405TIP3    H231411   3.607   3.991   7.955 -0.5211  0.9236  2.7306
 2406TIP3   OH231412   5.598   3.862   8.225  0.7580 -0.2644 -0.4799
 2406TIP3    H131413   5.515   3.814   8.223  0.3375  0.2435  1.7385
 2406TIP3    H231414   5.591   3.925   8.154 -0.5158 -0.6312 -0.6985
 2407TIP3   OH231415   6.061   5.441   9.422  0.6771 -0.1272 -0.0848
 2407TIP3    H131416   5.971   5.409   9.435  1.2130 -1.7570 -0.0966
 2407TIP3    H231417   6.090   5.399   9.341  2.2071 -1.5527  1.1061
 2408TIP3   OH231418   0.114   7.310   7.000  0.1055  0.4183  0.3676
 2408TIP3    H131419   0.142   7.388   6.953 -1.7914  0.2619 -1.1374
 2408TIP3    H231420   0.123   7.239   6.936  0.0032 -0.2742  1.1052
 2409TIP3   OH231421   5.549   3.288   7.595 -0.7477  0.0480 -0.0596
 2409TIP3    H131422   5.472   3.282   7.652 -0.0863 -0.2126  0.8251
 2409TIP3    H231423   5.574   3.380   7.598 -0.6532  0.0153  0.1514
 2410TIP3   OH231424   1.081   1.606   7.652  0.7137 -0.2865  0.6370
 2410TIP3    H131425   0.990   1.591   7.680  0.5624 -0.3246  0.1413
 2410TIP3    H231426   1.114   1.671   7.714  0.2705 -0.0994  0.6888
 2411TIP3   OH231427   4.183   2.933   8.100  0.7211  0.2822  0.3995
 2411TIP3    H131428   4.206   3.002   8.162  3.0097 -0.6690  0.7175
 2411TIP3    H231429   4.228   2.958   8.019 -1.3380  0.9356 -0.6256
 2412TIP3   OH231430   3.189   6.998  10.000 -0.1888 -0.1747 -0.3800
 2412TIP3    H131431   3.098   7.028   9.995  0.0370  0.5910 -0.1108
 2412TIP3    H231432   3.219   6.998   9.910 -0.3372 -0.0447 -0.4302
 2413TIP3   OH231433   5.965   6.248   8.468  0.1419  0.1140  0.2525
 2413TIP3    H131434   5.949   6.257   8.562 -1.2743  0.1177  0.0360
 2413TIP3    H231435   6.047   6.199   8.462  0.6049  0.6948  1.4769
 2414TIP3   OH231436   6.975   4.799   9.110 -0.4646  0.3361  0.0130
 2414TIP3    H131437   7.014   4.739   9.047 -1.4193 -0.9313  0.5604
 2414TIP3    H231438   7.000   4.886   9.080  1.4072 -0.3364 -0.5275
 2415TIP3   OH231439   0.385   6.657   8.922  0.0717  0.2662 -0.1947
 2415TIP3    H131440   0.473   6.638   8.890 -0.0980  1.7306 -1.6862
 2415TIP3    H231441   0.377   6.752   8.914 -2.1442  0.0376 -1.4800
 2416TIP3   OH231442   2.229   1.106   7.922 -0.2404  0.5238  0.6829
 2416TIP3    H131443   2.201   1.153   8.001 -0.5380  3.2970 -0.9661
 2416TIP3    H231444   2.323   1.119   7.919 -0.3409  1.1775  0.1552
 2417TIP3   OH231445   3.822   1.993   9.636 -0.3277 -0.2296  0.1912
 2417TIP3    H131446   3.807   1.922   9.574 -0.3662 -0.7197  0.7564
 2417TIP3    H231447   3.860   1.951   9.712 -0.2939  0.3663  0.5076
 2418TIP3   OH231448   4.133   5.546   8.471  0.6018 -0.0987  0.7593
 2418TIP3    H131449   4.070   5.593   8.417  2.0142  1.7597  0.6174
 2418TIP3    H231450   4.196   5.511   8.408 -0.7203 -2.7941  0.8124
 2419TIP3   OH231451   4.094   4.446   9.478 -0.3639 -0.1563 -0.0174
 2419TIP3    H131452   4.090   4.371   9.538 -2.0343 -1.4645 -1.6613
 2419TIP3    H231453   4.007   4.485   9.484 -0.1215  0.4790 -0.6345
 2420TIP3   OH231454   4.894   2.887   8.838 -0.5213  0.4758 -0.0902
 2420TIP3    H131455   4.827   2.833   8.879  0.2491  0.7589  1.6408
 2420TIP3    H231456   4.852   2.924   8.761 -1.5418 -1.3517 -0.4562
 2421TIP3   OH231457   5.284   1.408   8.408 -0.8013  0.2736  0.0299
 2421TIP3    H131458   5.343   1.345   8.449  2.1363  2.3215 -0.7531
 2421TIP3    H231459   5.296   1.489   8.458 -1.3628  1.3138 -1.4429
 2422TIP3   OH231460   6.489   3.129   9.623  0.6629 -0.4385 -0.4854
 2422TIP3    H131461   6.467   3.038   9.602  0.3048 -0.3464 -0.5131
 2422TIP3    H231462   6.413   3.179   9.593  0.7605 -0.1568 -0.2582
 2423TIP3   OH231463   0.725   6.086   7.221  0.2447 -0.1532 -0.2558
 2423TIP3    H131464   0.657   6.143   7.185 -1.1324 -1.2931  0.4575
 2423TIP3    H231465   0.761   6.040   7.145  0.5775  0.8017 -0.6923
 2424TIP3   OH231466   4.528   2.354   9.119  0.2465 -0.2772  0.2037
 2424TIP3    H131467   4.620   2.378   9.107  0.5278 -0.7820  1.1796
 2424TIP3    H231468   4.480   2.409   9.058  1.2609 -0.5196 -0.8484
 2425TIP3   OH231469   1.356   1.905   8.223 -0.3356 -0.4197  0.1963
 2425TIP3    H131470   1.370   1.971   8.155 -1.2095 -0.2909  0.1394
 2425TIP3    H231471   1.332   1.826   8.175 -1.6924 -0.1341  0.3798
 2426TIP3   OH231472   6.000   5.278   9.727  0.2488 -0.2367  0.5456
 2426TIP3    H131473   6.093   5.278   9.749  0.1611 -0.4066  0.9190
 2426TIP3    H231474   5.981   5.188   9.703  0.1646 -0.2175  0.5403
 2427TIP3   OH231475   5.391   7.423   8.859 -0.6389  0.8679 -0.5555
 2427TIP3    H131476   5.423   7.383   8.940 -1.6778 -0.0771 -0.5954
 2427TIP3    H231477   5.300   7.447   8.878 -2.0372 -2.3092 -2.3494
 2428TIP3   OH231478   5.660   3.248   8.254 -0.4437 -0.5258  0.0764
 2428TIP3    H131479   5.608   3.288   8.185 -0.9016  1.7297  1.6155
 2428TIP3    H231480   5.722   3.191   8.208 -0.5968  1.0091 -2.1789
 2429TIP3   OH231481   2.052   4.942   8.717 -0.1733 -0.8488  0.5695
 2429TIP3    H131482   2.043   5.037   8.717  0.0773 -0.6993  4.0242
 2429TIP3    H231483   2.134   4.926   8.670 -0.7987  0.4887 -1.0686
 2430TIP3   OH231484   2.539   4.125   8.768 -0.0416 -0.2080  0.0247
 2430TIP3    H131485   2.555   4.174   8.687 -0.2256  0.3571  0.3248
 2430TIP3    H231486   2.447   4.100   8.763 -0.0141 -0.3038 -0.0083
 2431TIP3   OH231487   2.428   7.105   9.466 -0.1785  0.1343  0.2268
 2431TIP3    H131488   2.459   7.124   9.378 -1.3678  1.2821  0.0319
 2431TIP3    H231489   2.487   7.036   9.498  0.5985  0.0831 -1.2479
 2432TIP3   OH231490   2.428   7.169   6.632  0.5271  0.1363 -0.2940
 2432TIP3    H131491   2.352   7.202   6.585 -0.3446  1.2207  1.7524
 2432TIP3    H231492   2.441   7.081   6.598 -0.8406  0.3925 -1.5896
 2433TIP3   OH231493   0.991   2.678   8.602 -0.2598  0.2580  0.7881
 2433TIP3    H131494   1.027   2.626   8.530 -2.0554 -0.9185  0.6921
 2433TIP3    H231495   1.068   2.708   8.650  0.9340 -0.0294 -0.8469
 2434TIP3   OH231496   6.319   2.898   8.179 -0.1245  0.3237  0.1092
 2434TIP3    H131497   6.310   2.931   8.089  1.2396 -0.4693 -0.3575
 2434TIP3    H231498   6.384   2.957   8.219  0.4981 -0.3049  0.0406
 2435TIP3   OH231499   5.181   3.485   9.752  0.1245 -0.1979 -0.2687
 2435TIP3    H131500   5.221   3.528   9.828  1.7671 -1.9808 -0.0649
 2435TIP3    H231501   5.110   3.544   9.726 -0.0788  0.7753  2.2493
 2436TIP3   OH231502   5.309   5.961   7.927 -0.6738  0.1350 -0.3998
 2436TIP3    H131503   5.250   5.994   7.995 -0.2654  0.2171 -0.0870
 2436TIP3    H231504   5.271   5.876   7.903  1.1489 -1.6576  2.5177
 2437TIP3   OH231505   0.831   2.061   7.271  0.1645 -0.3577  0.1757
 2437TIP3    H131506   0.767   2.096   7.332  0.1168 -1.1197  0.5810
 2437TIP3    H231507   0.779   2.032   7.196  0.1877  0.2787 -0.0894
 2438TIP3   OH231508   1.515   5.717   7.500  0.2486  0.1681  0.3535
 2438TIP3    H131509   1.522   5.804   7.539 -0.4330 -0.2589  1.4794
 2438TIP3    H231510   1.422   5.694   7.509  0.4273 -0.6842  0.0987
 2439TIP3   OH231511   4.998   6.627   9.450  0.3134  0.1741  0.0783
 2439TIP3    H131512   4.970   6.709   9.492  0.2265  0.9612 -1.4723
 2439TIP3    H231513   4.923   6.601   9.396  0.7002 -0.4239 -0.1768
 2440TIP3   OH231514   3.051   5.942   8.805  0.0574 -0.1390 -0.5253
 2440TIP3    H131515   3.001   5.887   8.866  2.1674 -0.6741  0.8194
 2440TIP3    H231516   3.051   6.029   8.845  1.9791 -0.6283  0.6800
 2441TIP3   OH231517   2.798   1.283   9.208  0.1869  0.0009 -0.0695
 2441TIP3    H131518   2.751   1.363   9.232 -0.2629  0.1237 -1.3333
 2441TIP3    H231519   2.731   1.215   9.209  0.4641 -0.2734  0.4646
 2442TIP3   OH231520   5.257   3.792   9.557 -0.4485 -0.6099 -0.0920
 2442TIP3    H131521   5.335   3.843   9.576  0.6953 -2.1707 -0.3716
 2442TIP3    H231522   5.229   3.822   9.470 -0.5511  0.4059  0.2849
 2443TIP3   OH231523   3.162   6.622   8.101  0.0357  0.2218 -0.4175
 2443TIP3    H131524   3.072   6.636   8.074 -0.1686 -1.1091 -0.5171
 2443TIP3    H231525   3.158   6.611   8.196 -0.0090 -0.4719 -0.4937
 2444TIP3   OH231526   1.365   1.247   8.189  0.6373  0.1289 -0.2578
 2444TIP3    H131527   1.352   1.288   8.104  2.2266  0.3049 -0.4493
 2444TIP3    H231528   1.408   1.164   8.170  0.5780 -0.0463  0.3415
 2445TIP3   OH231529   1.882   1.390   8.485  0.2025  0.4885 -0.1914
 2445TIP3    H131530   1.835   1.411   8.405 -0.4209  2.3455  0.5854
 2445TIP3    H231531   1.819   1.341   8.538  0.3619 -0.0962 -0.5408
 2446TIP3   OH231532   1.855   3.302   7.897  0.6020 -0.1301  0.2637
 2446TIP3    H131533   1.890   3.377   7.946  0.3960 -1.0966  1.9495
 2446TIP3    H231534   1.932   3.260   7.859  0.7985  0.3911  0.0713
 2447TIP3   OH231535   6.668   4.197   9.038  0.1402 -0.2943 -0.0664
 2447TIP3    H131536   6.740   4.209   8.976  0.5863 -1.2914  0.2505
 2447TIP3    H231537   6.590   4.222   8.988  0.6063 -0.0537 -0.6904
 2448TIP3   OH231538   1.990   4.969   9.731 -0.1986 -0.6883 -0.1898
 2448TIP3    H131539   1.984   4.907   9.805  0.3912 -0.2807  0.2075
 2448TIP3    H231540   2.065   5.024   9.753 -0.1358 -0.4464 -1.0148
 2449TIP3   OH231541   6.364   6.320   9.177  0.0602 -0.1533  0.1854
 2449TIP3    H131542   6.432   6.296   9.240  0.5999 -1.4646 -0.8492
 2449TIP3    H231543   6.299   6.250   9.184  0.2272 -0.4208 -0.8497
 2450TIP3   OH231544   0.813   6.967   9.084 -0.7620  0.0694 -0.9058
 2450TIP3    H131545   0.867   6.941   9.009  1.2150  2.5447 -0.4702
 2450TIP3    H231546   0.875   6.983   9.154 -2.3309  0.4829  0.4568
 2451TIP3   OH231547   6.931   0.411   6.785 -0.4543 -0.0755  0.2374
 2451TIP3    H131548   7.008   0.402   6.729 -0.4403  0.3381  0.1883
 2451TIP3    H231549   6.871   0.343   6.755 -0.3662  0.0178 -0.1478
 2452TIP3   OH231550   6.018   1.753   7.315  0.0260  0.1390 -0.0069
 2452TIP3    H131551   6.062   1.834   7.289  2.0257 -0.4071  1.4420
 2452TIP3    H231552   5.964   1.730   7.239  3.6817 -0.1576 -2.7972
 2453TIP3   OH231553   3.319   2.538   7.834 -0.1243 -0.2848 -0.3525
 2453TIP3    H131554   3.313   2.564   7.742 -3.2946  2.0450  0.3517
 2453TIP3    H231555   3.241   2.484   7.848 -1.1045  1.4860  1.4678
 2454TIP3   OH231556   3.472   1.151   7.475  0.4910 -0.2930  0.5706
 2454TIP3    H131557   3.441   1.136   7.386  0.5331 -0.6084  0.6096
 2454TIP3    H231558   3.422   1.227   7.505  1.1158  0.3917 -0.0379
 2455TIP3   OH231559   4.648   7.069   9.053  0.4737  0.2785  0.4290
 2455TIP3    H131560   4.624   7.152   9.094 -0.6675  0.6306 -0.8784
 2455TIP3    H231561   4.690   7.095   8.970 -1.0023 -0.4284 -0.5770
 2456TIP3   OH231562   5.119   2.269   8.560 -0.0082  0.0594  0.0433
 2456TIP3    H131563   5.139   2.359   8.586  1.3029  0.3472 -1.7780
 2456TIP3    H231564   5.194   2.218   8.589 -1.0402 -0.6160  1.6596
 2457TIP3   OH231565   7.065   3.865   8.295  0.1060 -0.7633 -0.0139
 2457TIP3    H131566   7.000   3.925   8.258 -0.0732 -0.0540  1.3849
 2457TIP3    H231567   7.060   3.787   8.240 -2.2137 -0.8786  0.2601
 2458TIP3   OH231568   0.844   5.496   7.439  0.2695  0.1761  0.3179
 2458TIP3    H131569   0.803   5.410   7.430 -1.9519  1.2224 -0.2696
 2458TIP3    H231570   0.835   5.536   7.352  0.0981  1.4674  0.9072
 2459TIP3   OH231571   0.607   5.700   7.860 -0.2450  0.2897 -0.1669
 2459TIP3    H131572   0.695   5.665   7.871  0.3438  0.6426 -3.1228
 2459TIP3    H231573   0.565   5.686   7.945  1.5211 -3.0390  0.3017
 2460TIP3   OH231574   6.905   6.993   7.846  0.2264 -0.3241  0.5757
 2460TIP3    H131575   6.936   6.954   7.927  0.4940  1.0593  1.1808
 2460TIP3    H231576   6.823   7.036   7.871  0.9030  1.1224  0.4300
 2461TIP3   OH231577   4.871   0.665   7.134  0.0793  0.4612  0.5760
 2461TIP3    H131578   4.830   0.740   7.091 -1.6383 -0.4323  0.5651
 2461TIP3    H231579   4.798   0.613   7.167  1.0930 -2.1299 -0.9381
 2462TIP3   OH231580   1.392   6.836   8.920 -0.0785  0.0481 -0.0309
 2462TIP3    H131581   1.478   6.877   8.918  0.2898 -0.7146 -1.4989
 2462TIP3    H231582   1.373   6.823   9.013  2.2174 -1.4430  0.3053
 2463TIP3   OH231583   4.295   6.780   9.469  0.0413 -0.7707 -0.0294
 2463TIP3    H131584   4.342   6.744   9.393  0.8932  0.9544 -0.3909
 2463TIP3    H231585   4.294   6.709   9.533 -1.2145 -2.4771 -1.8291
 2464TIP3   OH231586   0.342   5.940   9.892 -0.0057  0.3519 -0.0393
 2464TIP3    H131587   0.426   5.904   9.922  0.2113  2.0389  1.6119
 2464TIP3    H231588   0.335   5.913   9.801  1.2346 -1.7609  0.4317
 2465TIP3   OH231589   6.715   5.960   7.421  0.0562  0.1192 -0.0806
 2465TIP3    H131590   6.790   5.928   7.372 -1.0422 -0.8616 -1.1749
 2465TIP3    H231591   6.744   6.045   7.456  0.9876  0.7427 -2.1982
 2466TIP3   OH231592   3.942   0.888   9.020  0.2255  0.4911 -0.4019
 2466TIP3    H131593   3.849   0.890   9.045 -0.2585 -1.9969 -1.6828
 2466TIP3    H231594   3.949   0.953   8.950 -0.7277  0.1871 -0.7937
 2467TIP3   OH231595   0.389   6.408   9.295  0.9440  0.0634 -0.5872
 2467TIP3    H131596   0.465   6.370   9.251  0.1913 -0.4683 -1.4681
 2467TIP3    H231597   0.326   6.336   9.300  0.5378  0.4656  0.2280
 2468TIP3   OH231598   6.250   4.678   9.089  0.1002 -0.5729 -0.3562
 2468TIP3    H131599   6.343   4.656   9.084  0.2263 -0.8770  2.0724
 2468TIP3    H231600   6.208   4.599   9.126 -0.7157  0.3494  0.7779
 2469TIP3   OH231601   0.657   3.490   8.321  0.3823 -0.2474  0.0622
 2469TIP3    H131602   0.573   3.462   8.357 -1.1713 -0.6478 -3.4850
 2469TIP3    H231603   0.650   3.585   8.313 -0.2795 -0.3821 -1.2832
 2470TIP3   OH231604   0.366   6.984   7.555 -0.3114 -0.1999  0.6931
 2470TIP3    H131605   0.436   7.024   7.503  0.5258 -1.4100  0.8514
 2470TIP3    H231606   0.333   7.056   7.610 -0.4448  0.8209 -0.6717
 2471TIP3   OH231607   1.657   5.438   7.486 -0.7564 -0.0908  0.5376
 2471TIP3    H131608   1.670   5.367   7.424  0.1332  0.3247  0.2300
 2471TIP3    H231609   1.667   5.518   7.434  3.1135  0.3446  1.6756
 2472TIP3   OH231610   6.161   4.679   8.805 -0.1050  0.0150 -0.0125
 2472TIP3    H131611   6.133   4.596   8.767  2.3219 -1.2162  0.6459
 2472TIP3    H231612   6.198   4.656   8.890  0.1833  1.8485  0.4172
 2473TIP3   OH231613   7.105   0.910   8.023 -0.3131 -0.5788 -0.0391
 2473TIP3    H131614   7.108   0.974   8.094  0.3203 -0.6771  0.0288
 2473TIP3    H231615   7.124   0.960   7.944  0.2751 -0.6919  0.0253
 2474TIP3   OH231616   2.996   0.446   7.853 -0.1567  0.2797  0.1187
 2474TIP3    H131617   3.053   0.523   7.843  0.4941 -0.1357  0.5234
 2474TIP3    H231618   3.057   0.372   7.856 -0.7702 -0.2405 -0.1611
 2475TIP3   OH231619   0.387   0.635   8.925 -0.4016 -0.4828  0.3372
 2475TIP3    H131620   0.461   0.648   8.984  0.3660 -1.7196 -0.3096
 2475TIP3    H231621   0.312   0.620   8.983  0.4111 -2.0766  1.0259
 2476TIP3   OH231622   0.191   2.985   7.747 -0.0894 -0.3152  0.1633
 2476TIP3    H131623   0.099   2.968   7.725 -0.1462  1.3251 -1.0550
 2476TIP3    H231624   0.200   2.955   7.837 -1.8083 -0.5782  0.2785
 2477TIP3   OH231625   4.058   4.218   6.897 -0.0534  0.0451 -0.3578
 2477TIP3    H131626   4.136   4.181   6.856  0.3042  0.6109 -0.1983
 2477TIP3    H231627   3.998   4.234   6.824  0.5962  1.0861 -0.6839
 2478TIP3   OH231628   2.572   3.759   9.261  0.3327  0.4074  0.3985
 2478TIP3    H131629   2.517   3.765   9.183 -1.0037 -0.3033  1.2641
 2478TIP3    H231630   2.520   3.710   9.324  1.7922  0.0852  1.4034
 2479TIP3   OH231631   0.345   4.176   9.002 -0.5171 -0.2705  0.0062
 2479TIP3    H131632   0.288   4.113   8.957  0.7383 -1.0721 -0.5068
 2479TIP3    H231633   0.342   4.255   8.948  0.4972 -1.0205 -1.1787
 2480TIP3   OH231634   3.557   1.859   9.386  0.1139  0.5188 -0.1541
 2480TIP3    H131635   3.648   1.832   9.376  0.3103  1.7592 -2.1875
 2480TIP3    H231636   3.562   1.951   9.412 -0.5709  0.4837  0.1286
 2481TIP3   OH231637   1.759   5.425   8.908  0.5969  0.3500  0.6480
 2481TIP3    H131638   1.731   5.355   8.966 -0.4229 -1.5525 -1.9166
 2481TIP3    H231639   1.683   5.482   8.899 -0.6872 -1.5322 -1.6903
 2482TIP3   OH231640   1.960   2.153   9.197  0.0060 -0.2307 -0.2157
 2482TIP3    H131641   1.885   2.094   9.206 -0.3287  0.0223 -1.2552
 2482TIP3    H231642   2.001   2.128   9.115 -1.1515  2.0725 -1.6149
 2483TIP3   OH231643   6.491   7.100   9.752  0.5577  0.3612  0.1010
 2483TIP3    H131644   6.397   7.115   9.752  0.2520 -1.3079  1.5800
 2483TIP3    H231645   6.528   7.184   9.778 -0.3272  1.6161 -2.3243
 2484TIP3   OH231646   0.156   2.297   8.405  0.5073 -0.5677 -0.1368
 2484TIP3    H131647   0.130   2.263   8.319  0.5911 -1.6506  0.2523
 2484TIP3    H231648   0.138   2.391   8.400 -0.0077 -0.7056 -1.1474
 2485TIP3   OH231649   4.410   0.512   8.818  0.0043  0.2760 -0.2663
 2485TIP3    H131650   4.457   0.579   8.769  0.1522  0.3198 -0.0668
 2485TIP3    H231651   4.388   0.554   8.901 -0.1002  0.1502 -0.2290
 2486TIP3   OH231652   6.736   4.985   8.719  0.0149 -0.2905 -0.0748
 2486TIP3    H131653   6.706   5.044   8.788 -0.4697  0.2508 -0.7376
 2486TIP3    H231654   6.802   4.931   8.761 -0.9217 -0.5984  1.0651
 2487TIP3   OH231655   7.424   1.222   8.296  0.0445  0.0118  0.1461
 2487TIP3    H131656   7.483   1.237   8.222  0.4663 -1.3009  0.1848
 2487TIP3    H231657   7.476   1.170   8.358 -1.0328 -0.8760  0.3365
 2488TIP3   OH231658   5.620   7.080   9.581 -0.1779 -0.2206 -0.0312
 2488TIP3    H131659   5.528   7.057   9.569 -0.6322  0.7966  1.2702
 2488TIP3    H231660   5.659   7.002   9.622 -1.0701  0.2110  1.7495
 2489TIP3   OH231661   3.089   1.399   7.465  0.3094  0.4543  0.4595
 2489TIP3    H131662   3.130   1.462   7.525  0.0778  0.6878  0.3727
 2489TIP3    H231663   3.129   1.418   7.380  1.1801 -0.3610  0.6717
 2490TIP3   OH231664   5.968   2.146   8.639  0.6378 -0.3935  0.0225
 2490TIP3    H131665   6.033   2.213   8.618  0.9833 -0.4250  0.9407
 2490TIP3    H231666   5.891   2.171   8.588  1.5076 -0.6181 -1.4307
 2491TIP3   OH231667   3.634   4.362   8.765  0.3486  0.2516 -0.0447
 2491TIP3    H131668   3.652   4.358   8.671 -0.3893 -0.7518 -0.1536
 2491TIP3    H231669   3.591   4.446   8.778 -0.5226 -0.0683 -0.7850
 2492TIP3   OH231670   2.323   0.436   9.359  0.4126  0.3509 -0.2314
 2492TIP3    H131671   2.267   0.465   9.287  0.2269  0.8012  0.0896
 2492TIP3    H231672   2.412   0.454   9.329  0.4424 -0.9685 -1.0125
 2493TIP3   OH231673   2.885   2.352   9.323 -0.0257 -0.2617 -0.0127
 2493TIP3    H131674   2.967   2.312   9.350 -0.2051 -1.2300 -0.8377
 2493TIP3    H231675   2.818   2.287   9.345 -0.4518  0.0714 -0.2990
 2494TIP3   OH231676   2.406   5.750   9.461  0.4719 -0.4456 -0.6949
 2494TIP3    H131677   2.463   5.677   9.485 -1.1043 -0.6325  3.3203
 2494TIP3    H231678   2.335   5.710   9.411  0.7398 -1.2769 -0.4181
 2495TIP3   OH231679   0.739   0.715   9.650 -0.3274  0.0911  0.1948
 2495TIP3    H131680   0.759   0.747   9.738  1.0899  0.1934 -0.1414
 2495TIP3    H231681   0.749   0.620   9.656 -1.2548 -0.0028  0.3831
 2496TIP3   OH231682   6.164   1.352   8.331  0.0750 -0.1304 -0.3009
 2496TIP3    H131683   6.162   1.411   8.406  0.6876  1.3123 -1.3593
 2496TIP3    H231684   6.073   1.350   8.300 -0.0655 -0.2461  0.1140
 2497TIP3   OH231685   3.676   2.162   7.214 -0.2835  0.2060  0.2920
 2497TIP3    H131686   3.731   2.085   7.197 -0.0206  0.4574  0.0070
 2497TIP3    H231687   3.729   2.218   7.270  0.1059  0.8554 -0.6994
 2498TIP3   OH231688   0.823   1.413   9.795  0.4435  0.2237  0.3770
 2498TIP3    H131689   0.773   1.403   9.877 -0.3689  0.7814 -0.0272
 2498TIP3    H231690   0.755   1.420   9.727  1.1058 -0.0819 -0.3289
 2499TIP3   OH231691   6.029   6.786   6.777  0.2070 -0.8739  0.4377
 2499TIP3    H131692   6.007   6.866   6.824  1.6110  1.6335 -2.8000
 2499TIP3    H231693   6.123   6.774   6.792  0.6617 -0.0889 -1.3919
 2500TIP3   OH231694   3.266   6.839   7.363 -0.3386  0.0976  0.0893
 2500TIP3    H131695   3.362   6.834   7.359 -0.2887  0.4040  0.7372
 2500TIP3    H231696   3.247   6.851   7.456 -1.0868 -1.6957  0.2106
 2501TIP3   OH231697   6.723   5.333   7.356 -0.2064  0.4663 -0.2489
 2501TIP3    H131698   6.676   5.250   7.346  0.6733 -0.3737  1.9871
 2501TIP3    H231699   6.682   5.376   7.430  1.0923  0.7262  0.3577
 2502TIP3   OH231700   5.540   0.594   7.712 -0.9245 -0.4997 -0.5948
 2502TIP3    H131701   5.512   0.570   7.623  0.5376 -0.4095 -1.0998
 2502TIP3    H231702   5.583   0.516   7.746 -2.2668 -0.8374  0.4073
 2503TIP3   OH231703   4.391   4.348   8.374 -0.1158  0.2562 -0.2671
 2503TIP3    H131704   4.386   4.396   8.457 -1.3044  1.2974 -0.8999
 2503TIP3    H231705   4.337   4.270   8.388 -0.8779  0.7752 -0.2698
 2504TIP3   OH231706   0.750   2.441   6.963  0.1578  0.0615 -0.4584
 2504TIP3    H131707   0.663   2.480   6.966  0.3290  0.6623 -2.0938
 2504TIP3    H231708   0.737   2.351   6.993 -0.7286  0.5843  0.8107
 2505TIP3   OH231709   5.157   3.438   8.629 -0.3863 -0.1284 -0.4470
 2505TIP3    H131710   5.177   3.349   8.602 -2.1044 -0.8309  0.4707
 2505TIP3    H231711   5.242   3.476   8.651  0.5575 -0.9686 -2.4020
 2506TIP3   OH231712   3.034   6.086   9.283  0.0478  0.4295  0.3577
 2506TIP3    H131713   3.084   6.047   9.211  0.9788 -1.5293  1.9613
 2506TIP3    H231714   3.044   6.180   9.271  3.4445  0.1642  0.0295
 2507TIP3   OH231715   5.964   5.780   9.506  0.2220 -0.1317 -0.4157
 2507TIP3    H131716   5.875   5.809   9.488  0.0514 -0.0139  0.5724
 2507TIP3    H231717   5.955   5.716   9.576  0.7165 -1.7056 -1.7171
 2508TIP3   OH231718   1.085   5.104   9.480  0.0048  0.1278  0.5218
 2508TIP3    H131719   1.036   5.076   9.557  1.3633  0.0134  1.3761
 2508TIP3    H231720   1.172   5.068   9.493  0.8178  1.7875 -0.0914
 2509TIP3   OH231721   4.638   3.737   8.208  0.5633  0.1146 -0.4675
 2509TIP3    H131722   4.577   3.664   8.194  2.5072 -1.9737  1.1895
 2509TIP3    H231723   4.583   3.806   8.245 -0.9124 -1.5193  0.5631
 2510TIP3   OH231724   4.980   7.188   7.980 -0.0049  0.0480  0.5033
 2510TIP3    H131725   4.964   7.104   7.938  1.6840  0.0045 -0.1194
 2510TIP3    H231726   4.919   7.248   7.938 -0.9164 -0.7630  0.6384
 2511TIP3   OH231727   7.285   2.181   8.654  0.3661 -0.7819 -0.0118
 2511TIP3    H131728   7.233   2.244   8.603 -0.0283 -1.2662 -0.2189
 2511TIP3    H231729   7.223   2.112   8.676  0.4572 -0.4566  1.3711
 2512TIP3   OH231730   1.156   5.964   7.764  0.4121 -0.0927 -0.3422
 2512TIP3    H131731   1.183   5.937   7.852  0.7221 -1.1656 -0.7478
 2512TIP3    H231732   1.233   6.004   7.726  0.6323 -0.7063 -0.5444
 2513TIP3   OH231733   5.919   3.409   8.232 -0.0116  0.1085  0.0275
 2513TIP3    H131734   5.873   3.325   8.239 -1.3673  0.8273  0.0326
 2513TIP3    H231735   5.963   3.405   8.147  1.0394 -1.1248  0.6021
 2514TIP3   OH231736   1.640   5.662   9.531  0.7395  0.4639  0.6552
 2514TIP3    H131737   1.590   5.711   9.596  0.6069  0.8548  0.2637
 2514TIP3    H231738   1.727   5.651   9.571  0.9388  1.4901  0.5330
 2515TIP3   OH231739   1.900   4.304   7.604 -0.4662  0.1690 -0.0476
 2515TIP3    H131740   1.902   4.242   7.532 -1.1110  2.5038 -2.2200
 2515TIP3    H231741   1.820   4.283   7.653 -0.5046 -0.8612 -0.5312
 2516TIP3   OH231742   7.124   0.814   8.669 -0.3074 -0.0473 -0.0155
 2516TIP3    H131743   7.129   0.892   8.614 -0.2010  0.5426  0.8020
 2516TIP3    H231744   7.187   0.753   8.631 -0.8874 -0.0082 -1.0658
 2517TIP3   OH231745   7.074   1.832   9.501  0.6157 -0.5353 -0.2904
 2517TIP3    H131746   7.031   1.905   9.457  0.4724 -0.8098 -0.6082
 2517TIP3    H231747   7.007   1.763   9.503  0.3362 -0.2545  1.0788
 2518TIP3   OH231748   1.083   7.438   8.973 -0.3478 -0.3533 -0.7607
 2518TIP3    H131749   1.004   7.428   9.027 -1.5600  0.1843 -2.3667
 2518TIP3    H231750   1.141   7.492   9.026 -0.4735 -1.8507  1.0192
 2519TIP3   OH231751   7.501   3.847   7.702  0.1769 -0.3562  0.4567
 2519TIP3    H131752   7.519   3.798   7.622 -0.7843  0.1187 -0.0629
 2519TIP3    H231753   7.449   3.786   7.755  0.5749 -0.5669  0.6139
 2520TIP3   OH231754   6.319   6.086   8.942  0.6672  0.8434  0.4964
 2520TIP3    H131755   6.248   6.106   9.003 -0.9947 -0.7682 -0.7800
 2520TIP3    H231756   6.289   6.121   8.858  1.4592  0.2758 -0.0357
 2521TIP3   OH231757   4.928   6.523   6.994 -0.4724  0.4829 -0.4395
 2521TIP3    H131758   4.938   6.617   6.983 -0.2981  0.2908 -2.1837
 2521TIP3    H231759   4.842   6.503   6.956 -0.5133 -0.0685 -0.0792
 2522TIP3   OH231760   6.079   7.162   8.766 -0.4047  0.0552  0.6196
 2522TIP3    H131761   6.019   7.231   8.795 -0.0848  0.8188 -0.4639
 2522TIP3    H231762   6.140   7.206   8.707  1.8245 -0.5024  2.3470
 2523TIP3   OH231763   6.101   6.258   7.763 -0.4685 -0.2071 -0.1817
 2523TIP3    H131764   6.106   6.227   7.673 -0.8398  1.5355 -0.8474
 2523TIP3    H231765   6.121   6.352   7.757 -0.2172 -0.1141  1.5918
 2524TIP3   OH231766   0.018   0.457   6.854 -0.1092  0.1319  0.7564
 2524TIP3    H131767   0.043   0.548   6.874  2.0015  0.1889 -1.5713
 2524TIP3    H231768   0.101   0.411   6.846 -1.0014 -1.3135 -0.9505
 2525TIP3   OH231769   1.537   0.198   7.936 -0.3257 -0.1620 -0.2640
 2525TIP3    H131770   1.526   0.145   7.857 -1.6890  0.6292 -0.6506
 2525TIP3    H231771   1.629   0.222   7.936 -0.0072 -1.3262 -0.8557
 2526TIP3   OH231772   3.483   1.484   8.987  0.0985  0.5841  0.2955
 2526TIP3    H131773   3.440   1.558   9.029  0.9261  1.1317  0.1877
 2526TIP3    H231774   3.524   1.520   8.909  0.3393 -0.0245  0.1306
 2527TIP3   OH231775   6.578   2.743   8.352 -0.1995 -0.4556  0.2074
 2527TIP3    H131776   6.535   2.817   8.395 -0.9824 -1.4344  1.1728
 2527TIP3    H231777   6.594   2.680   8.423  1.5082 -0.7420 -0.3914
 2528TIP3   OH231778   2.400   4.481   8.745  0.4282  0.3272 -0.3359
 2528TIP3    H131779   2.445   4.403   8.713 -0.2370 -0.2706  0.1498
 2528TIP3    H231780   2.466   4.550   8.741  0.8088 -0.0745 -1.5083
 2529TIP3   OH231781   5.775   1.539   9.192 -0.0858  0.3107 -0.0219
 2529TIP3    H131782   5.726   1.471   9.239 -1.2467  1.1595  0.0301
 2529TIP3    H231783   5.866   1.509   9.194 -0.1924 -0.0029  2.2091
 2530TIP3   OH231784   7.025   1.897   9.139  0.0881 -0.2410 -0.4829
 2530TIP3    H131785   7.095   1.890   9.073 -0.5542 -0.9026 -1.1191
 2530TIP3    H231786   7.028   1.988   9.168  1.8234 -0.4768  0.1981
 2531TIP3   OH231787   1.386   1.621   8.554 -0.8330  0.6319 -0.3158
 2531TIP3    H131788   1.365   1.532   8.524 -2.2874 -0.0097  2.2854
 2531TIP3    H231789   1.301   1.664   8.563 -0.1937  2.0569 -0.7656
 2532TIP3   OH231790   5.156   5.037   8.006  0.3228  0.5852  0.2770
 2532TIP3    H131791   5.153   4.949   7.969  1.4498  0.2925  0.8489
 2532TIP3    H231792   5.072   5.076   7.982 -0.2016 -0.6534  0.0529
 2533TIP3   OH231793   0.715   3.845   9.842 -0.3025  0.1847  0.0535
 2533TIP3    H131794   0.660   3.923   9.836 -0.4170  0.1349  0.4245
 2533TIP3    H231795   0.803   3.876   9.824 -0.3178  0.4392  0.4101
 2534TIP3   OH231796   2.089   3.719   7.955 -0.2421 -0.6716  0.2162
 2534TIP3    H131797   2.164   3.712   8.014  0.8087 -0.3128 -1.0513
 2534TIP3    H231798   2.096   3.806   7.917 -0.8172 -0.9560 -0.5599
 2535TIP3   OH231799   6.364   1.552   8.376  0.0708 -0.5189  0.0514
 2535TIP3    H131800   6.454   1.571   8.347 -0.5726  0.0616 -1.6631
 2535TIP3    H231801   6.354   1.458   8.361  0.9611 -0.9820  2.0035
 2536TIP3   OH231802   4.249   6.035   8.031 -0.3660  0.5105  0.0161
 2536TIP3    H131803   4.154   6.047   8.038 -0.6129 -1.1194 -0.0733
 2536TIP3    H231804   4.270   5.976   8.104  0.2273 -0.8252 -1.2011
 2537TIP3   OH231805   4.743   6.294   9.281 -0.1378  0.1509 -0.4463
 2537TIP3    H131806   4.656   6.297   9.240 -1.0372  0.3596  1.3727
 2537TIP3    H231807   4.765   6.386   9.296  0.6726  0.1258 -1.4155
 2538TIP3   OH231808   2.392   5.063   9.626 -0.3427 -0.0551  0.2000
 2538TIP3    H131809   2.419   5.097   9.541  0.5047  0.4168  0.6422
 2538TIP3    H231810   2.466   5.083   9.684 -0.7583 -0.6887  0.9646
 2539TIP3   OH231811   6.422   3.028   6.622 -0.0305 -0.3019 -0.0401
 2539TIP3    H131812   6.465   3.085   6.557  0.6665 -0.4288  0.2974
 2539TIP3    H231813   6.416   3.082   6.701  2.2652 -1.2000  0.8524
 2540TIP3   OH231814   1.077   2.829   9.350  0.2689 -0.3391 -0.5703
 2540TIP3    H131815   1.077   2.755   9.289 -2.2041 -1.9211  1.1274
 2540TIP3    H231816   1.096   2.789   9.435  0.1072  1.1803  0.2094
 2541TIP3   OH231817   1.120   5.280   8.680  0.0151 -0.1013  0.2451
 2541TIP3    H131818   1.210   5.252   8.661 -0.0499  0.1639 -0.5034
 2541TIP3    H231819   1.066   5.223   8.626 -0.2868 -0.4083  0.8609
 2542TIP3   OH231820   4.783   1.399   7.202  0.2173 -0.0334 -0.5569
 2542TIP3    H131821   4.712   1.458   7.177  0.7650  0.3275 -1.3181
 2542TIP3    H231822   4.758   1.366   7.288 -0.0080  1.4800 -0.0110
 2543TIP3   OH231823   3.115   1.495   6.930  0.5556  0.7834 -0.4859
 2543TIP3    H131824   3.163   1.572   6.900 -0.1076  0.9519 -1.1373
 2543TIP3    H231825   3.027   1.506   6.895 -0.6979  1.6439  2.6222
 2544TIP3   OH231826   6.741   4.770   9.270  0.7779 -0.5014  0.2674
 2544TIP3    H131827   6.823   4.798   9.229  0.2386  1.9891  0.7119
 2544TIP3    H231828   6.768   4.730   9.353  1.5876 -0.6483 -0.0577
 2545TIP3   OH231829   7.118   6.854   8.078 -0.2996 -0.0745  0.8158
 2545TIP3    H131830   7.180   6.924   8.060  0.2795 -0.6047  0.6993
 2545TIP3    H231831   7.132   6.832   8.170  0.1551 -0.6371  0.6196
 2546TIP3   OH231832   1.065   6.862   8.894  0.3424 -0.2252  0.3427
 2546TIP3    H131833   1.113   6.784   8.868 -1.0999 -1.3778  1.0065
 2546TIP3    H231834   1.006   6.881   8.821 -0.7735 -1.0138  1.0112
 2547TIP3   OH231835   5.646   3.028   7.639 -0.2107 -0.0968 -0.2513
 2547TIP3    H131836   5.615   3.118   7.630 -0.0480  0.1586  1.4275
 2547TIP3    H231837   5.658   3.016   7.733 -0.3269 -1.9120 -0.4292
 2548TIP3   OH231838   4.129   0.075   9.890 -0.6335  0.5208  0.4257
 2548TIP3    H131839   4.055   0.134   9.879 -2.4143 -1.7493 -0.6422
 2548TIP3    H231840   4.102  -0.006   9.848  1.2296 -1.4713  2.7265
 2549TIP3   OH231841   6.866   3.695   8.595  0.5204 -0.0100 -0.1008
 2549TIP3    H131842   6.877   3.715   8.502  1.3013  2.6419  0.4758
 2549TIP3    H231843   6.837   3.777   8.635 -0.6320 -1.2944  1.9084
 2550TIP3   OH231844   7.167   5.937   9.426  0.0192  0.1170  0.2231
 2550TIP3    H131845   7.258   5.967   9.420  0.0637 -0.1047 -0.4056
 2550TIP3    H231846   7.115   6.012   9.398  0.1415 -0.4005 -1.5606
 2551TIP3   OH231847   3.007   3.221   9.032 -0.1708 -0.1551 -0.0362
 2551TIP3    H131848   2.990   3.181   9.117 -0.2176 -2.1626 -0.9302
 2551TIP3    H231849   3.087   3.272   9.045 -0.3547 -0.1758  1.2868
 2552TIP3   OH231850   3.819   3.835   7.390 -0.4286  0.1704  0.7061
 2552TIP3    H131851   3.875   3.883   7.451 -0.6844  1.7010 -0.2016
 2552TIP3    H231852   3.748   3.895   7.370  0.2795  0.2501 -2.0295
 2553TIP3   OH231853   3.666   0.947   8.201  0.2391  0.0840 -0.5269
 2553TIP3    H131854   3.574   0.949   8.175  0.3182 -0.8269 -0.9220
 2553TIP3    H231855   3.696   1.037   8.190 -1.2956  1.0714  2.2440
 2554TIP3   OH231856   0.197   6.782   7.548  0.9867 -0.2235 -0.1196
 2554TIP3    H131857   0.153   6.805   7.630 -0.2467  0.7144 -1.0085
 2554TIP3    H231858   0.273   6.839   7.545  0.0447  1.0569 -0.4677
 2555TIP3   OH231859   1.434   7.484   7.190  0.5025  0.3263 -0.0348
 2555TIP3    H131860   1.438   7.568   7.145 -0.0059  0.4177  0.0859
 2555TIP3    H231861   1.361   7.438   7.149  0.3195  0.2342  0.3900
 2556TIP3   OH231862   0.663   5.730   8.480  0.0458 -0.1730  0.2781
 2556TIP3    H131863   0.725   5.698   8.545 -0.7223 -0.0076  1.1160
 2556TIP3    H231864   0.628   5.651   8.438  0.2066 -0.3027  0.3920
 2557TIP3   OH231865   5.166   4.388   8.271  0.4300 -0.0880  0.3094
 2557TIP3    H131866   5.236   4.332   8.304  0.0637 -1.1703 -0.6859
 2557TIP3    H231867   5.172   4.382   8.176  0.1401  1.2841  0.1839
 2558TIP3   OH231868   1.233   0.842   9.389 -0.3157 -0.2759 -0.2051
 2558TIP3    H131869   1.213   0.758   9.431 -2.3281 -0.1136 -0.7408
 2558TIP3    H231870   1.264   0.818   9.301 -0.4974 -0.4682 -0.2166
 2559TIP3   OH231871   1.984   4.966   8.042 -0.2337 -0.1451  0.1011
 2559TIP3    H131872   1.899   4.924   8.047  0.0760 -0.9680 -1.1981
 2559TIP3    H231873   2.044   4.905   8.085 -0.0151 -0.3726 -0.5259
 2560TIP3   OH231874   1.669   2.076   9.461  0.3005  0.4594 -0.0244
 2560TIP3    H131875   1.652   2.066   9.367  0.6481 -1.6161  0.0882
 2560TIP3    H231876   1.733   2.146   9.467 -0.5813  1.4055 -1.2439
 2561TIP3   OH231877   4.905   0.149   8.509 -0.3763  0.5857  0.2448
 2561TIP3    H131878   4.886   0.057   8.524 -0.6076  0.4851 -0.6306
 2561TIP3    H231879   4.829   0.183   8.463  0.9810  0.4591 -2.2572
 2562TIP3   OH231880   6.196   4.419   9.777  0.4791 -0.0400  0.0675
 2562TIP3    H131881   6.218   4.330   9.750  0.9392 -0.7463  2.5674
 2562TIP3    H231882   6.104   4.429   9.755  0.7533 -0.6149 -1.4652
 2563TIP3   OH231883   0.715   5.693   7.602 -0.4351  0.1450  0.2115
 2563TIP3    H131884   0.732   5.602   7.578 -2.1517  0.1487 -1.2210
 2563TIP3    H231885   0.675   5.688   7.689 -0.4736 -0.4476  0.1591
 2564TIP3   OH231886   1.119   3.424   9.214  0.9719 -0.6167 -0.3071
 2564TIP3    H131887   1.188   3.360   9.196  1.0751 -0.7570  0.5578
 2564TIP3    H231888   1.055   3.376   9.267  0.7474 -0.1773 -0.1775
 2565TIP3   OH231889   0.921   1.280   8.191  0.1093  0.0571 -0.0002
 2565TIP3    H131890   0.882   1.364   8.214 -0.4391 -0.1179 -0.2630
 2565TIP3    H231891   0.937   1.237   8.276  0.0599  0.2752  0.1206
 2566TIP3   OH231892   2.091   2.402   9.359 -0.2985  0.4521  0.0815
 2566TIP3    H131893   2.122   2.436   9.442  0.0590 -1.7748  0.9288
 2566TIP3    H231894   2.003   2.369   9.377  0.4769 -1.7257  0.1076
 2567TIP3   OH231895   5.167   0.900   8.081 -0.3470 -0.0971 -0.1584
 2567TIP3    H131896   5.153   0.946   7.998 -0.5384 -0.0475 -0.0992
 2567TIP3    H231897   5.079   0.887   8.116 -0.2494  0.1477  0.1808
 2568TIP3   OH231898   0.573   5.343   9.893 -0.0949  0.1548 -0.2260
 2568TIP3    H131899   0.531   5.415   9.941 -2.5545 -1.5065  0.2966
 2568TIP3    H231900   0.644   5.315   9.950 -2.4399 -1.2208  2.2634
 2569TIP3   OH231901   1.094   5.889   9.568  0.1257 -0.4329  0.1375
 2569TIP3    H131902   1.052   5.812   9.608  1.4188 -0.8248  0.7831
 2569TIP3    H231903   1.183   5.860   9.548  0.6607  0.9298  0.4602
 2570TIP3   OH231904   2.270   2.109   8.445  0.5162  0.4283 -0.0398
 2570TIP3    H131905   2.188   2.061   8.441 -0.4428  1.7049  2.2606
 2570TIP3    H231906   2.333   2.047   8.483  0.2473 -0.0946 -0.4439
 2571TIP3   OH231907   2.686   5.842   8.453 -0.0505  0.1340  0.2364
 2571TIP3    H131908   2.762   5.818   8.399 -0.3758  0.9730 -0.6340
 2571TIP3    H231909   2.705   5.805   8.539  0.5484 -1.1380 -0.4176
 2572TIP3   OH231910   7.287   6.482   6.732 -0.1831 -0.1533  0.3574
 2572TIP3    H131911   7.216   6.473   6.668  0.4895  0.7328 -0.5399
 2572TIP3    H231912   7.325   6.394   6.738 -0.6004 -0.3674 -0.0499
 2573TIP3   OH231913   3.962   4.790   9.550 -0.7960 -0.1062 -0.7295
 2573TIP3    H131914   4.050   4.778   9.515 -0.4862 -0.9426  0.3004
 2573TIP3    H231915   3.963   4.877   9.589  0.4508 -1.0840  1.6327
 2574TIP3   OH231916   5.837   5.441   9.127  0.6010  0.2354 -0.5884
 2574TIP3    H131917   5.916   5.481   9.092 -0.3003  1.3502 -1.4150
 2574TIP3    H231918   5.799   5.395   9.053 -0.3301  1.0232 -0.6160
 2575TIP3   OH231919   4.211   1.086   8.072 -0.4406 -0.0495  0.5251
 2575TIP3    H131920   4.198   1.094   8.167 -3.0148 -0.2369  0.2424
 2575TIP3    H231921   4.201   1.175   8.039 -1.4611 -0.2520  0.2573
 2576TIP3   OH231922   5.796   3.416   8.904 -0.4585 -0.0555  0.0393
 2576TIP3    H131923   5.792   3.336   8.851 -0.0745  0.6670 -1.1262
 2576TIP3    H231924   5.885   3.449   8.889 -1.3695  1.8720 -1.4923
 2577TIP3   OH231925   1.756   1.553   7.365  0.2736 -0.1273 -0.3438
 2577TIP3    H131926   1.845   1.519   7.367  0.3667  0.0279 -1.3197
 2577TIP3    H231927   1.727   1.539   7.275 -0.3512  0.6869 -0.2847
 2578TIP3   OH231928   3.786   0.140   6.987  0.6382  0.0926  0.3986
 2578TIP3    H131929   3.861   0.188   6.950 -0.1513  0.8313 -0.2722
 2578TIP3    H231930   3.825   0.060   7.023  1.7346  0.3917 -0.0713
 2579TIP3   OH231931   3.959   0.486   9.189  0.1322  0.0237 -0.0304
 2579TIP3    H131932   3.940   0.542   9.264 -1.5319 -0.5496  0.0328
 2579TIP3    H231933   3.896   0.414   9.197  2.2127 -1.9126 -0.0622
 2580TIP3   OH231934   5.108   1.926   7.228 -0.2142  0.2681 -0.7263
 2580TIP3    H131935   5.186   1.884   7.264 -1.1510 -1.3713 -0.5018
 2580TIP3    H231936   5.127   2.020   7.231  1.9377 -0.1018 -1.1460
 2581TIP3   OH231937   3.630   4.718   8.898 -0.0583 -0.4635 -0.0141
 2581TIP3    H131938   3.618   4.650   8.964 -1.0619  0.3078  0.6114
 2581TIP3    H231939   3.651   4.797   8.947  1.7565 -0.4211 -0.7701
 2582TIP3   OH231940   2.811   5.950   8.054 -0.0552 -0.2436 -0.1487
 2582TIP3    H131941   2.756   5.904   7.990  1.6916 -0.3184 -1.6617
 2582TIP3    H231942   2.834   5.883   8.119 -3.0771  0.1743  1.5461
 2583TIP3   OH231943   5.448   0.450   7.495  0.2572 -0.1476 -0.1378
 2583TIP3    H131944   5.457   0.419   7.405 -0.9759  1.6494 -0.9413
 2583TIP3    H231945   5.377   0.397   7.532 -0.1297 -0.0040 -0.6664
 2584TIP3   OH231946   0.712   5.965  10.148 -0.0024  0.3087  0.2422
 2584TIP3    H131947   0.769   5.942  10.222  0.8485 -1.8204 -0.9848
 2584TIP3    H231948   0.753   6.043  10.110 -1.1305  2.1909  2.6448
 2585TIP3   OH231949   6.445   6.403   9.639 -0.0717 -0.3613  0.3574
 2585TIP3    H131950   6.483   6.490   9.650 -2.1870  0.5838  0.6268
 2585TIP3    H231951   6.484   6.352   9.710  2.9627 -0.3878 -1.1399
 2586TIP3   OH231952   0.223   5.206   8.646 -0.0669  0.1781  0.7463
 2586TIP3    H131953   0.179   5.134   8.690  1.3203 -0.7094  0.7274
 2586TIP3    H231954   0.226   5.180   8.554  3.5474 -1.5340  1.1680
 2587TIP3   OH231955   0.937   5.781   8.716  0.4055  0.4031 -0.1850
 2587TIP3    H131956   1.018   5.829   8.728  0.6205  0.0204 -0.0789
 2587TIP3    H231957   0.868   5.841   8.744  0.6532  0.7194 -0.2536
 2588TIP3   OH231958   0.997   0.306   9.429  0.2463 -0.0964  0.0513
 2588TIP3    H131959   1.013   0.213   9.446 -0.8931 -0.4613 -0.7736
 2588TIP3    H231960   0.998   0.314   9.334  2.9240  1.2488  0.1017
 2589TIP3   OH231961   1.517   6.140   7.906 -0.0890  0.4409 -0.5534
 2589TIP3    H131962   1.567   6.113   7.983  1.6018  1.5634 -1.2020
 2589TIP3    H231963   1.429   6.156   7.939  0.4166  0.1477  1.0003
 2590TIP3   OH231964   2.558   0.525   9.272  0.0562  0.0762 -0.8494
 2590TIP3    H131965   2.551   0.571   9.188  0.1984  0.6989 -0.5206
 2590TIP3    H231966   2.650   0.499   9.277  0.2334  0.7617 -0.5090
 2591TIP3   OH231967   0.623   1.819   8.241 -0.7552  0.3040  0.6136
 2591TIP3    H131968   0.658   1.784   8.322  3.6928 -2.3881 -2.0700
 2591TIP3    H231969   0.683   1.890   8.217  0.3478 -1.3370 -1.9058
 2592TIP3   OH231970   6.382   0.229   9.570 -0.0827 -0.5993 -0.2190
 2592TIP3    H131971   6.382   0.157   9.507  2.6357 -1.8675  1.0288
 2592TIP3    H231972   6.366   0.186   9.655  0.9591  0.3410  0.4777
 2593TIP3   OH231973   4.345   7.019   7.886  0.7300 -0.3864  0.0371
 2593TIP3    H131974   4.438   7.004   7.868  1.0096  0.7534  0.4197
 2593TIP3    H231975   4.341   7.111   7.914 -0.8954  0.6112 -2.9666
 2594TIP3   OH231976   4.788   5.637   7.585 -0.0002 -0.2903  0.0155
 2594TIP3    H131977   4.778   5.600   7.498  0.7014 -0.7289  0.1065
 2594TIP3    H231978   4.744   5.574   7.643 -0.0566 -0.2402  0.0273
 2595TIP3   OH231979   0.234   5.680   8.132 -0.0248  0.3200  0.0038
 2595TIP3    H131980   0.190   5.714   8.054 -0.6293 -0.9416 -0.2364
 2595TIP3    H231981   0.204   5.589   8.139  2.5783 -0.6674 -0.2380
 2596TIP3   OH231982   0.968   0.014   7.166  0.2503  0.0142  0.7863
 2596TIP3    H131983   0.926   0.053   7.244  1.3203  0.8938  0.9420
 2596TIP3    H231984   0.925   0.057   7.092  0.9457  1.0188  0.9478
 2597TIP3   OH231985   4.406   1.828   8.106  0.2018  0.6405 -0.5799
 2597TIP3    H131986   4.477   1.869   8.056  2.0475 -1.4759  0.1059
 2597TIP3    H231987   4.401   1.879   8.187  0.3740  1.3257 -0.9985
 2598TIP3   OH231988   1.064   3.589   8.747  0.3732 -0.3589  0.0142
 2598TIP3    H131989   1.076   3.547   8.832  0.9086 -1.9380 -0.7939
 2598TIP3    H231990   1.144   3.569   8.699  0.3278  1.0142 -0.6789
 2599TIP3   OH231991   0.472   7.366   9.729  0.0883  0.2920 -0.0648
 2599TIP3    H131992   0.440   7.276   9.727 -1.9423  0.9307  0.7285
 2599TIP3    H231993   0.392   7.420   9.721  0.7797  2.0419  3.0717
 2600TIP3   OH231994   5.221   6.987   8.007 -0.4914 -0.3963 -0.2027
 2600TIP3    H131995   5.175   7.011   8.088  1.9851  0.1616  1.1304
 2600TIP3    H231996   5.248   7.070   7.969  0.1230 -0.7224 -0.4968
 2601TIP3   OH231997   6.779   1.005   8.060  0.1206  0.2409 -0.1821
 2601TIP3    H131998   6.794   0.922   8.103 -0.3468  0.6130  0.7334
 2601TIP3    H231999   6.684   1.011   8.051  0.1133  0.8788  0.1991
 2602TIP3   OH232000   2.631   0.071   8.613  0.0743  0.3317 -0.4300
 2602TIP3    H132001   2.547   0.026   8.613  0.4379 -0.3987  0.9096
 2602TIP3    H232002   2.610   0.162   8.637 -0.3807  0.2750 -0.6051
 2603TIP3   OH232003   0.473   6.286   7.404 -0.1221 -0.1816 -0.3394
 2603TIP3    H132004   0.496   6.260   7.314  1.5035 -0.9426  0.2511
 2603TIP3    H232005   0.468   6.203   7.452 -2.9460  0.0357 -0.0824
 2604TIP3   OH232006   2.125   4.966   9.105  0.2855  0.0888 -0.5783
 2604TIP3    H132007   2.207   4.954   9.154  0.2031 -0.4588 -0.5667
 2604TIP3    H232008   2.066   4.900   9.142  0.5958 -1.1861 -2.2234
 2605TIP3   OH232009   2.873   5.549   6.778  0.2502 -0.3206 -0.3331
 2605TIP3    H132010   2.879   5.629   6.726 -0.1350 -0.3312 -0.3950
 2605TIP3    H232011   2.946   5.495   6.748 -0.4684 -0.6861 -1.4780
 2606TIP3   OH232012   4.727   5.925   8.995  0.1318 -0.1577 -0.4418
 2606TIP3    H132013   4.810   5.927   8.947  1.1868 -2.4814  1.1169
 2606TIP3    H232014   4.666   5.881   8.935  0.4770  0.0643 -0.9620
 2607TIP3   OH232015   6.496   4.751   7.530  0.5266 -0.1945  0.2389
 2607TIP3    H132016   6.449   4.787   7.455  0.5949 -0.8327 -0.1190
 2607TIP3    H232017   6.546   4.678   7.494 -0.3118 -1.2175  1.0974
 2608TIP3   OH232018   5.032   2.866   9.491  0.7684 -0.0174 -0.0540
 2608TIP3    H132019   4.993   2.882   9.405 -1.8157 -2.4247  0.5673
 2608TIP3    H232020   4.959   2.845   9.548  2.7096 -1.9158  1.9309
 2609TIP3   OH232021   0.018   5.549   9.708  0.5770 -0.3826 -0.9088
 2609TIP3    H132022   0.073   5.501   9.770 -0.4637 -0.4788 -0.0459
 2609TIP3    H232023   0.060   5.535   9.623  1.5093 -1.0021 -0.3581
 2610TIP3   OH232024   0.274   5.309   8.334  0.2163  0.3338  0.4733
 2610TIP3    H132025   0.196   5.326   8.281 -0.8970 -0.4534  1.7828
 2610TIP3    H232026   0.289   5.215   8.325  0.1577  0.2339  1.3289
 2611TIP3   OH232027   5.060   5.146   8.332 -0.1804 -0.3463  0.3075
 2611TIP3    H132028   5.054   5.079   8.263 -1.2563 -1.1713  1.1692
 2611TIP3    H232029   5.013   5.221   8.295  1.0477 -0.0155 -0.6723
 2612TIP3   OH232030   2.007   0.125   9.583 -0.4509  0.4300  0.0933
 2612TIP3    H132031   2.007   0.216   9.612  0.9582  0.9709 -1.4833
 2612TIP3    H232032   2.031   0.129   9.491  2.9955 -1.7259  0.7134
 2613TIP3   OH232033   0.370   3.222   8.357  0.5626 -0.3602  0.3230
 2613TIP3    H132034   0.307   3.284   8.322  2.1490  1.3992  0.4379
 2613TIP3    H232035   0.352   3.219   8.451  0.4687 -0.0870  0.3123
 2614TIP3   OH232036   5.845   6.752   7.738  0.0641 -0.0215 -0.3687
 2614TIP3    H132037   5.770   6.811   7.742 -1.5810 -2.0466  0.5471
 2614TIP3    H232038   5.870   6.751   7.646  0.6491  2.5970 -0.3211
 2615TIP3   OH232039   0.821   6.501   8.635  0.1143  0.4788 -0.0946
 2615TIP3    H132040   0.903   6.453   8.620  0.3810  0.6592  0.7774
 2615TIP3    H232041   0.823   6.572   8.570  0.0916 -0.2044 -0.8566
 2616TIP3   OH232042   3.515   7.483   8.047 -0.3070  0.4375  0.2066
 2616TIP3    H132043   3.537   7.568   8.085  0.1962 -0.6835  2.5738
 2616TIP3    H232044   3.573   7.421   8.092  0.8482 -0.9645 -2.9383
 2617TIP3   OH232045   3.014   5.582   7.972  0.3215  0.5668 -0.2430
 2617TIP3    H132046   3.047   5.660   8.017  1.3594  0.4109 -0.7194
 2617TIP3    H232047   3.092   5.533   7.949 -0.2931 -0.2512 -0.6233
 2618TIP3   OH232048   1.614   2.137   7.659  0.2177  0.4369 -0.3459
 2618TIP3    H132049   1.697   2.129   7.610 -0.1471  1.2333 -1.1208
 2618TIP3    H232050   1.641   2.149   7.750  0.9362 -0.1367 -0.4719
 2619TIP3   OH232051   1.258   0.045   6.869  0.1353  0.3581 -0.5598
 2619TIP3    H132052   1.197  -0.002   6.926 -1.4386  1.8490 -0.9402
 2619TIP3    H232053   1.323   0.083   6.928  0.1886 -0.5019 -0.0581
 2620TIP3   OH232054   4.030   3.152   7.896 -0.1343 -0.1052  0.3840
 2620TIP3    H132055   4.086   3.091   7.944 -0.7672  0.4928  1.9620
 2620TIP3    H232056   4.087   3.227   7.877  0.5679 -1.0225 -1.3155
 2621TIP3   OH232057   0.396   5.887   7.788  0.1526  0.6059  0.7264
 2621TIP3    H132058   0.360   5.918   7.871 -0.5339  0.5877  0.4475
 2621TIP3    H232059   0.475   5.840   7.811 -0.1183  0.4670  1.3856
 2622TIP3   OH232060   6.060   0.446   9.657 -0.2221 -0.3447  0.0590
 2622TIP3    H132061   6.136   0.457   9.600  1.0556 -0.2928  1.6744
 2622TIP3    H232062   5.986   0.474   9.604  0.9438  0.0892 -1.4226
 2623TIP3   OH232063   4.677   0.274   9.337 -0.2516  0.1477  0.2873
 2623TIP3    H132064   4.644   0.278   9.427  0.2115 -0.9492  0.5168
 2623TIP3    H232065   4.723   0.357   9.326  1.9329 -0.7403  1.9853
 2624TIP3   OH232066   3.186   6.877   7.630  0.0198  0.0139  0.2943
 2624TIP3    H132067   3.167   6.784   7.618 -1.2720  0.3917 -0.8274
 2624TIP3    H232068   3.206   6.885   7.724 -1.8382 -1.0837  0.8385
 2625TIP3   OH232069   3.014   7.412   8.253 -0.4043 -0.3045  0.4859
 2625TIP3    H132070   2.982   7.390   8.341 -1.3245  0.6937  0.4293
 2625TIP3    H232071   3.012   7.508   8.251  0.4681 -0.2894 -0.3307
 2626TIP3   OH232072   0.924   5.892   9.074  0.3463 -0.4549 -0.0446
 2626TIP3    H132073   0.929   5.876   8.980 -0.0467  0.1721 -0.1786
 2626TIP3    H232074   0.837   5.931   9.087  1.5226  2.2891  0.1368
 2627TIP3   OH232075   5.789   4.601   7.949  0.2652 -0.3772  0.0996
 2627TIP3    H132076   5.845   4.577   8.023 -1.0220 -0.7959  0.9712
 2627TIP3    H232077   5.712   4.642   7.989 -0.8660 -1.4173 -0.9292
 2628TIP3   OH232078   7.489   3.861   8.785 -0.3358  0.0264  0.4323
 2628TIP3    H132079   7.546   3.810   8.728 -0.0887 -0.1200  0.8062
 2628TIP3    H232080   7.409   3.873   8.734 -0.5827 -1.1576  0.5163
 2629TIP3   OH232081   2.138   5.500   7.823  0.3632  0.3721  0.2829
 2629TIP3    H132082   2.094   5.494   7.738 -0.5739 -0.0624  0.7823
 2629TIP3    H232083   2.219   5.548   7.805  2.6297 -3.6621 -1.7751
 2630TIP3   OH232084   2.917   2.447   9.062 -0.6406  0.0518  0.2176
 2630TIP3    H132085   2.922   2.370   9.004 -2.1058 -0.0694  0.2014
 2630TIP3    H232086   2.920   2.410   9.150  1.3333  0.2162  0.2557
 2631TIP3   OH232087   5.928   3.634   8.016  0.0990 -0.0331  0.3594
 2631TIP3    H132088   5.993   3.704   8.025  0.9140 -0.8268  0.8151
 2631TIP3    H232089   5.977   3.562   7.976 -0.8155 -0.2326 -0.4205
 2632TIP3   OH232090   7.478   2.920   7.988  0.0538 -0.6881  0.7668
 2632TIP3    H132091   7.487   2.825   8.000 -1.7004 -1.0154 -0.1807
 2632TIP3    H232092   7.456   2.931   7.895 -2.4877  0.3696  1.3934
 2633TIP3   OH232093   2.079   5.772   9.831  0.1532  0.2820 -0.0596
 2633TIP3    H132094   2.172   5.769   9.807 -0.1865  2.0872 -1.9759
 2633TIP3    H232095   2.053   5.862   9.811 -2.4204 -0.6416 -1.2654
 2634TIP3   OH232096   6.226   5.848   9.534 -0.0106  0.3511  0.0414
 2634TIP3    H132097   6.251   5.756   9.533 -1.2712 -0.0310  1.0350
 2634TIP3    H232098   6.133   5.848   9.512  0.2417  1.5063 -1.1420
 2635TIP3   OH232099   1.670   3.754   7.438  0.2768 -0.0784 -0.1741
 2635TIP3    H132100   1.619   3.733   7.360  1.4678  1.4995 -1.4603
 2635TIP3    H232101   1.622   3.826   7.479  0.7146  0.5098 -0.6559
 2636TIP3   OH232102   5.475   3.739   7.717  0.1476 -0.4704 -0.3159
 2636TIP3    H132103   5.395   3.777   7.753  0.5196  1.2441 -1.1972
 2636TIP3    H232104   5.534   3.813   7.705  1.4521 -1.5324 -0.7779
 2637TIP3   OH232105   6.712   4.145   7.235 -0.6359 -0.0687 -0.5552
 2637TIP3    H132106   6.639   4.200   7.206 -0.8242  0.2691  0.5239
 2637TIP3    H232107   6.704   4.142   7.331  0.6587 -0.1711 -0.4328
 2638TIP3   OH232108   0.634   2.202   7.066  0.3093 -0.3402  0.1136
 2638TIP3    H132109   0.682   2.125   7.035  0.3238  0.2735 -1.5036
 2638TIP3    H232110   0.552   2.201   7.017 -1.5448 -1.4810  2.9800
 2639TIP3   OH232111   2.824   3.623   9.269  0.2936  0.1641  0.1836
 2639TIP3    H132112   2.900   3.640   9.213 -0.3204 -0.3477 -0.8376
 2639TIP3    H232113   2.753   3.676   9.231 -0.2613 -0.5772  0.1641
 2640TIP3   OH232114   3.855   2.014   7.483  0.4586 -0.6055 -0.2693
 2640TIP3    H132115   3.912   1.981   7.414  0.1182 -2.4751  0.2812
 2640TIP3    H232116   3.821   1.936   7.525 -1.5607  0.4624  0.2115
 2641TIP3   OH232117   5.187   1.874   9.425  0.2013  0.1933 -0.1343
 2641TIP3    H132118   5.118   1.895   9.363  0.4908  0.2840 -0.4321
 2641TIP3    H232119   5.229   1.796   9.389  0.5092  0.3715 -0.1736
 2642TIP3   OH232120   3.680   5.913   7.611 -0.7560  0.5550 -0.1701
 2642TIP3    H132121   3.641   5.833   7.575 -0.7743  0.6016 -0.2536
 2642TIP3    H232122   3.704   5.890   7.701  0.1083  0.1643 -0.4888
 2643TIP3   OH232123   1.662   6.501   9.099  0.4250 -0.1010  1.0413
 2643TIP3    H132124   1.677   6.594   9.113  0.5497  0.5783 -2.7239
 2643TIP3    H232125   1.747   6.467   9.068  0.0023 -1.1472  0.9857
 2644TIP3   OH232126   0.109   6.804   7.299 -0.0344  0.2638 -0.4190
 2644TIP3    H132127   0.127   6.796   7.393  0.2526 -0.6749 -0.5525
 2644TIP3    H232128   0.014   6.796   7.292  0.1182 -1.8897 -0.4164
 2645TIP3   OH232129   0.895   7.298   9.242 -0.0878  0.0634 -0.0420
 2645TIP3    H132130   0.927   7.208   9.238 -1.2240 -0.3351 -0.3672
 2645TIP3    H232131   0.863   7.308   9.332  0.9923  0.5007  0.3190
 2646TIP3   OH232132   2.147   6.047   7.375 -0.6308  0.6247 -0.2318
 2646TIP3    H132133   2.232   6.080   7.344 -0.8133  0.5279 -0.8467
 2646TIP3    H232134   2.145   6.070   7.467  0.3080  0.1380 -0.0740
 2647TIP3   OH232135   0.685   7.429   8.094  0.4539  0.3130 -0.3859
 2647TIP3    H132136   0.734   7.507   8.117 -0.2328  0.7241 -0.2796
 2647TIP3    H232137   0.649   7.447   8.007 -0.5748  0.5645  0.0685
 2648TIP3   OH232138   3.627   1.428   8.547  0.3497  0.0047  0.3484
 2648TIP3    H132139   3.585   1.508   8.579 -0.7920 -0.3434 -0.2358
 2648TIP3    H232140   3.692   1.407   8.614  1.3376  1.9396  0.0494
 2649TIP3   OH232141   1.480   7.495   8.373 -0.5206 -0.1601  0.3971
 2649TIP3    H132142   1.545   7.525   8.436 -0.7269 -0.4415  0.7479
 2649TIP3    H232143   1.526   7.429   8.320  0.4875  1.9766 -1.5577
 2650TIP3   OH232144   5.994   7.505   8.704  0.3734 -0.0543 -0.1193
 2650TIP3    H132145   6.054   7.561   8.654 -0.2213  0.0854 -0.6846
 2650TIP3    H232146   5.953   7.565   8.766  0.4616 -0.0552 -0.0595
 2651TIP3   OH232147   0.500   2.283   7.736  0.3358 -0.4891  0.0159
 2651TIP3    H132148   0.466   2.200   7.770 -0.7637 -0.1316 -0.1753
 2651TIP3    H232149   0.434   2.348   7.761  0.5141  0.1108 -1.0173
 2652TIP3   OH232150   3.437   0.663   8.580 -0.7168 -0.4825 -0.4665
 2652TIP3    H132151   3.442   0.751   8.616  1.6725 -0.3383 -0.9747
 2652TIP3    H232152   3.344   0.650   8.561 -1.1457  1.8856 -0.3055
 2653TIP3   OH232153   5.425   2.545   8.132 -0.0427 -0.0480  0.3925
 2653TIP3    H132154   5.506   2.496   8.114 -0.0331 -0.5150  1.6298
 2653TIP3    H232155   5.455   2.635   8.146  0.8624 -0.7859  4.5332
 2654TIP3   OH232156   4.297   0.643   9.018 -0.0366 -0.1829  0.4053
 2654TIP3    H132157   4.219   0.602   8.980  0.3351 -1.5031  0.9946
 2654TIP3    H232158   4.265   0.684   9.099 -0.2661 -0.0152  0.2311
 2655TIP3   OH232159   5.382   2.527   8.458 -0.4398 -0.1672 -0.3057
 2655TIP3    H132160   5.452   2.563   8.513  0.1984 -2.0074  0.1865
 2655TIP3    H232161   5.364   2.595   8.393  1.6460  0.4588 -0.3023
 2656TIP3   OH232162   6.686   3.643   8.353 -0.0796 -0.2899 -0.3064
 2656TIP3    H132163   6.626   3.625   8.425  0.4381  1.4650  0.6015
 2656TIP3    H232164   6.652   3.723   8.313  1.1326  0.2248 -0.3397
 2657TIP3   OH232165   1.652   6.909   8.897  0.7160 -0.0602 -0.1517
 2657TIP3    H132166   1.738   6.874   8.875  0.9876 -0.2190  1.0736
 2657TIP3    H232167   1.657   6.928   8.991 -0.9363 -1.1161  0.2049
 2658TIP3   OH232168   2.344   3.929   7.736  0.4026  0.6657  0.2466
 2658TIP3    H132169   2.362   3.952   7.828 -1.7469  0.0823  0.8612
 2658TIP3    H232170   2.259   3.886   7.738  0.9126 -0.5754 -1.8771
 2659TIP3   OH232171   5.715   0.384   8.230  0.1947 -0.2479  0.7287
 2659TIP3    H132172   5.736   0.460   8.176  0.6700 -1.2342 -0.5072
 2659TIP3    H232173   5.701   0.420   8.318  2.1379  1.0844  0.5557
 2660TIP3   OH232174   1.740   2.305   8.218 -0.0558  0.2149  0.0895
 2660TIP3    H132175   1.811   2.355   8.179  0.7368 -0.3151  0.8244
 2660TIP3    H232176   1.774   2.275   8.302 -0.6205 -1.2390 -0.1599
 2661TIP3   OH232177   4.375   0.851   9.289 -0.6488 -0.0868  0.1163
 2661TIP3    H132178   4.281   0.845   9.268 -0.0470  0.0622 -3.2113
 2661TIP3    H232179   4.396   0.767   9.328 -1.7698 -1.0224 -1.1938
 2662TIP3   OH232180   4.254   4.780   9.495  0.1715  0.1364 -0.1860
 2662TIP3    H132181   4.294   4.839   9.558 -0.5408  1.2052 -0.7097
 2662TIP3    H232182   4.327   4.751   9.439  0.6429 -0.0758  0.5270
 2663TIP3   OH232183   0.040   0.189   8.896 -0.0457 -0.9358 -0.3412
 2663TIP3    H132184  -0.027   0.123   8.877 -0.7918 -0.3817  0.3012
 2663TIP3    H232185   0.024   0.258   8.832 -1.8858  0.4498  1.4970
 2664TIP3   OH232186   0.277   2.692   8.761  0.0518  0.0513 -0.3373
 2664TIP3    H132187   0.221   2.768   8.778 -0.8487 -0.6079 -0.2910
 2664TIP3    H232188   0.220   2.630   8.717  1.7924  0.9542 -4.2928
 2665TIP3   OH232189   0.768   3.606   9.339 -0.5726  0.0676 -0.0219
 2665TIP3    H132190   0.809   3.685   9.374 -2.0277  1.3562 -1.0961
 2665TIP3    H232191   0.835   3.538   9.349 -0.0530  0.8718  2.9643
 2666TIP3   OH232192   2.348   1.504   7.975 -0.0008 -0.0402  0.1320
 2666TIP3    H132193   2.264   1.472   8.007  0.3302 -0.2669  0.7828
 2666TIP3    H232194   2.412   1.470   8.037  0.4007  1.5498  0.6322
 2667TIP3   OH232195   6.718   0.194   9.325 -0.5634 -0.7470  0.0481
 2667TIP3    H132196   6.726   0.171   9.417  0.0416  1.1846  0.5350
 2667TIP3    H232197   6.808   0.199   9.293 -0.7641 -1.3305 -0.6378
 2668TIP3   OH232198   6.422   5.275   7.000  0.3115  0.2616  0.0509
 2668TIP3    H132199   6.333   5.241   7.013  0.1595  0.5571 -0.1962
 2668TIP3    H232200   6.423   5.303   6.908 -0.3752  3.1799  0.8272
 2669TIP3   OH232201   6.085   0.354   7.609  0.1803  0.1987  0.2143
 2669TIP3    H132202   6.124   0.338   7.695  2.9677  3.1596 -0.3103
 2669TIP3    H232203   6.124   0.288   7.552 -0.1731 -0.5501  0.8263
 2670TIP3   OH232204   0.491   1.423   8.413  0.0122 -0.0069  0.4279
 2670TIP3    H132205   0.515   1.369   8.488 -2.2756 -0.8000  0.6622
 2670TIP3    H232206   0.524   1.511   8.435  1.3853 -0.7048  1.2826
 2671TIP3   OH232207   4.688   6.542   8.084 -0.0343 -0.1613 -0.2932
 2671TIP3    H132208   4.673   6.461   8.034  0.3850 -1.2269  1.2286
 2671TIP3    H232209   4.752   6.590   8.033  0.8643 -1.5125 -0.4893
 2672TIP3   OH232210   2.611   3.975   9.423 -0.3451  0.1564 -0.1772
 2672TIP3    H132211   2.592   3.895   9.374  0.8492  1.1140 -2.3382
 2672TIP3    H232212   2.704   3.970   9.442 -0.7204 -0.0536  1.8734
 2673TIP3   OH232213   3.149   0.316   8.676  0.0102  0.0287 -0.4979
 2673TIP3    H132214   3.216   0.336   8.741 -0.2170 -0.2724 -0.1622
 2673TIP3    H232215   3.135   0.222   8.685 -0.2513  0.0424 -0.7628
 2674TIP3   OH232216   1.396   4.687   8.898  0.0615 -0.0706 -0.1126
 2674TIP3    H132217   1.438   4.622   8.842  1.5764  0.0792  0.7738
 2674TIP3    H232218   1.459   4.759   8.902 -0.2931  0.1982  1.2332
 2675TIP3   OH232219   0.270   1.318   8.287  0.3761 -0.4061  0.7405
 2675TIP3    H132220   0.266   1.385   8.218  0.4603 -1.6428 -0.5178
 2675TIP3    H232221   0.339   1.347   8.345 -2.7040  3.1652  3.0808
 2676TIP3   OH232222   4.031   2.878   9.244  0.3171  0.1878  0.1480
 2676TIP3    H132223   4.081   2.954   9.215  0.6164 -0.4382 -1.0412
 2676TIP3    H232224   4.087   2.803   9.224 -0.1155 -0.3788  0.9942
 2677TIP3   OH232225   5.818   7.193   9.195  0.2071  0.3256 -0.4184
 2677TIP3    H132226   5.806   7.187   9.100  0.3732  0.3573 -0.4414
 2677TIP3    H232227   5.755   7.130   9.231 -1.0021  1.4628 -0.4703
 2678TIP3   OH232228   7.057   0.966   7.753 -0.0472 -0.4007 -0.3826
 2678TIP3    H132229   7.037   0.903   7.683 -1.5335  0.6145 -0.9275
 2678TIP3    H232230   6.975   1.014   7.766  1.1961  1.8735 -0.4671
 2679TIP3   OH232231   3.388   7.017   8.753 -0.9215 -0.0240 -0.0020
 2679TIP3    H132232   3.372   7.001   8.846 -0.7252 -0.8831 -0.1082
 2679TIP3    H232233   3.476   6.983   8.738 -1.7195 -1.8305 -0.9410
 2680TIP3   OH232234   2.582   2.477   9.021  0.3302  0.0866 -0.3675
 2680TIP3    H132235   2.649   2.411   9.005  0.3924 -0.5321  2.0300
 2680TIP3    H232236   2.509   2.453   8.965  1.3821 -0.3702 -1.5685
 2681TIP3   OH232237   7.083   7.409   9.006  0.0089  0.0381 -0.3208
 2681TIP3    H132238   7.111   7.451   9.088 -0.5181 -1.8514  0.8954
 2681TIP3    H232239   6.989   7.426   9.001 -0.1401 -0.6854 -0.0084
 2682TIP3   OH232240   4.183   5.070   8.939  0.6936 -0.7578  0.1281
 2682TIP3    H132241   4.140   5.057   8.854  2.6438 -1.9986 -0.7612
 2682TIP3    H232242   4.270   5.032   8.927  1.2017 -0.5105  2.5602
 2683TIP3   OH232243   5.361   3.244   8.335 -0.3856  0.1729 -0.2122
 2683TIP3    H132244   5.351   3.236   8.429  0.4850  0.4785 -0.0876
 2683TIP3    H232245   5.454   3.225   8.319 -0.1560  1.6809 -0.8228
 2684TIP3   OH232246   1.094   7.008   8.219 -0.0913  0.2825  0.4183
 2684TIP3    H132247   1.069   6.999   8.127 -0.2038 -0.8118  0.5412
 2684TIP3    H232248   1.023   7.060   8.258 -0.4941  0.0058  0.0671
 2685TIP3   OH232249   0.621   3.325   9.455 -0.6416 -0.0276 -0.3770
 2685TIP3    H132250   0.607   3.409   9.500  1.4240 -0.0526  0.3976
 2685TIP3    H232251   0.570   3.333   9.374 -1.0873  1.6720  0.0269
 2686TIP3   OH232252   4.793   3.769   9.745  0.2482  0.4608 -0.3358
 2686TIP3    H132253   4.844   3.715   9.685  0.1036  0.1471 -0.1748
 2686TIP3    H232254   4.835   3.855   9.742 -0.8737  1.0020 -2.3330
 2687TIP3   OH232255   5.903   0.222   9.194  0.2365  0.6494 -0.4599
 2687TIP3    H132256   5.972   0.279   9.159 -0.8673  1.1618 -1.9089
 2687TIP3    H232257   5.826   0.279   9.199 -0.5807 -0.4001 -0.7727
 2688TIP3   OH232258   1.854   4.974   7.332 -0.5086 -0.1900  0.3847
 2688TIP3    H132259   1.915   5.017   7.272 -0.2870  0.6864  1.2004
 2688TIP3    H232260   1.859   4.881   7.310  1.3810 -0.1908  0.6412
 2689TIP3   OH232261   6.091   5.372   7.566 -0.1403  0.0151  0.0648
 2689TIP3    H132262   6.045   5.369   7.650 -2.1167  2.0230 -0.8567
 2689TIP3    H232263   6.172   5.323   7.581 -1.9306 -2.5383  2.1688
 2690TIP3   OH232264   3.693   5.490   8.427 -0.0048 -0.1719  0.3420
 2690TIP3    H132265   3.623   5.425   8.423  1.8982 -2.3675  0.9108
 2690TIP3    H232266   3.773   5.439   8.438  1.9440  2.1034 -2.0401
 2691TIP3   OH232267   3.898   5.554   7.044  0.1562  0.1517 -0.4327
 2691TIP3    H132268   3.907   5.649   7.045  1.3870  0.1901  3.4738
 2691TIP3    H232269   3.982   5.522   7.013  0.5474  0.3893  0.3495
 2692TIP3   OH232270   0.262   0.879   7.946  0.1911 -0.0214 -0.1892
 2692TIP3    H132271   0.246   0.933   7.868  0.8103  0.5726  0.0818
 2692TIP3    H232272   0.197   0.908   8.010 -0.7206 -0.9347 -0.6730
 2693TIP3   OH232273   5.297   5.334   7.431  0.0459 -0.2510  0.2057
 2693TIP3    H132274   5.210   5.363   7.461  0.8475  0.6481  1.8438
 2693TIP3    H232275   5.289   5.239   7.421 -0.9410 -0.2752  1.0329
 2694TIP3   OH232276   6.887   3.284   7.832 -0.0413  0.0445  0.3691
 2694TIP3    H132277   6.845   3.237   7.761 -2.0713  0.8921  0.9293
 2694TIP3    H232278   6.942   3.350   7.789 -0.0576 -0.4291 -0.3914
 2695TIP3   OH232279   0.609   0.724   8.372  0.1016  0.2328  0.5784
 2695TIP3    H132280   0.622   0.678   8.455 -2.8739 -1.2945  0.3491
 2695TIP3    H232281   0.618   0.656   8.305 -0.1779  0.8951 -0.1521
 2696TIP3   OH232282   1.574   1.070   8.823  0.1934 -0.1863 -0.2778
 2696TIP3    H132283   1.553   1.143   8.881 -0.3247 -1.2580  0.9174
 2696TIP3    H232284   1.492   1.050   8.778  0.4643  0.2929 -1.0109
 2697TIP3   OH232285   1.671   1.329   8.296  0.4312 -0.8443  0.1082
 2697TIP3    H132286   1.607   1.345   8.227  0.8511 -0.5618 -0.2209
 2697TIP3    H232287   1.673   1.234   8.306 -1.5235 -0.8076  1.5484
 2698TIP3   OH232288   0.900   5.172   7.035 -0.1229  0.5137  0.3882
 2698TIP3    H132289   0.807   5.151   7.025  0.2528 -1.4927  0.6043
 2698TIP3    H232290   0.914   5.246   6.976 -1.5874  0.0222 -0.6602
 2699TIP3   OH232291   2.973   1.610   9.608 -0.1341  0.0839  0.3884
 2699TIP3    H132292   2.938   1.698   9.624  0.3504  0.1912  0.9031
 2699TIP3    H232293   3.047   1.625   9.550  0.3363  0.0956  0.9758
 2700TIP3   OH232294   5.243   5.478   8.593  0.3996  0.0060  0.0402
 2700TIP3    H132295   5.258   5.389   8.624  2.3930  0.7553  1.4192
 2700TIP3    H232296   5.295   5.485   8.513 -1.2900 -0.5977 -1.1687
 2701TIP3   OH232297   2.369   3.892   7.364 -0.1557 -0.1376 -0.3493
 2701TIP3    H132298   2.389   3.805   7.329 -0.4384 -0.0012 -0.8568
 2701TIP3    H232299   2.363   3.948   7.287  2.0897  0.7762  0.0542
 2702TIP3   OH232300   7.452   5.811   7.641  0.5294 -0.2099 -0.7136
 2702TIP3    H132301   7.514   5.748   7.603  0.9659 -0.7114  0.7590
 2702TIP3    H232302   7.505   5.888   7.661  0.5602 -0.3961 -0.0510
 2703TIP3   OH232303   4.025   1.664   8.542  0.2455  0.3151  0.0649
 2703TIP3    H132304   4.036   1.732   8.475  1.6058  1.1834  1.1023
 2703TIP3    H232305   3.976   1.707   8.612  0.5600  0.0359  0.4614
 2704TIP3   OH232306   1.768   0.819   8.790 -0.1124 -0.6559 -0.4842
 2704TIP3    H132307   1.714   0.895   8.812 -0.6566 -0.6195 -1.8175
 2704TIP3    H232308   1.707   0.746   8.786  0.0311 -0.7395 -1.3743
 2705TIP3   OH232309   5.044   2.896   7.278  0.2431 -0.1810 -0.5890
 2705TIP3    H132310   4.986   2.960   7.320  0.5173 -0.9536  1.0643
 2705TIP3    H232311   4.987   2.846   7.220 -0.2484  0.6477 -0.8336
 2706TIP3   OH232312   3.917   1.439   7.495  0.2461  0.2264 -0.4925
 2706TIP3    H132313   3.871   1.359   7.469  0.4808  0.4499 -1.6318
 2706TIP3    H232314   3.994   1.408   7.542 -0.6789 -0.1653  0.8450
 2707TIP3   OH232315   3.392   4.904   8.369 -0.7215 -0.1569  0.6636
 2707TIP3    H132316   3.371   4.945   8.453 -1.7105 -0.2452  0.4671
 2707TIP3    H232317   3.339   4.952   8.305 -0.4117 -0.4695  0.1704
 2708TIP3   OH232318   0.191   6.174   7.462 -0.7363  0.1142 -0.7353
 2708TIP3    H132319   0.264   6.113   7.469 -0.6366  0.0485 -2.0383
 2708TIP3    H232320   0.214   6.230   7.388 -2.4763 -0.5941 -1.8766
 2709TIP3   OH232321   1.420   5.141   9.243 -0.3370 -0.0032  0.1448
 2709TIP3    H132322   1.330   5.142   9.213 -0.6142 -3.4263  0.5012
 2709TIP3    H232323   1.461   5.068   9.196  2.4539  1.7458 -0.4124
 2710TIP3   OH232324   5.613   5.104   7.469 -0.1935  0.2966  0.1343
 2710TIP3    H132325   5.680   5.036   7.472  1.6910  2.0737  0.4654
 2710TIP3    H232326   5.576   5.096   7.381  0.0278 -1.1027  0.1437
 2711TIP3   OH232327   5.294   5.081   8.655  0.5426 -0.5919  0.1344
 2711TIP3    H132328   5.363   5.018   8.673  0.3035 -0.9399 -0.1254
 2711TIP3    H232329   5.301   5.147   8.724  3.4452  1.4088 -1.8374
 2712TIP3   OH232330   2.428   5.568   6.981  0.1660  0.3862 -0.4130
 2712TIP3    H132331   2.501   5.522   6.942  0.6949  0.5869  0.3140
 2712TIP3    H232332   2.411   5.642   6.922  0.6413  0.4190 -0.5142
 2713TIP3   OH232333   5.665   1.847   7.225  0.3318 -0.2678  0.0291
 2713TIP3    H132334   5.721   1.772   7.206  1.1936  0.1841  0.7028
 2713TIP3    H232335   5.644   1.885   7.140 -0.9050 -1.8027 -0.4098
 2714TIP3   OH232336   2.534   0.753   8.475 -0.1987 -0.1011 -0.0651
 2714TIP3    H132337   2.622   0.736   8.509 -0.6800 -0.2868  1.1476
 2714TIP3    H232338   2.536   0.721   8.384  0.7767 -0.7592  0.1745
 2715TIP3   OH232339   0.755   6.750   8.491  0.2188  0.5420 -0.3509
 2715TIP3    H132340   0.673   6.703   8.474 -0.0896  0.7194  0.6059
 2715TIP3    H232341   0.802   6.745   8.408 -0.1778 -0.7142 -0.5332
 2716TIP3   OH232342   5.687   2.823   9.627  0.0153 -0.1060 -0.4498
 2716TIP3    H132343   5.619   2.850   9.564  0.3262  0.8669 -0.3886
 2716TIP3    H232344   5.640   2.813   9.710 -0.6159 -2.5407 -1.0357
 2717TIP3   OH232345   4.532   5.356   8.167  0.0903 -0.5903 -0.3892
 2717TIP3    H132346   4.606   5.315   8.212 -0.7974 -2.9872 -0.9905
 2717TIP3    H232347   4.553   5.348   8.074  0.1076  0.8070 -0.5264
 2718TIP3   OH232348   5.185   6.640   8.011 -0.3038 -0.2254 -0.1442
 2718TIP3    H132349   5.232   6.632   8.093  0.6605  1.9812 -0.4090
 2718TIP3    H232350   5.098   6.673   8.036 -0.8314 -1.7318  0.1228
 2719TIP3   OH232351   2.893   5.102   8.267 -0.6754 -0.6121  0.4179
 2719TIP3    H132352   2.827   5.051   8.220 -1.4195  1.7906 -1.3254
 2719TIP3    H232353   2.950   5.136   8.198  0.4470  0.0144  1.6239
 2720TIP3   OH232354   3.650   4.878   8.130  0.0873  0.0963  0.4116
 2720TIP3    H132355   3.652   4.901   8.223 -0.3943 -0.4257  0.5634
 2720TIP3    H232356   3.736   4.839   8.113  0.5757  1.1590  0.3635
 2721TIP3   OH232357   4.637   1.655   8.934  0.2036  0.0591 -0.9055
 2721TIP3    H132358   4.578   1.579   8.930  0.2898 -0.0076 -0.9094
 2721TIP3    H232359   4.724   1.617   8.944  0.1812  0.1651 -0.1982
 2722TIP3   OH232360   4.519   2.960   7.614  0.5234  0.6909  0.6273
 2722TIP3    H132361   4.562   2.915   7.541 -0.3940 -0.8248  0.9852
 2722TIP3    H232362   4.485   3.041   7.575  3.0537  1.6409  0.1884
 2723TIP3   OH232363   6.208   0.696   9.371 -0.3191 -0.4600  0.6714
 2723TIP3    H132364   6.255   0.742   9.441  0.9457 -0.3616 -0.1972
 2723TIP3    H232365   6.230   0.603   9.384 -0.3041 -0.4702  0.5786
 2724TIP3   OH232366   2.068   2.336   7.466 -0.4677 -0.2770 -0.4398
 2724TIP3    H132367   2.136   2.315   7.530  0.7494  1.6525 -1.0238
 2724TIP3    H232368   2.004   2.387   7.515  0.0574  0.5006 -0.5382
 2725TIP3   OH232369   6.170   4.872   8.612  0.2519 -0.1275 -0.0007
 2725TIP3    H132370   6.172   4.947   8.671  0.0282 -0.1027 -0.0232
 2725TIP3    H232371   6.169   4.796   8.669 -1.1443 -0.0910  0.0632
 2726TIP3   OH232372   2.660   0.694   7.546  0.0632  0.7313  0.7088
 2726TIP3    H132373   2.752   0.677   7.526  0.3858  0.2682  2.4582
 2726TIP3    H232374   2.616   0.690   7.461  1.4826 -0.1542 -0.0192
 2727TIP3   OH232375   3.751   4.218   8.950  0.1293  0.2720  0.3258
 2727TIP3    H132376   3.730   4.252   9.037 -1.4384  0.7357 -0.1934
 2727TIP3    H232377   3.708   4.279   8.890  1.2157 -0.0272 -0.7778
 2728TIP3   OH232378   6.446   4.718   8.547  0.0989 -0.1303  0.2482
 2728TIP3    H132379   6.428   4.638   8.597  1.5354 -1.4478 -1.2112
 2728TIP3    H232380   6.450   4.688   8.456  0.7779  1.6057 -0.3228
 2729TIP3   OH232381   3.785   5.986   9.456 -0.5781  0.0669 -0.5122
 2729TIP3    H132382   3.776   5.935   9.537  0.3918  1.2746  0.3997
 2729TIP3    H232383   3.714   5.955   9.400 -2.3829  0.4241  1.4563
 2730TIP3   OH232384   3.943   3.692   9.206  0.0328 -0.1934 -0.4426
 2730TIP3    H132385   4.011   3.726   9.264  1.3396  1.3903 -2.7188
 2730TIP3    H232386   3.861   3.723   9.244  0.8486  0.9494  0.4672
 2731TIP3   OH232387   2.642   5.556   9.045  0.6070  0.5240  0.3250
 2731TIP3    H132388   2.720   5.591   9.089  0.6114 -1.8095  2.4183
 2731TIP3    H232389   2.670   5.544   8.954  1.9290  1.8486  0.5153
 2732TIP3   OH232390   6.603   0.401   8.097  0.1658 -0.1524 -0.3285
 2732TIP3    H132391   6.563   0.483   8.069  0.0874 -0.7165 -1.9799
 2732TIP3    H232392   6.647   0.368   8.018  0.9779 -1.2393  0.5500
 2733TIP3   OH232393   4.432   4.100   9.038 -0.3438  0.7858  0.0321
 2733TIP3    H132394   4.485   4.109   9.117  2.0780  0.7802 -1.4765
 2733TIP3    H232395   4.429   4.006   9.021 -1.4351  0.7279  0.4286
 2734TIP3   OH232396   0.221   1.535   7.208 -0.2618  0.0842 -0.5110
 2734TIP3    H132397   0.277   1.551   7.132 -0.4835  1.6722 -0.3698
 2734TIP3    H232398   0.134   1.521   7.171 -0.5125  1.5906 -0.5409
 2735TIP3   OH232399   3.714   3.477   9.401 -0.0059  0.5234 -0.1982
 2735TIP3    H132400   3.728   3.563   9.361  2.5422 -0.4861 -1.7806
 2735TIP3    H232401   3.782   3.471   9.468 -0.5175 -0.0315  0.2718
 2736TIP3   OH232402   1.702   0.060   9.342 -0.1152  0.2203 -0.0767
 2736TIP3    H132403   1.782   0.071   9.393 -0.1883  1.3960 -0.2001
 2736TIP3    H232404   1.693   0.141   9.293 -0.5755 -0.4917 -1.2213
 2737TIP3   OH232405   0.782   7.253   8.811 -0.2422 -0.2751  0.2390
 2737TIP3    H132406   0.779   7.195   8.887 -0.7691 -0.9416 -0.2823
 2737TIP3    H232407   0.871   7.241   8.776 -0.5259 -1.2167 -0.1963
 2738TIP3   OH232408   1.386   6.705   9.166  0.0323  0.7168 -0.3050
 2738TIP3    H132409   1.302   6.743   9.191  0.3713  0.0931  1.9815
 2738TIP3    H232410   1.363   6.620   9.127 -0.4073  0.1400  1.1328
 2739TIP3   OH232411   4.250   2.559   8.653  0.6502 -0.0677 -0.2673
 2739TIP3    H132412   4.211   2.471   8.657  1.9421 -0.6515 -0.0141
 2739TIP3    H232413   4.179   2.618   8.680 -0.9439 -0.7655 -2.6032
 2740TIP3   OH232414   4.085   5.710   8.871  0.0601 -0.8409  0.0850
 2740TIP3    H132415   4.097   5.634   8.814 -0.7343 -0.5823 -0.4472
 2740TIP3    H232416   4.100   5.677   8.959  1.0201 -1.3180 -0.2465
 2741TIP3   OH232417   0.977   1.447   7.218 -0.2004  0.0298 -0.6071
 2741TIP3    H132418   0.985   1.398   7.136 -0.4427  0.2711 -0.7780
 2741TIP3    H232419   1.009   1.387   7.285  0.2320 -0.0824 -0.9092
 2742TIP3   OH232420   4.924   0.357   7.189 -0.2736 -0.4494 -0.4479
 2742TIP3    H132421   4.967   0.314   7.115 -0.0991 -0.3527 -0.4032
 2742TIP3    H232422   4.853   0.297   7.213  0.8990 -1.4592  0.5943
 2743TIP3   OH232423   4.099   7.474   6.957 -0.1525 -0.0437  1.0519
 2743TIP3    H132424   4.162   7.415   6.999 -0.3898 -0.0771  1.3599
 2743TIP3    H232425   4.135   7.562   6.973  0.5564 -0.1295  0.0152
 2744TIP3   OH232426   0.394   5.628   7.627  0.1764 -0.3845  0.2208
 2744TIP3    H132427   0.416   5.711   7.668 -1.4992  0.3060 -0.1573
 2744TIP3    H232428   0.394   5.564   7.698  2.6697 -0.3405  0.3149
 2745TIP3   OH232429   2.291   0.893   8.712  0.1150  0.1588  0.5772
 2745TIP3    H132430   2.289   0.988   8.715 -3.0854  0.2966 -1.0898
 2745TIP3    H232431   2.226   0.866   8.777 -0.3411 -0.7700 -0.2427
 2746TIP3   OH232432   0.107   5.441   8.080  0.1738  0.5995 -0.2345
 2746TIP3    H132433   0.102   5.346   8.078 -2.4919  0.6690 -0.6300
 2746TIP3    H232434   0.103   5.468   7.989  0.4281  1.1110 -0.0989
 2747TIP3   OH232435   7.394   3.968   9.539  0.9830  0.1881  0.1114
 2747TIP3    H132436   7.338   3.909   9.589  2.5440 -0.7687  0.7659
 2747TIP3    H232437   7.381   3.942   9.448  0.2654  0.0913  0.2326
 2748TIP3   OH232438   3.199   1.953   8.285 -0.5711  0.5377  0.1927
 2748TIP3    H132439   3.196   1.967   8.191 -0.9841 -0.6148  0.0227
 2748TIP3    H232440   3.145   1.876   8.300  2.0373 -1.2895  0.9670
 2749TIP3   OH232441   5.947   0.980   8.881  0.1336  0.5838  0.4400
 2749TIP3    H132442   6.010   1.041   8.842 -0.5938  2.2042  1.6740
 2749TIP3    H232443   5.984   0.959   8.967  0.6435 -1.2092 -0.1790
 2750TIP3   OH232444   4.142   3.694   7.986  0.2991  0.1357  0.0617
 2750TIP3    H132445   4.189   3.668   7.907 -1.5009  0.8294 -1.3361
 2750TIP3    H232446   4.149   3.619   8.045  1.5645 -0.4603 -0.8102
 2751TIP3   OH232447   6.662   3.089   7.733  0.3890 -0.1363  0.1117
 2751TIP3    H132448   6.674   3.115   7.641  1.0514  0.3968  0.3438
 2751TIP3    H232449   6.679   2.995   7.734  1.3601  0.0311 -0.1398
 2752TIP3   OH232450   0.485   2.557   9.055 -0.5267  0.4564  0.1131
 2752TIP3    H132451   0.481   2.560   9.151 -1.4863 -0.0931  0.1042
 2752TIP3    H232452   0.411   2.501   9.030  0.3729 -0.3267 -0.8914
 2753TIP3   OH232453   6.882   5.767   7.306  0.4364 -0.6257  0.3586
 2753TIP3    H132454   6.914   5.759   7.395 -0.6067  1.9517  1.0426
 2753TIP3    H232455   6.909   5.685   7.263  0.7877 -2.0109  3.0413
 2754TIP3   OH232456   5.698   6.803   9.523 -0.0775  0.5539 -0.0884
 2754TIP3    H132457   5.719   6.723   9.570 -0.4028 -0.4849 -1.6427
 2754TIP3    H232458   5.767   6.811   9.457  0.3857  1.9914  0.5252
 2755TIP3   OH232459   2.925   4.492   7.087 -0.1120  0.0823 -0.0929
 2755TIP3    H132460   2.886   4.517   7.004 -0.4553 -0.4188 -0.0815
 2755TIP3    H232461   3.001   4.440   7.064 -0.1401  0.0409 -0.0911
 2756TIP3   OH232462   0.710   1.761   8.730 -0.4843 -0.0299 -0.0209
 2756TIP3    H132463   0.800   1.793   8.716  0.5856 -1.2153  3.2552
 2756TIP3    H232464   0.667   1.833   8.776 -0.1856 -0.6643  1.2747
 2757TIP3   OH232465   3.778   4.058   9.298  0.2893 -0.2893 -0.2229
 2757TIP3    H132466   3.832   4.089   9.225  0.9961  1.4042  0.9594
 2757TIP3    H232467   3.698   4.026   9.257  0.5262  0.9268 -1.7169
 2758TIP3   OH232468   6.976   4.899   8.796  0.4513 -0.6101 -0.5143
 2758TIP3    H132469   7.025   4.847   8.732  1.3355 -1.0263  0.4676
 2758TIP3    H232470   7.037   4.911   8.869 -0.7575 -0.7855  0.5678
 2759TIP3   OH232471   3.744   4.640   7.867  0.2095  0.2129 -0.4185
 2759TIP3    H132472   3.754   4.619   7.774 -0.9574 -1.0513 -0.2925
 2759TIP3    H232473   3.763   4.558   7.912 -2.7988 -0.2557  0.2102
 2760TIP3   OH232474   6.015   5.683   8.430 -0.0814 -0.4094  0.1431
 2760TIP3    H132475   6.093   5.738   8.433  0.3998 -1.0597  3.4476
 2760TIP3    H232476   6.045   5.598   8.462 -1.3354 -1.9606 -2.5110
 2761TIP3   OH232477   3.341   1.107   7.216  0.1093 -0.1988  0.6008
 2761TIP3    H132478   3.303   1.162   7.147  3.2018  0.6451 -0.5593
 2761TIP3    H232479   3.285   1.029   7.218 -0.2022 -0.1828 -2.7979
 2762TIP3   OH232480   5.650   1.173   8.371 -0.3193  0.0115  0.1717
 2762TIP3    H132481   5.654   1.261   8.407  0.8497 -0.5884  1.5846
 2762TIP3    H232482   5.741   1.145   8.363 -0.5882 -0.4258 -1.9862
 2763TIP3   OH232483   5.432   1.517   7.816 -0.0632  0.4470 -0.0409
 2763TIP3    H132484   5.361   1.529   7.879 -0.0835  1.6004 -0.2532
 2763TIP3    H232485   5.420   1.588   7.753  2.5343  2.0874  1.1342
 2764TIP3   OH232486   4.564   0.756   8.799  0.2660 -0.1638  0.2331
 2764TIP3    H132487   4.610   0.813   8.738 -0.6142 -1.0415 -1.2981
 2764TIP3    H232488   4.571   0.801   8.883  1.2477  1.2311 -0.5568
 2765TIP3   OH232489   2.492   1.886   7.286  0.0330  0.3790  1.3471
 2765TIP3    H132490   2.486   1.813   7.225 -1.0258  2.1815 -0.8618
 2765TIP3    H232491   2.406   1.928   7.282  0.6803  1.8908  2.3638
 2766TIP3   OH232492   2.878   7.065   8.301 -0.4305  0.7868 -0.0441
 2766TIP3    H132493   2.866   7.078   8.206  1.6540  0.1209 -0.4606
 2766TIP3    H232494   2.957   7.011   8.307 -1.4664 -0.6174  2.0438
 2767TIP3   OH232495   5.608   6.524   9.368 -0.5205 -0.0734  0.2202
 2767TIP3    H132496   5.644   6.612   9.378 -0.5094 -0.2902  2.6842
 2767TIP3    H232497   5.684   6.466   9.375 -0.3236 -0.3250 -2.7600
 2768TIP3   OH232498   3.150   1.258   9.016 -0.1151 -0.1653 -0.3988
 2768TIP3    H132499   3.079   1.234   9.075  0.5689  0.1139  0.5634
 2768TIP3    H232500   3.111   1.255   8.929 -1.8437  1.7722  0.2182
 2769TIP3   OH232501   1.656   4.674   9.199  0.4163  0.4338  0.2251
 2769TIP3    H132502   1.689   4.625   9.124  0.0591  0.1593  0.2462
 2769TIP3    H232503   1.727   4.735   9.221  1.3957 -0.9039  0.9725
 2770TIP3   OH232504   0.214   4.162   9.697 -0.0845  0.0221 -0.3573
 2770TIP3    H132505   0.223   4.206   9.612  0.5772  2.2453  0.7889
 2770TIP3    H232506   0.281   4.203   9.752 -0.8606 -0.9861  1.3994
 2771TIP3   OH232507   3.347   5.473   9.052 -0.2299  0.3055 -0.2364
 2771TIP3    H132508   3.388   5.555   9.026  1.4346  0.5159  2.6723
 2771TIP3    H232509   3.337   5.425   8.970 -1.9337  3.5915 -2.1750
 2772TIP3   OH232510   2.073   6.650   8.623 -0.4160  0.6079 -0.1489
 2772TIP3    H132511   1.998   6.593   8.609 -0.7925  0.9862  0.3260
 2772TIP3    H232512   2.147   6.589   8.633 -0.7498  0.2181 -0.0306
 2773TIP3   OH232513   2.938   4.134   7.711 -0.4729  0.7787 -0.2135
 2773TIP3    H132514   2.953   4.075   7.637 -2.1593  0.4756 -0.3419
 2773TIP3    H232515   2.929   4.221   7.671  1.8562  1.1828 -0.0365
 2774TIP3   OH232516   0.514   6.443   7.891 -0.1880 -0.1521 -0.0148
 2774TIP3    H132517   0.543   6.529   7.862  1.9369 -0.3761  1.2246
 2774TIP3    H232518   0.491   6.397   7.810 -1.7485  1.6472 -0.6577
 2775TIP3   OH232519   0.616   5.674   6.963 -0.8156  0.0082 -0.4330
 2775TIP3    H132520   0.639   5.766   6.945 -1.4280  0.2351 -0.0735
 2775TIP3    H232521   0.603   5.635   6.877 -1.6254  0.5395 -0.5562
 2776TIP3   OH232522   2.905   2.624   7.397  1.0199  0.6354  0.1962
 2776TIP3    H132523   2.879   2.543   7.353  1.0289  0.0938  1.1733
 2776TIP3    H232524   2.858   2.623   7.481 -0.0207  2.2830 -0.2992
 2777TIP3   OH232525   4.215   7.094   6.752 -0.1048 -0.0856 -0.6896
 2777TIP3    H132526   4.261   7.172   6.784 -1.1111  0.1803  0.1417
 2777TIP3    H232527   4.124   7.122   6.742 -0.5049 -1.1939 -0.2472
 2778TIP3   OH232528   0.293   2.852   8.235 -0.0481  0.3199 -0.1439
 2778TIP3    H132529   0.305   2.834   8.328 -1.7286 -0.2495  0.0060
 2778TIP3    H232530   0.317   2.770   8.191  1.1476  0.7223 -0.2628
 2779TIP3   OH232531   1.351   0.494   8.992 -0.0527  0.0749  0.2101
 2779TIP3    H132532   1.258   0.483   8.971  0.4085 -0.5764 -1.7263
 2779TIP3    H232533   1.388   0.407   8.984  0.8488  0.4367  0.2838
 2780TIP3   OH232534   1.661   0.966   9.391 -0.3939  0.7383 -0.3889
 2780TIP3    H132535   1.727   0.967   9.321 -0.6300  1.5553 -0.6020
 2780TIP3    H232536   1.700   0.910   9.459  0.5387  1.2250 -0.5002
 2781TIP3   OH232537   3.512   3.381   7.677 -0.2639 -0.5339 -0.6812
 2781TIP3    H132538   3.563   3.446   7.629 -0.3055 -0.6020 -0.8185
 2781TIP3    H232539   3.466   3.332   7.609 -1.5081  0.3450 -0.4988
 2782TIP3   OH232540   1.861   3.772   8.345 -0.0314 -0.0914 -0.2982
 2782TIP3    H132541   1.885   3.779   8.253  2.3668 -2.1157  0.0690
 2782TIP3    H232542   1.769   3.747   8.345 -0.8953  2.6297 -1.9808
 2783TIP3   OH232543   4.840   6.445   7.402 -0.1043  0.1287 -0.7570
 2783TIP3    H132544   4.775   6.515   7.398  0.1594  0.4774  0.6259
 2783TIP3    H232545   4.906   6.470   7.337  0.1265  1.3310 -0.0858
 2784TIP3   OH232546   1.903   6.277   8.716  0.2828 -0.1571 -0.0525
 2784TIP3    H132547   1.967   6.341   8.747  0.5473 -0.2636 -0.3737
 2784TIP3    H232548   1.922   6.197   8.765 -0.9450  0.3855  1.3844
 2785TIP3   OH232549   2.919   3.373   9.373 -0.2912  0.2039  0.2219
 2785TIP3    H132550   3.014   3.384   9.372 -0.1672 -0.3760  1.9166
 2785TIP3    H232551   2.884   3.456   9.342  0.7685  0.9107  0.8551
 2786TIP3   OH232552   0.121   1.986   7.256  0.0950  0.5727  0.4955
 2786TIP3    H132553   0.138   1.943   7.172 -1.8703  0.8326 -0.0752
 2786TIP3    H232554   0.048   2.045   7.239 -2.2085 -1.3321  2.9499
 2787TIP3   OH232555   1.992   2.888   9.776  0.2229  0.2909 -0.6323
 2787TIP3    H132556   2.026   2.965   9.731 -1.6846  1.8739  0.4736
 2787TIP3    H232557   2.062   2.861   9.835  0.7244  1.5286 -0.6359
 2788TIP3   OH232558   1.541   2.172   7.329 -0.2342  0.0526 -0.2457
 2788TIP3    H132559   1.599   2.146   7.257 -0.0269 -1.1622  0.3235
 2788TIP3    H232560   1.469   2.109   7.326 -0.1283 -0.1348  0.7120
 2789TIP3   OH232561   2.729   2.311   9.576  0.5342  0.3226 -0.0716
 2789TIP3    H132562   2.822   2.331   9.574  0.4969  0.5744 -2.7098
 2789TIP3    H232563   2.685   2.396   9.571  0.1732  0.1415 -0.0675
 2790TIP3   OH232564   4.567   0.093   7.611 -0.0938  0.4628 -0.4619
 2790TIP3    H132565   4.616   0.016   7.583  0.2310  0.6798 -0.4960
 2790TIP3    H232566   4.497   0.102   7.546 -0.6836 -0.3253  0.0435
 2791TIP3   OH232567   7.293   5.969   8.158 -0.6616 -0.6575 -0.3078
 2791TIP3    H132568   7.207   5.987   8.119  0.0671 -0.4428 -1.9212
 2791TIP3    H232569   7.278   5.970   8.252 -2.2100  0.5036 -0.5269
 2792TIP3   OH232570   1.165   3.616   6.815 -0.5398  0.1839 -0.5217
 2792TIP3    H132571   1.225   3.677   6.857 -1.1721  0.6242 -0.2483
 2792TIP3    H232572   1.079   3.654   6.827 -0.9763 -0.8827 -0.1443
 2793TIP3   OH232573   5.556   3.005   8.372  0.4458 -0.3481  0.4801
 2793TIP3    H132574   5.602   3.058   8.437 -0.1550  0.7471  0.0357
 2793TIP3    H232575   5.517   2.934   8.423  0.8796 -0.1064  1.1590
 2794TIP3   OH232576   4.020   3.820   7.728 -0.1921  0.4014  0.1978
 2794TIP3    H132577   4.012   3.760   7.654 -1.7922  0.1699  0.5434
 2794TIP3    H232578   4.092   3.879   7.702  1.0363 -1.2752 -0.3740
 2795TIP3   OH232579   0.594   5.593   9.599  0.2825 -0.2907  0.4281
 2795TIP3    H132580   0.589   5.497   9.603  0.8669 -0.3199  0.6086
 2795TIP3    H232581   0.627   5.611   9.511 -1.8575 -0.1469 -0.3975
 2796TIP3   OH232582   6.392   3.160   8.291  0.0216  0.0646 -0.0509
 2796TIP3    H132583   6.407   3.234   8.349  1.0549 -1.0748  1.2097
 2796TIP3    H232584   6.474   3.111   8.294 -0.9188 -1.5949 -0.1495
 2797TIP3   OH232585   5.727   3.971   7.292 -0.1072  0.0832  0.4466
 2797TIP3    H132586   5.775   3.926   7.362  0.4515  0.0138  0.0238
 2797TIP3    H232587   5.755   3.928   7.212 -1.0573 -0.1073  0.2097
 2798TIP3   OH232588   1.835   2.936   9.186 -0.7343  0.4965  0.3949
 2798TIP3    H132589   1.884   2.901   9.112 -0.2141 -0.2332  1.0713
 2798TIP3    H232590   1.850   3.030   9.184 -1.2916  0.5750 -0.8287
 2799TIP3   OH232591   3.670   0.639   9.488  0.2058 -0.5544  0.5624
 2799TIP3    H132592   3.595   0.693   9.512 -0.0351 -0.6002 -0.0688
 2799TIP3    H232593   3.645   0.550   9.514  0.0406 -0.5705  0.3443
 2800TIP3   OH232594   4.590   6.983   7.752  0.0731  0.9718  0.3659
 2800TIP3    H132595   4.557   6.895   7.735  0.0161  1.1517 -0.5090
 2800TIP3    H232596   4.602   7.021   7.665  1.5191  1.3029  0.6888
 2801TIP3   OH232597   4.955   1.215   8.127  0.1110 -0.1720 -0.0342
 2801TIP3    H132598   4.924   1.305   8.121 -0.5881 -0.4633 -1.0970
 2801TIP3    H232599   4.914   1.181   8.207 -1.7808 -0.3246 -1.0241
 2802TIP3   OH232600   5.181   5.585   7.998 -0.9770 -0.4636 -0.6742
 2802TIP3    H132601   5.236   5.607   8.073 -1.8688 -2.1173  0.5437
 2802TIP3    H232602   5.098   5.631   8.013 -0.9401 -0.2842 -0.9956
 2803TIP3   OH232603   6.453   4.015   8.413 -0.3061  0.2466 -0.0363
 2803TIP3    H132604   6.378   3.960   8.435 -0.3963  0.8167  1.1585
 2803TIP3    H232605   6.414   4.096   8.380 -0.1952  0.2655 -0.1224
 2804TIP3   OH232606   1.105   1.697   8.773 -0.3680  0.0518  0.1965
 2804TIP3    H132607   1.164   1.737   8.710  3.6204 -1.8947  2.3262
 2804TIP3    H232608   1.041   1.650   8.719 -0.7257  3.0226 -2.2418
 2805TIP3   OH232609   3.493   4.370   8.246 -0.6933  0.2423 -0.4756
 2805TIP3    H132610   3.404   4.372   8.281 -0.6156  1.3514 -0.3069
 2805TIP3    H232611   3.506   4.457   8.207  0.7272  0.5330  0.5603
 2806TIP3   OH232612   7.349   6.706   7.331 -0.0887  0.1218 -0.0658
 2806TIP3    H132613   7.312   6.730   7.246 -0.1161 -0.4190 -0.2104
 2806TIP3    H232614   7.391   6.622   7.316  1.3565  0.7827  0.0506
 2807TIP3   OH232615   1.488   4.876   8.278 -0.4424  0.0005 -0.4971
 2807TIP3    H132616   1.547   4.814   8.235  1.5090  0.9274  0.6968
 2807TIP3    H232617   1.511   4.872   8.371 -1.4789  1.2336 -0.1407
 2808TIP3   OH232618   3.406   5.999   7.503  0.4347 -0.0365  0.1236
 2808TIP3    H132619   3.331   5.967   7.555  1.6330 -1.4685  1.0552
 2808TIP3    H232620   3.400   6.094   7.509  0.5221 -0.1092  2.9911
 2809TIP3   OH232621   6.463   5.286   9.392 -0.1706 -0.2055 -0.3817
 2809TIP3    H132622   6.524   5.335   9.447 -1.2233  0.4045  0.2560
 2809TIP3    H232623   6.461   5.334   9.309  0.7189 -0.6179 -0.6601
 2810TIP3   OH232624   2.132   2.636   7.873  0.2199  0.0413 -0.1072
 2810TIP3    H132625   2.056   2.693   7.887 -1.2139 -2.1345  2.0963
 2810TIP3    H232626   2.203   2.679   7.919 -0.2840  1.0113 -0.2070
 2811TIP3   OH232627   5.783   2.661   7.214 -0.5718 -0.3952 -0.0142
 2811TIP3    H132628   5.710   2.613   7.252 -0.5031  0.4813  1.2811
 2811TIP3    H232629   5.743   2.739   7.175 -0.4194 -0.3332 -0.0486
 2812TIP3   OH232630   1.205   6.360   9.885  1.0964  0.3660  0.0402
 2812TIP3    H132631   1.243   6.329   9.803 -0.0068  0.5420 -0.5516
 2812TIP3    H232632   1.220   6.288   9.947  0.3133 -0.5476 -0.7966
 2813TIP3   OH232633   3.062   3.743   9.615 -0.2532  0.8185  0.1262
 2813TIP3    H132634   3.060   3.786   9.700  2.9737  2.0635 -0.3047
 2813TIP3    H232635   3.117   3.666   9.629 -1.4981 -0.2009 -0.3922
 2814TIP3   OH232636   6.121   3.176   8.235 -0.2893  0.1793  0.0482
 2814TIP3    H132637   6.100   3.092   8.193  0.9107 -1.1098  1.8940
 2814TIP3    H232638   6.208   3.163   8.273 -0.2819  2.1080  0.7834
 2815TIP3   OH232639   5.527   3.844   9.298 -0.6014 -0.6898 -0.4007
 2815TIP3    H132640   5.494   3.759   9.271 -0.5813 -1.3977  1.6301
 2815TIP3    H232641   5.473   3.868   9.374 -0.9931  1.3916 -1.2654
 2816TIP3   OH232642   3.352   2.620   7.572  0.3962  0.2071 -0.5054
 2816TIP3    H132643   3.410   2.581   7.506  0.2047  0.6370 -0.9324
 2816TIP3    H232644   3.288   2.670   7.521 -0.2980 -0.1949 -0.0298
 2817TIP3   OH232645   3.299   0.364   8.331  0.2499 -0.5926 -0.2445
 2817TIP3    H132646   3.377   0.417   8.346  0.0387 -0.1619 -0.6315
 2817TIP3    H232647   3.325   0.275   8.354  1.3960 -0.7567 -2.0302
 2818TIP3   OH232648   6.350   2.128   8.727 -0.0712  0.7558  0.8786
 2818TIP3    H132649   6.298   2.095   8.800 -0.2643  0.1326  0.4743
 2818TIP3    H232650   6.440   2.100   8.747 -0.1897  0.2191  0.6763
 2819TIP3   OH232651   6.026   3.956   8.313 -0.5466 -0.0049 -0.4312
 2819TIP3    H132652   5.979   3.968   8.395 -1.6281 -1.5032 -0.7877
 2819TIP3    H232653   6.103   3.903   8.337 -1.2771 -1.1209 -0.4758
 2820TIP3   OH232654   6.826   1.952   7.277  0.2084 -0.0091  0.1416
 2820TIP3    H132655   6.916   1.970   7.253  0.0741  2.7173  1.3471
 2820TIP3    H232656   6.774   2.004   7.216 -0.5607 -0.9922 -0.0761
 2821TIP3   OH232657   2.476   4.595   9.188 -0.3442 -0.2240 -0.0337
 2821TIP3    H132658   2.468   4.655   9.262 -2.4973  0.6216 -0.8855
 2821TIP3    H232659   2.504   4.512   9.228 -0.3917  0.4899  1.5637
 2822TIP3   OH232660   5.190   6.176   9.296  0.0728  0.1628 -0.6100
 2822TIP3    H132661   5.102   6.171   9.259 -0.2640  0.7379  0.0969
 2822TIP3    H232662   5.179   6.157   9.389  0.6942  0.2601 -0.5097
 2823TIP3   OH232663   4.146   7.168   8.625 -0.0771  0.6694  0.6006
 2823TIP3    H132664   4.079   7.186   8.559  0.9550  1.5378 -0.2501
 2823TIP3    H232665   4.174   7.254   8.655  1.2467  0.3534  0.3197
 2824TIP3   OH232666   1.400   1.459   9.192 -0.5024  0.2012 -0.1606
 2824TIP3    H132667   1.319   1.478   9.145 -0.1275 -1.2641 -1.5177
 2824TIP3    H232668   1.390   1.368   9.220 -0.1930  0.6683  1.5635
 2825TIP3   OH232669   0.955   6.947   7.717 -0.1473 -0.1640  0.3208
 2825TIP3    H132670   0.870   6.959   7.675 -0.1577  0.6104  0.5530
 2825TIP3    H232671   0.973   6.853   7.708 -0.0625  0.0037 -1.5418
 2826TIP3   OH232672   3.056   4.916   9.059 -0.3325  0.2290  0.1488
 2826TIP3    H132673   3.113   4.959   8.995  0.6599 -0.7672  0.3374
 2826TIP3    H232674   3.029   4.986   9.118  0.8543  0.6908  0.1629
 2827TIP3   OH232675   5.115   7.039   8.286  0.2766 -0.3239  0.0476
 2827TIP3    H132676   5.203   7.069   8.308  0.4490 -0.3937 -0.5140
 2827TIP3    H232677   5.120   6.943   8.292  0.4444 -0.3678 -0.6893
 2828TIP3   OH232678   4.645   2.609   8.102  0.8238  0.8389 -0.0452
 2828TIP3    H132679   4.714   2.644   8.158 -1.2078  0.5922  2.8266
 2828TIP3    H232680   4.580   2.678   8.097 -0.5575 -0.3384  0.7887
 2829TIP3   OH232681   3.440   3.353   9.647  0.1902 -0.6499  0.0543
 2829TIP3    H132682   3.485   3.345   9.563 -0.3668 -0.0103 -0.3054
 2829TIP3    H232683   3.415   3.263   9.669 -1.6203 -0.5959 -1.5492
 2830TIP3   OH232684   2.118   4.741   9.545 -0.0858 -0.1633  0.3814
 2830TIP3    H132685   2.143   4.799   9.617  0.1095 -0.3322  0.4509
 2830TIP3    H232686   2.051   4.684   9.582 -0.3827  0.1161  0.2697
 2831TIP3   OH232687   6.492   2.548   9.658  0.2531  0.4617  0.2596
 2831TIP3    H132688   6.463   2.496   9.733 -0.7675  1.9295  0.9418
 2831TIP3    H232689   6.414   2.597   9.631  1.0222  1.2029 -0.7213
 2832TIP3   OH232690   4.409   6.969   9.186  0.9084  0.1855  0.0486
 2832TIP3    H132691   4.445   6.991   9.272 -1.1396  0.2927  0.9345
 2832TIP3    H232692   4.480   6.989   9.125  1.9722  1.3576  1.5804
 2833TIP3   OH232693   4.555   2.744   8.719  0.4705 -0.3069 -0.1270
 2833TIP3    H132694   4.630   2.795   8.689 -0.6199  0.9856 -0.7409
 2833TIP3    H232695   4.489   2.809   8.741 -0.5452 -1.4262  0.2371
 2834TIP3   OH232696   0.715   3.462   7.198 -0.8637 -0.3118  0.2543
 2834TIP3    H132697   0.709   3.374   7.235 -1.0365  0.1596  1.3822
 2834TIP3    H232698   0.755   3.450   7.112 -1.5921 -1.5749  0.0740
 2835TIP3   OH232699   4.533   6.882   8.868  0.1432  0.1634  0.3189
 2835TIP3    H132700   4.598   6.827   8.825  1.0863  1.1211  0.4576
 2835TIP3    H232701   4.579   6.917   8.945 -0.9343 -0.1003  1.1099
 2836TIP3   OH232702   6.566   0.907   7.435 -0.3942  0.2500  0.2318
 2836TIP3    H132703   6.511   0.844   7.482  0.5536 -0.7198  0.0802
 2836TIP3    H232704   6.529   0.911   7.347 -0.0619 -0.6339  0.0402
 2837TIP3   OH232705   3.156   0.744   9.658 -0.7820 -0.3198  0.6558
 2837TIP3    H132706   3.193   0.828   9.630 -1.8076 -0.5462 -1.6213
 2837TIP3    H232707   3.150   0.751   9.753  0.7209  1.5166  0.6752
 2838TIP3   OH232708   2.023   1.443   8.949  0.3959  0.5437 -0.6108
 2838TIP3    H132709   2.088   1.378   8.923  0.4408  1.4846 -3.1812
 2838TIP3    H232710   2.027   1.445   9.045  2.4275 -1.1277 -0.5972
 2839TIP3   OH232711   1.646   3.832   9.349 -0.9512 -0.2133 -0.1303
 2839TIP3    H132712   1.604   3.908   9.388 -0.4505  0.1612 -0.3118
 2839TIP3    H232713   1.614   3.831   9.258 -1.2569 -0.4448 -0.0217
 2840TIP3   OH232714   3.913   2.269   9.428 -0.3403 -0.1920 -0.0410
 2840TIP3    H132715   3.871   2.318   9.358 -2.3453 -1.4760  0.1753
 2840TIP3    H232716   3.902   2.177   9.403 -1.7267 -0.7249  2.2106
 2841TIP3   OH232717   0.487   1.373   8.709  0.2491  0.3110 -0.6962
 2841TIP3    H132718   0.563   1.427   8.728  0.4178 -0.0858 -0.2430
 2841TIP3    H232719   0.522   1.297   8.663  0.1983 -0.1334 -0.0103
 2842TIP3   OH232720   6.015   1.427   9.293  0.0457  0.0860  0.2393
 2842TIP3    H132721   6.029   1.500   9.354  1.2550 -0.2931  0.4256
 2842TIP3    H232722   5.967   1.362   9.344  1.2246 -0.3139  0.8719
 2843TIP3   OH232723   5.503   7.486   8.425 -0.0441  0.1624 -0.0325
 2843TIP3    H132724   5.436   7.422   8.450 -0.1564  1.3181  3.0295
 2843TIP3    H232725   5.458   7.570   8.426  1.6524  1.2551  4.1576
 2844TIP3   OH232726   1.516   5.986   6.701 -0.1254  0.4023 -0.2203
 2844TIP3    H132727   1.437   5.991   6.755 -0.2622 -0.7469 -0.2808
 2844TIP3    H232728   1.486   5.944   6.620  0.6800 -0.7098  0.0442
 2845TIP3   OH232729   7.087   4.075   8.684  0.2350  0.3175  0.1231
 2845TIP3    H132730   7.017   4.011   8.697  0.0039  0.5111 -0.1683
 2845TIP3    H232731   7.046   4.146   8.635  0.5873  0.5189  0.1187
 2846TIP3   OH232732   4.103   5.192   9.340 -0.2530 -0.5408 -0.1128
 2846TIP3    H132733   4.165   5.122   9.321 -0.6730 -0.9607  0.0602
 2846TIP3    H232734   4.063   5.213   9.255  0.6117  0.2057 -0.3494
 2847TIP3   OH232735   1.070   5.607   9.215  0.0510  0.1102 -0.0469
 2847TIP3    H132736   1.099   5.676   9.156  0.0720  0.2901  0.1722
 2847TIP3    H232737   1.150   5.562   9.240  0.2014  0.8396  0.8513
 2848TIP3   OH232738   0.549   1.437   8.097  0.3239 -0.8074  0.5126
 2848TIP3    H132739   0.627   1.400   8.138  1.2143 -0.5266 -0.8553
 2848TIP3    H232740   0.508   1.362   8.053  0.8353 -0.6362 -0.2809
 2849TIP3   OH232741   0.983   4.718   7.423 -0.1126 -0.7034  0.1720
 2849TIP3    H132742   1.042   4.788   7.452  1.0636 -1.7733  0.4394
 2849TIP3    H232743   0.966   4.738   7.331  0.0381  0.0488  0.2986
 2850TIP3   OH232744   0.455   2.504   8.241  0.1609  0.0563 -0.0175
 2850TIP3    H132745   0.542   2.464   8.236  0.2786  0.4431 -1.6992
 2850TIP3    H232746   0.455   2.552   8.324  1.4415 -0.1848  0.1405
 2851TIP3   OH232747   1.325   1.147   9.743  0.1813 -0.7187  0.3815
 2851TIP3    H132748   1.253   1.184   9.795  0.7374 -1.1970  1.5221
 2851TIP3    H232749   1.369   1.224   9.706 -1.5159 -0.4364 -1.2416
 2852TIP3   OH232750   4.416   5.739   9.057 -0.0787 -0.1113 -0.2130
 2852TIP3    H132751   4.368   5.784   8.987  1.2934  0.0484 -1.0815
 2852TIP3    H232752   4.374   5.653   9.063 -0.2918 -0.0815 -1.1483
 2853TIP3   OH232753   6.583   6.256   9.837 -0.3580 -0.0321  0.3652
 2853TIP3    H132754   6.612   6.175   9.794 -0.2798  0.1940 -0.0200
 2853TIP3    H232755   6.663   6.293   9.875 -0.8032 -1.4753  2.8826
 2854TIP3   OH232756   0.563   5.454   8.434 -0.2304  0.8953  0.1668
 2854TIP3    H132757   0.513   5.375   8.414  2.3095 -0.3605 -1.8257
 2854TIP3    H232758   0.630   5.425   8.496 -0.3654  1.9491  0.8352
 2855TIP3   OH232759   4.753   6.691   7.201  0.7024  0.1969 -0.3498
 2855TIP3    H132760   4.843   6.708   7.175  0.7167  0.4255 -0.1607
 2855TIP3    H232761   4.718   6.634   7.133  1.0845 -0.1500 -0.2616
 2856TIP3   OH232762   6.026   2.591   9.579 -0.5638 -0.3381 -0.2686
 2856TIP3    H132763   6.080   2.511   9.583  1.0186  0.7239  1.3535
 2856TIP3    H232764   5.948   2.570   9.630 -0.6018 -1.1515 -0.6483
 2857TIP3   OH232765   1.165   0.155   8.568  0.2772  0.0533 -0.3127
 2857TIP3    H132766   1.111   0.151   8.647 -2.1941  0.0359 -1.8888
 2857TIP3    H232767   1.142   0.076   8.520  2.1867 -0.2315 -0.8094
 2858TIP3   OH232768   1.149   2.461   9.450 -0.3036  0.2191 -0.3745
 2858TIP3    H132769   1.185   2.536   9.497 -2.4870  0.4999  0.9870
 2858TIP3    H232770   1.225   2.420   9.409  1.4657  1.1027  1.7865
 2859TIP3   OH232771   3.608   6.504   7.625  0.2666 -0.2832  0.0861
 2859TIP3    H132772   3.533   6.535   7.676  1.3190 -0.0460  1.5477
 2859TIP3    H232773   3.607   6.557   7.545 -1.3205 -0.5484 -0.1101
 2860TIP3   OH232774   5.041   6.508   8.717 -0.2216 -0.2007 -0.0911
 2860TIP3    H132775   5.111   6.524   8.781 -1.4787 -0.6672  1.4743
 2860TIP3    H232776   4.970   6.470   8.769 -1.1450 -1.0111 -1.8759
 2861TIP3   OH232777   1.732   0.393   8.914  0.1707  0.2739  0.1101
 2861TIP3    H132778   1.684   0.470   8.944  1.6116  1.4026 -0.3449
 2861TIP3    H232779   1.680   0.358   8.842  0.1825  1.6805 -0.6134
 2862TIP3   OH232780   4.315   0.337   9.677  0.1846  0.2140  0.3561
 2862TIP3    H132781   4.261   0.271   9.635 -0.2105  0.1715  0.9269
 2862TIP3    H232782   4.282   0.343   9.766  1.5651 -0.3038  0.9292
 2863TIP3   OH232783   3.230   1.706   8.690 -0.5865  0.0779  0.0851
 2863TIP3    H132784   3.299   1.759   8.729 -0.6298  0.2000 -0.0048
 2863TIP3    H232785   3.253   1.616   8.713  1.3036 -0.1972 -2.5244
 2864TIP3   OH232786   1.261   1.116   8.698  0.2017 -0.2565  0.1673
 2864TIP3    H132787   1.191   1.167   8.738 -1.4342 -1.1922 -1.3587
 2864TIP3    H232788   1.294   1.172   8.628 -0.4759 -0.6163 -0.4539
 2865TIP3   OH232789   6.067   5.174   8.222 -0.5713  0.4106 -0.4211
 2865TIP3    H132790   6.102   5.248   8.272 -0.2663  2.1498 -3.0234
 2865TIP3    H232791   6.123   5.101   8.246 -0.6753  1.0512  1.9996
 2866TIP3   OH232792   0.453   4.360   8.135 -0.1763 -0.1676 -0.0429
 2866TIP3    H132793   0.511   4.422   8.092  2.3253 -1.7386  0.8641
 2866TIP3    H232794   0.391   4.414   8.183  1.7217  1.6487  0.4717
 2867TIP3   OH232795   2.243   6.898   8.562 -0.3760  0.4966  0.5902
 2867TIP3    H132796   2.167   6.952   8.538 -1.4604 -1.4773 -0.6903
 2867TIP3    H232797   2.210   6.808   8.561  1.5780 -0.2991  1.7514
 2868TIP3   OH232798   0.249   3.281   7.085 -0.3650 -0.4269 -0.2157
 2868TIP3    H132799   0.324   3.308   7.139 -0.4196 -1.2055  0.2603
 2868TIP3    H232800   0.174   3.285   7.146 -0.1981 -2.7989  0.2316
 2869TIP3   OH232801   0.060   0.933   8.129  0.4224  0.8164 -0.3425
 2869TIP3    H132802   0.046   1.019   8.088 -0.7866  0.3861 -0.8814
 2869TIP3    H232803  -0.018   0.920   8.183  0.9821  0.4056  0.3844
 2870TIP3   OH232804   4.109   7.363   7.797 -0.0313 -0.2701 -0.9134
 2870TIP3    H132805   4.069   7.448   7.783  0.0788  0.0534  0.5233
 2870TIP3    H232806   4.044   7.300   7.765 -1.3593  0.2771  0.5576
 2871TIP3   OH232807   6.450   1.248   8.294 -0.1468  0.4806 -0.0596
 2871TIP3    H132808   6.511   1.316   8.266  1.3580 -0.5597  0.5276
 2871TIP3    H232809   6.390   1.238   8.220  1.6169  0.1937 -1.5645
 2872TIP3   OH232810   1.434   4.061   9.405  0.7708 -0.3435  0.1679
 2872TIP3    H132811   1.377   4.137   9.396  1.5261  0.3285  0.8637
 2872TIP3    H232812   1.506   4.091   9.461  0.3987 -1.9259  1.6190
 2873TIP3   OH232813   5.026   4.683   9.004  1.1424 -0.6860 -0.5460
 2873TIP3    H132814   5.089   4.718   9.067  1.3073 -0.0547 -1.0461
 2873TIP3    H232815   5.043   4.589   9.003  2.0817 -0.5290 -0.6589
 2874TIP3   OH232816   5.448   2.868   7.997 -0.0251 -0.7250 -0.0321
 2874TIP3    H132817   5.406   2.946   8.031  0.0231 -0.0752 -1.4088
 2874TIP3    H232818   5.382   2.825   7.944  0.2403 -1.1234 -0.0513
 2875TIP3   OH232819   1.314   5.669   9.525  0.0397  0.1161 -0.4430
 2875TIP3    H132820   1.377   5.741   9.521  0.3330 -0.0475  0.7553
 2875TIP3    H232821   1.361   5.593   9.490  0.9026 -0.2404  1.3599
 2876TIP3   OH232822   0.315   5.674   6.634  0.3718 -0.3703  0.1221
 2876TIP3    H132823   0.317   5.770   6.628 -0.5309 -0.3662 -0.2956
 2876TIP3    H232824   0.222   5.653   6.643  0.5604 -1.2178  0.1430
 2877TIP3   OH232825   5.233   3.564   9.108 -0.3310 -0.7076  0.0587
 2877TIP3    H132826   5.312   3.577   9.159 -0.3460 -0.5018  0.0303
 2877TIP3    H232827   5.198   3.652   9.094  0.7794 -0.5406 -2.0615
 2878TIP3   OH232828   1.566   0.552   8.632  0.0227  0.4692  0.1619
 2878TIP3    H132829   1.533   0.582   8.717  2.0463  2.2882  0.3814
 2878TIP3    H232830   1.569   0.631   8.578  0.0221 -0.4272 -1.1902
 2879TIP3   OH232831   7.287   4.752   9.707  0.0296 -0.3237 -0.1045
 2879TIP3    H132832   7.255   4.715   9.790 -0.3500 -1.1792 -0.6253
 2879TIP3    H232833   7.353   4.691   9.676  0.4879  0.2225 -0.2269
 2880TIP3   OH232834   5.103   5.839   6.822  0.4414  0.1103 -0.5946
 2880TIP3    H132835   5.034   5.885   6.869  1.2416  1.3841 -0.6045
 2880TIP3    H232836   5.077   5.842   6.731 -0.1878 -0.6922 -0.4474
 2881TIP3   OH232837   0.706   7.416   9.019  0.1364  0.4202 -0.1327
 2881TIP3    H132838   0.743   7.401   8.932  1.4850  1.5033  0.2178
 2881TIP3    H232839   0.742   7.345   9.073 -1.0094 -0.4784 -0.5210
 2882TIP3   OH232840   4.382   5.542   7.475 -0.3783 -0.3216 -0.4679
 2882TIP3    H132841   4.401   5.546   7.569 -1.0785  2.1075 -0.3539
 2882TIP3    H232842   4.369   5.633   7.450 -0.5871 -0.9521 -2.8690
 2883TIP3   OH232843   1.897   6.704   9.229 -0.4551  0.1477 -0.0501
 2883TIP3    H132844   1.935   6.789   9.209 -1.8225  0.3090 -2.2575
 2883TIP3    H232845   1.803   6.719   9.232 -0.6708 -1.1419  0.3544
 2884TIP3   OH232846   3.375   3.097   9.599  0.2075 -0.2241 -0.5380
 2884TIP3    H132847   3.418   3.053   9.526 -1.5155 -1.9487 -0.5953
 2884TIP3    H232848   3.282   3.078   9.588 -0.3895  1.6045  0.7282
 2885TIP3   OH232849   4.938   0.305   8.993  0.1398  0.0434 -0.5122
 2885TIP3    H132850   4.895   0.378   8.949 -0.6815  0.7163  1.2678
 2885TIP3    H232851   4.929   0.231   8.933 -2.2044  0.5369 -0.8627
 2886TIP3   OH232852   6.754   5.840   9.370  0.0680  0.0228 -0.0763
 2886TIP3    H132853   6.672   5.877   9.337  0.8683  1.1512 -0.8778
 2886TIP3    H232854   6.760   5.873   9.460  0.9023  2.2012 -0.8623
 2887TIP3   OH232855   6.797   3.558   9.366  0.2217  0.0982 -0.1937
 2887TIP3    H132856   6.728   3.494   9.378  1.0635 -0.5404  1.4827
 2887TIP3    H232857   6.874   3.506   9.342  1.1204  0.3227  1.9673
 2888TIP3   OH232858   7.403   6.166   8.992  0.2060 -0.4068  0.0303
 2888TIP3    H132859   7.492   6.168   8.958  0.1253 -3.4083 -0.6456
 2888TIP3    H232860   7.410   6.117   9.074 -0.8013 -0.6270  0.0009
 2889TIP3   OH232861   0.403   1.263   7.200  0.5423 -0.1826  0.3969
 2889TIP3    H132862   0.311   1.250   7.175  1.0067 -2.3571 -0.4555
 2889TIP3    H232863   0.436   1.328   7.138 -0.0146 -0.6282 -0.3937
 2890TIP3   OH232864   4.784   1.275   7.477  0.3939 -0.0701  0.0972
 2890TIP3    H132865   4.767   1.229   7.559  3.7836  0.8769  1.5169
 2890TIP3    H232866   4.836   1.213   7.426 -0.0600  0.0689 -0.5518
 2891TIP3   OH232867   0.309   2.378   7.148 -0.1299 -0.8506 -0.0533
 2891TIP3    H132868   0.323   2.286   7.168 -0.6358 -0.8849  0.1559
 2891TIP3    H232869   0.385   2.403   7.096 -0.0579 -1.4188 -0.2275
 2892TIP3   OH232870   7.467   0.276   7.319 -0.0305  0.6382  0.1572
 2892TIP3    H132871   7.554   0.240   7.302  0.2037  0.4659  1.5633
 2892TIP3    H232872   7.407   0.208   7.290  0.3251  0.5086 -0.2814
 2893TIP3   OH232873   3.318   4.590   8.935  0.1640  0.3763 -0.2275
 2893TIP3    H132874   3.354   4.502   8.930  0.4012  0.5254 -2.8367
 2893TIP3    H232875   3.376   4.637   8.994  1.3170 -0.6869 -0.4834
 2894TIP3   OH232876   4.250   0.185   8.283 -0.3747 -0.2669 -0.1299
 2894TIP3    H132877   4.336   0.175   8.243  0.2512 -1.2186  1.3833
 2894TIP3    H232878   4.256   0.265   8.335 -0.2672 -0.5632  0.3139
 2895TIP3   OH232879   3.489   6.273   8.786  0.1831 -0.1805  0.0048
 2895TIP3    H132880   3.542   6.304   8.859 -1.7316  0.7966  1.0342
 2895TIP3    H232881   3.412   6.330   8.785 -0.9642 -1.6508 -1.3056
 2896TIP3   OH232882   3.464   2.636   8.813  0.3155  0.5828 -0.1460
 2896TIP3    H132883   3.476   2.731   8.805 -0.0424  0.7872  1.5370
 2896TIP3    H232884   3.374   2.626   8.843  0.3565 -0.3047 -0.3023
 2897TIP3   OH232885   3.335   4.260   7.952 -0.2657 -0.2215 -0.6634
 2897TIP3    H132886   3.412   4.204   7.943 -0.7147 -0.7645 -1.2286
 2897TIP3    H232887   3.264   4.200   7.973 -0.4885  0.3108  0.1457
 2898TIP3   OH232888   6.659   1.789   8.093 -0.5573  0.0194  0.0367
 2898TIP3    H132889   6.647   1.695   8.104 -2.4245  0.3076  0.8642
 2898TIP3    H232890   6.697   1.819   8.176  0.7888 -0.1075 -0.5257
 2899TIP3   OH232891   4.203   3.160   9.414  0.2482  0.2512  0.3077
 2899TIP3    H132892   4.133   3.145   9.478 -1.1690  0.0251 -1.2464
 2899TIP3    H232893   4.234   3.248   9.433  0.5543 -0.1638  1.9271
 2900TIP3   OH232894   3.238   6.927   9.702 -0.1816 -0.0433 -0.1565
 2900TIP3    H132895   3.243   6.980   9.622 -0.0796 -0.4485 -0.4243
 2900TIP3    H232896   3.324   6.886   9.709  0.3958  1.2854  1.0887
 2901TIP3   OH232897   2.310   0.595   8.541  0.1637 -0.3750  0.4356
 2901TIP3    H132898   2.377   0.660   8.557 -0.2098 -0.1342  1.0577
 2901TIP3    H232899   2.357   0.519   8.508  0.5160  0.4818 -1.1210
 2902TIP3   OH232900   3.941   5.417   7.762 -0.5295 -0.0693  0.0534
 2902TIP3    H132901   3.854   5.397   7.725 -0.8991  0.3122  0.7061
 2902TIP3    H232902   3.932   5.506   7.797  0.6515  0.6884 -1.4538
 2903TIP3   OH232903   3.526   2.475   7.401 -0.1020  0.0845 -0.6450
 2903TIP3    H132904   3.584   2.470   7.477 -0.1085 -1.1048 -0.6965
 2903TIP3    H232905   3.583   2.504   7.329  0.3705 -0.7535 -0.6228
 2904TIP3   OH232906   4.488   0.157   9.190  0.2374  0.0120  0.1352
 2904TIP3    H132907   4.570   0.156   9.239  0.5855 -0.0538 -0.4391
 2904TIP3    H232908   4.512   0.194   9.105 -0.2343 -0.4408 -0.1997
 2905TIP3   OH232909   2.649   1.438   7.038  0.0865  1.1950  0.2805
 2905TIP3    H132910   2.735   1.449   7.079  1.1184  0.1272 -1.4687
 2905TIP3    H232911   2.587   1.443   7.111  1.6497  1.5524  1.6497
 2906TIP3   OH232912   6.482   1.800   8.720 -0.1422 -0.3803 -0.9563
 2906TIP3    H132913   6.513   1.845   8.642 -0.6027 -0.7749 -1.3639
 2906TIP3    H232914   6.561   1.758   8.755 -0.1146 -0.9951 -1.7362
 2907TIP3   OH232915   6.553   5.171   7.818  0.1659 -0.3278 -0.1189
 2907TIP3    H132916   6.521   5.173   7.908 -1.5077  2.3873 -0.6482
 2907TIP3    H232917   6.531   5.083   7.787 -1.9117 -0.3918  1.2829
 2908TIP3   OH232918   7.214   2.818   8.258 -0.6156  0.3415  0.4465
 2908TIP3    H132919   7.293   2.786   8.301  0.1170 -0.1771 -1.1834
 2908TIP3    H232920   7.211   2.911   8.278  0.3516  0.3426  0.6172
 2909TIP3   OH232921   4.547   0.874   9.065  0.2340 -0.1641 -0.4713
 2909TIP3    H132922   4.475   0.860   9.127 -0.0604  0.9563 -0.5222
 2909TIP3    H232923   4.617   0.913   9.119  0.8646 -1.3638 -0.3974
 2910TIP3   OH232924   3.198   0.857   7.228  0.7270 -0.1937  0.1129
 2910TIP3    H132925   3.265   0.819   7.171 -0.2420  0.7844 -1.7905
 2910TIP3    H232926   3.160   0.783   7.273  1.9949 -0.9404  0.0045
 2911TIP3   OH232927   5.842   4.964   9.409 -0.0047  0.2742 -0.0941
 2911TIP3    H132928   5.839   4.911   9.489 -0.9743 -0.0514 -0.3347
 2911TIP3    H232929   5.792   5.043   9.430  0.2746  0.4743 -0.1779
 2912TIP3   OH232930   1.666   6.639   9.597  0.3894  0.3070  0.2577
 2912TIP3    H132931   1.597   6.596   9.547  0.0896 -0.5675  1.3856
 2912TIP3    H232932   1.625   6.718   9.632 -0.0490 -0.1846  0.8839
 2913TIP3   OH232933   4.698   2.114   7.765  0.8346  0.3979  0.4061
 2913TIP3    H132934   4.759   2.042   7.748  0.1914 -0.4442  1.5475
 2913TIP3    H232935   4.708   2.172   7.690  0.9768 -1.1490 -0.8129
 2914TIP3   OH232936   2.478   1.941   9.445 -0.3566 -0.4656  0.0317
 2914TIP3    H132937   2.390   1.954   9.409  0.2105  3.2962 -0.4316
 2914TIP3    H232938   2.466   1.950   9.540 -0.7127 -2.1192  0.1670
 2915TIP3   OH232939   0.696   4.526   9.337 -0.5711 -0.2886 -0.4076
 2915TIP3    H132940   0.760   4.483   9.280  0.5591 -0.0593  0.6401
 2915TIP3    H232941   0.636   4.570   9.277  0.8216  0.3024 -1.4214
 2916TIP3   OH232942   3.813   2.698   9.226  0.6001 -0.3006  0.0424
 2916TIP3    H132943   3.777   2.720   9.140  1.0719  0.2368 -0.0238
 2916TIP3    H232944   3.884   2.761   9.239 -1.1113  1.3823  1.9607
 2917TIP3   OH232945   5.181   4.438   8.567  0.0761 -0.3155 -0.2447
 2917TIP3    H132946   5.133   4.511   8.607 -0.2329 -1.0943  0.8644
 2917TIP3    H232947   5.118   4.400   8.506  0.4708  0.7433 -1.3438
 2918TIP3   OH232948   0.908   3.854   9.427  0.8933  0.4811 -0.6291
 2918TIP3    H132949   0.853   3.910   9.372  2.1998  0.4063 -2.0736
 2918TIP3    H232950   0.981   3.909   9.452  1.0883  0.0526 -0.2508
 2919TIP3   OH232951   1.146   3.655   7.594  0.1668  0.1780  0.1384
 2919TIP3    H132952   1.065   3.633   7.547 -0.5250 -1.2302  1.8959
 2919TIP3    H232953   1.127   3.636   7.685  2.7405 -0.9391  0.5300
 2920TIP3   OH232954   0.432   6.266   8.359  0.2276 -0.7223 -0.4077
 2920TIP3    H132955   0.344   6.228   8.353 -0.7293  1.5086 -1.9252
 2920TIP3    H232956   0.468   6.259   8.271 -0.1032  1.9371 -0.8395
 2921TIP3   OH232957   1.057   5.666   9.753  0.2082 -0.3280  0.6736
 2921TIP3    H132958   1.019   5.584   9.785  0.6423 -0.8591 -0.1410
 2921TIP3    H232959   1.137   5.640   9.708 -0.6279  0.3198 -1.2729
 2922TIP3   OH232960   6.874   4.496   8.333  0.7800 -0.4025  0.2006
 2922TIP3    H132961   6.889   4.544   8.414 -3.0210  0.3803  0.6443
 2922TIP3    H232962   6.821   4.420   8.359  0.9802 -1.1167 -1.3254
 2923TIP3   OH232963   6.813   0.936   9.160 -0.4712  0.4366  0.1067
 2923TIP3    H132964   6.835   1.017   9.206  1.2220 -0.1598  0.4271
 2923TIP3    H232965   6.894   0.885   9.161 -1.3145 -0.9913 -0.6622
 2924TIP3   OH232966   0.583   7.108   9.445 -0.3477  0.5965  0.4845
 2924TIP3    H132967   0.502   7.149   9.413 -1.0554  1.1603  2.7944
 2924TIP3    H232968   0.566   7.014   9.438 -0.7395  0.7045 -0.1293
 2925TIP3   OH232969   5.023   2.151   8.122  0.1314 -0.8591  0.4729
 2925TIP3    H132970   5.114   2.138   8.146  0.5191 -1.2476 -1.0850
 2925TIP3    H232971   4.991   2.218   8.182  1.0551 -1.6461  1.8929
 2926TIP3   OH232972   6.955   3.139   8.339 -0.3609  0.3226 -0.5475
 2926TIP3    H132973   6.957   3.170   8.249  1.0701  3.2746  0.3617
 2926TIP3    H232974   6.888   3.192   8.382 -0.5266 -0.5420  0.2999
 2927TIP3   OH232975   6.917   0.607   7.472 -0.1073  0.3033 -0.1048
 2927TIP3    H132976   6.872   0.691   7.461  0.3179  0.7809  1.4780
 2927TIP3    H232977   6.855   0.552   7.519  0.3451  0.4226  0.6475
 2928TIP3   OH232978   5.340   2.031   9.143  0.4288 -0.5279  0.1393
 2928TIP3    H132979   5.390   2.104   9.178 -0.0591 -0.8997  1.6784
 2928TIP3    H232980   5.305   2.064   9.060  0.0082  1.0789  0.9195
 2929TIP3   OH232981   2.763   1.860   9.171 -0.8121  0.2693 -0.6721
 2929TIP3    H132982   2.729   1.793   9.229  1.1853  0.4249  0.7908
 2929TIP3    H232983   2.804   1.925   9.229  0.2884  1.0106 -2.1758
 2930TIP3   OH232984   3.831   0.442   8.782 -0.3179  0.3063 -0.0496
 2930TIP3    H132985   3.772   0.508   8.745 -0.4736  1.1250  1.5717
 2930TIP3    H232986   3.785   0.408   8.858  0.9789  0.4535  0.8475
 2931TIP3   OH232987   2.231   1.182   9.001 -0.1184 -0.7464  0.0215
 2931TIP3    H132988   2.260   1.132   9.077  0.2649  1.1891  1.2109
 2931TIP3    H232989   2.311   1.206   8.955 -0.1775  0.1305  0.3638
 2932TIP3   OH232990   0.052   4.811   8.943  0.2075  0.1966  0.1082
 2932TIP3    H132991   0.009   4.728   8.964  1.8224 -0.6073  0.3816
 2932TIP3    H232992   0.011   4.875   9.001  2.0251 -1.2768  3.2565
 2933TIP3   OH232993   6.062   0.455   9.019 -0.2178  0.8143  0.4022
 2933TIP3    H132994   6.059   0.538   9.067 -1.9483  1.0056  0.0367
 2933TIP3    H232995   6.009   0.471   8.941 -2.4626 -1.2542  1.4119
 2934TIP3   OH232996   4.074   1.786   9.224  0.5101 -0.1965  0.3871
 2934TIP3    H132997   4.141   1.741   9.173 -0.3765 -0.4441 -0.5726
 2934TIP3    H232998   4.034   1.718   9.277 -0.5700 -0.5025 -0.7825
 2935TIP3   OH232999   2.321   6.555   7.622 -0.4236 -0.6413 -0.7701
 2935TIP3    H133000   2.416   6.549   7.632 -0.6108 -5.0509  0.4717
 2935TIP3    H233001   2.308   6.594   7.536  2.2809  2.8380  0.1141
 2936TIP3   OH233002   4.509   3.155   8.658 -0.1526 -0.4558 -0.7756
 2936TIP3    H133003   4.454   3.167   8.735  0.9399 -1.1117  0.1401
 2936TIP3    H233004   4.593   3.195   8.682  0.3087 -0.9520 -1.5080
 2937TIP3   OH233005   0.089   1.882   8.495  0.5449 -0.0896  0.1409
 2937TIP3    H133006   0.030   1.845   8.560 -0.1137  2.0363  0.8267
 2937TIP3    H233007   0.133   1.806   8.456 -0.9282 -1.5683  1.2424
 2938TIP3   OH233008   0.233   1.471   8.590 -0.4816  0.7247  0.2106
 2938TIP3    H133009   0.305   1.455   8.652  1.4073  0.1405 -1.9986
 2938TIP3    H233010   0.181   1.391   8.593 -2.4108  1.8803  3.3117
 2939TIP3   OH233011   7.306   4.375   8.982  0.5968 -0.2209 -0.0919
 2939TIP3    H133012   7.275   4.313   9.047  0.0397  0.1117 -0.0381
 2939TIP3    H233013   7.327   4.320   8.906 -1.9697 -0.3027 -0.8396
 2940TIP3   OH233014   4.479   2.531   8.881 -0.0562  0.4156 -0.4297
 2940TIP3    H133015   4.524   2.590   8.820 -0.0037 -0.2869 -1.0781
 2940TIP3    H233016   4.424   2.477   8.825  0.9702 -1.1341  0.0111
 2941TIP3   OH233017   6.133   3.114   6.757  0.7391  0.0376 -0.5061
 2941TIP3    H133018   6.226   3.137   6.763  0.7211  0.0315 -0.1163
 2941TIP3    H233019   6.104   3.147   6.672  0.5327  2.1884  0.3400
 2942TIP3   OH233020   2.989   2.062   7.627  0.2912  0.3252 -0.0830
 2942TIP3    H133021   3.030   2.112   7.556 -0.8284  0.5732 -0.5719
 2942TIP3    H233022   2.994   1.971   7.599 -0.1056  0.4189 -0.4560
 2943TIP3   OH233023   1.622   0.810   9.102 -0.0669  0.0176 -0.2191
 2943TIP3    H133024   1.542   0.826   9.151  0.2821  0.5507  0.1866
 2943TIP3    H233025   1.681   0.881   9.127  0.9165 -0.9541  0.3196
 2944TIP3   OH233026   3.854   4.855   7.056 -0.3349 -0.0737  0.7573
 2944TIP3    H133027   3.826   4.905   7.133  1.4121  3.7474 -0.8511
 2944TIP3    H233028   3.782   4.865   6.994 -0.7596 -1.2532  1.0171
 2945TIP3   OH233029   0.070   1.473   7.668  0.1462  0.3419 -0.0537
 2945TIP3    H133030   0.066   1.485   7.573 -0.8750  1.7242  0.1286
 2945TIP3    H233031   0.044   1.558   7.704 -0.0927 -0.3381  1.4660
 2946TIP3   OH233032   0.485   3.717   8.145 -0.0824 -0.4590 -0.3357
 2946TIP3    H133033   0.489   3.644   8.083  0.3415 -1.1701  0.5094
 2946TIP3    H233034   0.412   3.695   8.203 -1.3113  0.8312 -1.3265
 2947TIP3   OH233035   6.795   0.370   7.872  0.1239  0.2391 -0.2345
 2947TIP3    H133036   6.872   0.423   7.853  1.1019 -1.1444 -0.2623
 2947TIP3    H233037   6.752   0.359   7.787 -0.8901  2.1085 -0.0253
 2948TIP3   OH233038   6.678   1.551   8.709 -0.0565  0.3956 -0.3447
 2948TIP3    H133039   6.646   1.479   8.654 -1.3618  1.1978 -0.6920
 2948TIP3    H233040   6.754   1.586   8.662 -0.7047  0.5881 -1.2759
 2949TIP3   OH233041   5.865   2.478   8.302 -0.1945  0.2045 -0.4004
 2949TIP3    H133042   5.894   2.470   8.211  1.7217 -1.0143  0.2739
 2949TIP3    H233043   5.923   2.421   8.352 -2.6423 -0.9985  1.3274
 2950TIP3   OH233044   2.301   2.448   7.283  0.0688 -0.6407 -0.1985
 2950TIP3    H133045   2.214   2.413   7.302 -0.2812  0.5817  0.5529
 2950TIP3    H233046   2.306   2.529   7.334  1.8177 -0.9113  0.1068
 2951TIP3   OH233047   0.983   2.922   8.827 -0.0149  0.2733  0.1754
 2951TIP3    H133048   0.962   2.978   8.752 -0.3951 -0.2649 -0.1258
 2951TIP3    H233049   1.069   2.885   8.805  0.1243  0.5410  0.2619
 2952TIP3   OH233050   0.108   5.036   7.847 -0.0664 -0.3949 -0.4020
 2952TIP3    H133051   0.052   4.959   7.838 -0.4977 -0.2619  0.9451
 2952TIP3    H233052   0.197   5.002   7.849 -0.1894 -0.7522 -0.8323
 2953TIP3   OH233053   1.851   0.556   7.443  0.0194 -0.0449 -0.0195
 2953TIP3    H133054   1.923   0.614   7.418 -0.3986  0.3342 -0.3833
 2953TIP3    H233055   1.790   0.613   7.491 -0.6185 -0.0558 -0.7809
 2954TIP3   OH233056   2.084   6.895   7.226  0.6711  0.2485  0.1125
 2954TIP3    H133057   2.133   6.845   7.162  0.1361  0.2687 -0.3156
 2954TIP3    H233058   2.071   6.835   7.300 -0.0189 -0.2736 -0.4186
 2955TIP3   OH233059   0.127   4.698   7.936 -0.2512  0.3092  0.0704
 2955TIP3    H133060   0.113   4.677   7.844  2.9811  0.3937 -0.5669
 2955TIP3    H233061   0.091   4.623   7.984  1.0518 -1.4357 -1.5168
 2956TIP3   OH233062   6.473   2.934   8.559  0.3150 -0.3246 -0.4227
 2956TIP3    H133063   6.384   2.959   8.534  0.1272 -1.2340 -0.7032
 2956TIP3    H233064   6.461   2.876   8.634  0.7074 -0.0262 -0.1278
 2957TIP3   OH233065   2.936   1.316   8.507  0.2576  0.3357 -0.0050
 2957TIP3    H133066   2.844   1.335   8.520  0.5061  0.8502  1.0643
 2957TIP3    H233067   2.943   1.293   8.414 -0.9705  0.0780 -0.0418
 2958TIP3   OH233068   4.186   0.364   9.277 -0.4732  0.2777  0.2566
 2958TIP3    H133069   4.190   0.289   9.217  2.2208  0.7484 -0.2735
 2958TIP3    H233070   4.121   0.422   9.237 -1.4702 -1.0707 -0.1579
 2959TIP3   OH233071   1.529   1.558   8.774 -0.2589  0.1630 -0.1256
 2959TIP3    H133072   1.557   1.627   8.834  0.8220  0.4640 -0.9412
 2959TIP3    H233073   1.465   1.601   8.717 -0.4465  0.1795  0.0986
 2960TIP3   OH233074   1.487   7.229   6.851 -0.2110 -0.2117  0.2861
 2960TIP3    H133075   1.535   7.157   6.892 -3.3494 -1.6307  1.7958
 2960TIP3    H233076   1.413   7.188   6.807 -0.8082  1.9407 -0.8956
 2961TIP3   OH233077   7.322   4.860   7.243 -0.3043 -0.1452  0.3600
 2961TIP3    H133078   7.304   4.954   7.254 -2.9495 -0.7341  2.1473
 2961TIP3    H233079   7.301   4.842   7.152 -3.7162  0.3796  0.9091
 2962TIP3   OH233080   6.978   4.665   9.831  0.4716  0.2228 -0.8215
 2962TIP3    H133081   6.966   4.735   9.768 -1.0066 -1.4870 -2.5701
 2962TIP3    H233082   7.039   4.604   9.788  3.5650  1.3441  1.5670
 2963TIP3   OH233083   1.195   6.383   9.131  0.4575 -0.0326  0.5909
 2963TIP3    H133084   1.285   6.369   9.101  0.5375 -0.3041  0.9569
 2963TIP3    H233085   1.140   6.353   9.058  0.6369 -1.4352  0.9960
 2964TIP3   OH233086   3.181   4.068   9.921 -0.4673  0.2794  0.5728
 2964TIP3    H133087   3.164   4.108   9.836  1.5511 -0.5284 -0.2829
 2964TIP3    H233088   3.187   4.141   9.982 -1.1697  0.9212 -0.1121
 2965TIP3   OH233089   2.923   6.714   7.843 -0.4058  0.1710 -0.2268
 2965TIP3    H133090   2.835   6.751   7.844 -0.2172  0.6489  1.2890
 2965TIP3    H233091   2.911   6.622   7.867 -0.3724  0.6717  1.9639
 2966TIP3   OH233092   0.942   2.904   7.874  0.3068 -0.0845 -0.1657
 2966TIP3    H133093   0.944   2.992   7.911 -1.2024  0.1496 -0.5887
 2966TIP3    H233094   0.871   2.906   7.811 -1.8136 -2.4019  1.9245
 2967TIP3   OH233095   3.235   5.028   8.175  0.1677 -0.2357  0.2755
 2967TIP3    H133096   3.295   5.097   8.145 -1.2908  0.8249 -0.3733
 2967TIP3    H233097   3.151   5.051   8.134 -0.6423 -1.7577  1.0079
 2968TIP3   OH233098   4.013   1.033   7.621 -0.0991  0.0977  0.0024
 2968TIP3    H133099   3.982   0.949   7.589  0.5420  0.1368 -0.7612
 2968TIP3    H233100   4.014   1.089   7.543 -1.1399  1.0049  0.6241
 2969TIP3   OH233101   6.135   6.734   8.909 -0.5129 -0.1141  0.4448
 2969TIP3    H133102   6.179   6.771   8.985 -2.4536  1.4376  0.8986
 2969TIP3    H233103   6.075   6.668   8.946 -1.8277  0.9960  0.3714
 2970TIP3   OH233104   5.657   2.844   7.044 -0.1230 -0.0882  0.3438
 2970TIP3    H133105   5.569   2.820   7.074 -1.3058  1.3904 -1.6743
 2970TIP3    H233106   5.677   2.779   6.976 -0.0676  0.1180  0.1614
 2971TIP3   OH233107   6.455   4.450   9.343  0.2622 -0.1841  0.1911
 2971TIP3    H133108   6.500   4.491   9.270  0.6033 -1.3369 -0.2791
 2971TIP3    H233109   6.362   4.462   9.323  0.3540 -0.3173 -0.3421
 2972TIP3   OH233110   0.498   5.301   7.109  0.2543 -0.1304 -0.3396
 2972TIP3    H133111   0.448   5.340   7.038  2.3072  3.2687 -0.1152
 2972TIP3    H233112   0.560   5.242   7.065 -0.6612 -0.6038 -1.0275
 2973TIP3   OH233113   3.172   4.102   8.902 -0.4004 -0.1579 -0.1902
 2973TIP3    H133114   3.256   4.085   8.861  0.2510  2.7999 -0.3011
 2973TIP3    H233115   3.110   4.109   8.829 -0.4113 -0.6214 -0.2282
 2974TIP3   OH233116   6.433   0.441   7.090  1.0447  0.6298 -0.0201
 2974TIP3    H133117   6.497   0.507   7.116  1.5572 -0.2898  1.1420
 2974TIP3    H233118   6.399   0.406   7.172 -0.7459  0.8722 -0.6168
 2975TIP3   OH233119   3.299   3.879   7.962  0.7341  0.3359 -0.0459
 2975TIP3    H133120   3.205   3.878   7.975  0.4942  1.9530 -1.3074
 2975TIP3    H233121   3.317   3.804   7.905  0.4010 -0.6397  1.0966
 2976TIP3   OH233122   5.608   7.099   7.000 -0.0523 -0.1261  0.4904
 2976TIP3    H133123   5.546   7.171   7.006 -0.2034 -0.2196  0.1167
 2976TIP3    H233124   5.656   7.116   6.919  0.6024  0.0923  0.9159
 2977TIP3   OH233125   7.275   3.942   9.234  0.1267 -0.2745 -0.0011
 2977TIP3    H133126   7.210   3.938   9.164  0.4847  0.6705 -0.4050
 2977TIP3    H233127   7.235   3.894   9.307 -0.2480 -1.2780 -0.8421
 2978TIP3   OH233128   1.269   6.166   8.030  0.1505  0.2340  0.1085
 2978TIP3    H133129   1.270   6.071   8.028  1.6143  0.2271 -0.6191
 2978TIP3    H233130   1.177   6.190   8.037 -0.3934 -1.2115 -1.6040
 2979TIP3   OH233131   4.838   2.841   7.558  0.3519 -0.5700  0.0819
 2979TIP3    H133132   4.813   2.761   7.512  0.6361 -0.1564 -0.8243
 2979TIP3    H233133   4.828   2.911   7.492 -2.5559  0.5837  1.5765
 2980TIP3   OH233134   0.279   2.999   7.118  0.2865 -0.1325 -0.3350
 2980TIP3    H133135   0.276   3.092   7.142  2.3622 -0.6816  2.6762
 2980TIP3    H233136   0.355   2.992   7.060  2.9983 -0.3761  2.9076
 2981TIP3   OH233137   0.413   3.930   8.428  0.3642  0.1315 -0.0712
 2981TIP3    H133138   0.406   4.001   8.364 -1.2322  0.5635  0.5486
 2981TIP3    H233139   0.500   3.893   8.412  0.8889  1.6503 -0.9993
 2982TIP3   OH233140   5.416   6.788   9.441  0.0878 -0.4285  0.0180
 2982TIP3    H133141   5.369   6.860   9.483 -0.6699 -1.7131  1.4506
 2982TIP3    H233142   5.505   6.794   9.476  0.0186 -0.1995  0.1557
 2983TIP3   OH233143   5.887   3.865   7.068  0.2746  0.1943 -0.0791
 2983TIP3    H133144   5.976   3.842   7.041  0.0781 -1.6215  0.6927
 2983TIP3    H233145   5.835   3.786   7.052 -0.4435 -0.0067  2.7849
 2984TIP3   OH233146   3.922   1.663   6.875  0.3969 -0.2438 -0.0858
 2984TIP3    H133147   3.869   1.583   6.868 -1.0441  0.8076 -2.3435
 2984TIP3    H233148   3.905   1.694   6.964 -0.7372 -1.3133  0.1041
 2985TIP3   OH233149   6.692   6.030   8.770 -0.2449  0.2873 -0.0165
 2985TIP3    H133150   6.689   6.037   8.865  1.1935  1.4122 -0.0195
 2985TIP3    H233151   6.785   6.024   8.749 -0.5851 -3.2650 -1.1977
 2986TIP3   OH233152   5.523   1.075   9.381 -0.5208 -0.0165  0.1862
 2986TIP3    H133153   5.447   1.017   9.374 -0.6316  0.3027 -1.9648
 2986TIP3    H233154   5.595   1.024   9.344  0.2646 -0.1469  1.8047
 2987TIP3   OH233155   4.849   4.227   8.532  0.6594  0.2412 -0.2800
 2987TIP3    H133156   4.882   4.166   8.598 -0.7793 -0.3557 -0.0826
 2987TIP3    H233157   4.868   4.314   8.568 -0.2605 -0.0725  1.0201
 2988TIP3   OH233158   2.557   5.101   6.714 -0.6460  0.2033  0.2193
 2988TIP3    H133159   2.604   5.020   6.736  0.4479  0.4935 -0.9219
 2988TIP3    H233160   2.605   5.137   6.639 -1.8333  1.2970 -0.0520
 2989TIP3   OH233161   3.346   2.305   8.819  0.0847  0.3373  0.4350
 2989TIP3    H133162   3.287   2.375   8.790  0.2064  0.1264 -0.3384
 2989TIP3    H233163   3.417   2.306   8.756  0.1239 -0.4459  0.4593
 2990TIP3   OH233164   6.054   7.154   6.740 -0.3387 -0.3192 -0.5399
 2990TIP3    H133165   6.049   7.246   6.715  1.1058 -0.3052 -0.8361
 2990TIP3    H233166   6.123   7.117   6.685 -0.3328 -1.3875  0.1410
 2991TIP3   OH233167   7.083   1.620   7.403 -0.4321 -0.1032 -0.3666
 2991TIP3    H133168   6.994   1.597   7.432  0.1636 -1.8658  0.1960
 2991TIP3    H233169   7.130   1.639   7.484 -0.3959  1.3164 -0.7021
 2992TIP3   OH233170   0.469   6.247   8.084  0.1988 -0.1943  0.0903
 2992TIP3    H133171   0.488   6.339   8.066 -0.1403  0.1039  1.1387
 2992TIP3    H233172   0.543   6.200   8.047  1.8125  0.7450  1.8920
 2993TIP3   OH233173   4.701   1.065   9.770  0.6788  0.5110  0.2844
 2993TIP3    H133174   4.703   0.990   9.711 -0.3877  1.0472 -0.4612
 2993TIP3    H233175   4.690   1.026   9.857 -0.5970 -0.1823 -0.1653
 2994TIP3   OH233176   2.075   5.226   8.758  0.7575 -0.3936 -0.5642
 2994TIP3    H133177   2.152   5.254   8.708  0.6116  0.1426 -0.5021
 2994TIP3    H233178   2.003   5.278   8.721  0.8875  1.1186  1.1418
 2995TIP3   OH233179   0.014   1.347   9.357  0.4082 -0.2801 -0.1357
 2995TIP3    H133180   0.080   1.285   9.325  0.4179 -0.0689 -0.5317
 2995TIP3    H233181  -0.067   1.296   9.359  0.3623 -0.2370 -0.7184
 2996TIP3   OH233182   7.277   2.752   8.681 -0.0097  0.6097 -0.1479
 2996TIP3    H133183   7.293   2.845   8.668 -0.0015  0.5650 -0.4682
 2996TIP3    H233184   7.182   2.743   8.681 -0.0060  0.5579 -0.5625
 2997TIP3   OH233185   5.304   4.567   9.380 -0.5100  0.2767  0.1814
 2997TIP3    H133186   5.225   4.602   9.422 -0.5316 -0.0341  0.4061
 2997TIP3    H233187   5.333   4.498   9.439  1.3637  2.0207  1.4306
 2998TIP3   OH233188   2.161   2.756   8.938  0.2965  0.5688 -0.1498
 2998TIP3    H133189   2.182   2.718   9.023 -0.7370  1.3561  0.4927
 2998TIP3    H233190   2.207   2.702   8.874  1.5549  0.3105  0.9475
 2999TIP3   OH233191   2.804   3.381   7.296  0.1957  0.0355 -0.0878
 2999TIP3    H133192   2.866   3.308   7.291 -0.9596 -0.8992 -1.6001
 2999TIP3    H233193   2.733   3.357   7.237 -1.1759  1.5127  0.8624
 3000TIP3   OH233194   2.120   2.107   8.986 -0.3087 -0.3439  0.5067
 3000TIP3    H133195   2.157   2.056   8.914 -0.6444 -0.4081  0.3745
 3000TIP3    H233196   2.132   2.198   8.960  0.8471 -0.3281  1.0249
 3001TIP3   OH233197   2.965   4.880   7.872 -0.3276 -0.5403  0.1484
 3001TIP3    H133198   2.911   4.855   7.946  0.7389 -0.8049  0.8646
 3001TIP3    H233199   2.958   4.807   7.811 -1.8746  0.0404 -0.4224
 3002TIP3   OH233200   5.442   6.668   9.077 -0.1979 -0.2414  0.0463
 3002TIP3    H133201   5.450   6.744   9.019 -0.4180 -0.1438  0.1422
 3002TIP3    H233202   5.367   6.688   9.133 -0.2034 -0.4907  0.1316
 3003TIP3   OH233203   1.861   2.961  10.016  0.1153  0.1690 -0.2366
 3003TIP3    H133204   1.902   2.905   9.949  0.9787  1.2973 -0.6894
 3003TIP3    H233205   1.863   2.908  10.096  0.5327 -0.6073 -0.7441
 3004TIP3   OH233206   2.578   1.082   8.755 -0.3431 -0.1995 -0.1061
 3004TIP3    H133207   2.531   1.090   8.673 -1.2144 -0.9894  0.2998
 3004TIP3    H233208   2.667   1.055   8.729 -0.6816 -0.7010 -0.7757
 3005TIP3   OH233209   0.563   7.482   7.499 -0.2302  0.3143  0.4194
 3005TIP3    H133210   0.507   7.548   7.539 -1.1748 -0.4514  0.3873
 3005TIP3    H233211   0.508   7.404   7.493  0.5682 -0.2017 -0.4143
 3006TIP3   OH233212   2.186   7.083   7.529 -0.1282 -0.9203 -0.3964
 3006TIP3    H133213   2.098   7.063   7.496 -0.4857  1.4066 -1.0498
 3006TIP3    H233214   2.234   7.112   7.452  0.7564 -0.7674  0.2008
 3007TIP3   OH233215   3.622   5.039   8.579  0.3940 -0.5219  0.4993
 3007TIP3    H133216   3.711   5.055   8.609  1.4306  2.4422 -3.4845
 3007TIP3    H233217   3.629   4.962   8.522  0.9480  0.8138 -1.3363
 3008TIP3   OH233218   1.757   7.339   9.458 -0.7540  0.2443  0.4930
 3008TIP3    H133219   1.696   7.408   9.433  0.1820  1.3715  1.2130
 3008TIP3    H233220   1.840   7.363   9.415 -0.4076 -0.4027  0.7864
 3009TIP3   OH233221   0.918   3.070   8.142 -0.3006 -0.0448  0.5360
 3009TIP3    H133222   0.854   3.130   8.106  0.1837 -0.6234 -1.4151
 3009TIP3    H233223   0.866   3.002   8.185 -0.8610  1.2298  1.9786
 3010TIP3   OH233224   5.132   1.376   7.741  0.5010 -0.5612  0.0015
 3010TIP3    H133225   5.213   1.382   7.691 -0.1543  0.4755 -0.9837
 3010TIP3    H233226   5.101   1.286   7.727 -0.2146 -0.0041 -2.4052
 3011TIP3   OH233227   7.073   3.871   7.958  0.0747  0.2002 -0.0167
 3011TIP3    H133228   7.010   3.914   7.900 -0.0225  0.4687  0.2843
 3011TIP3    H233229   7.125   3.943   7.995  1.3030 -0.0840 -1.1083
 3012TIP3   OH233230   1.534   6.891   8.262 -0.3738 -0.6971  0.2508
 3012TIP3    H133231   1.560   6.911   8.172  1.3218 -1.2907  0.5893
 3012TIP3    H233232   1.594   6.942   8.316 -0.5527 -1.3307  1.0610
 3013TIP3   OH233233   1.723   5.172   9.826 -0.1662  0.0812  0.3876
 3013TIP3    H133234   1.755   5.261   9.841 -0.0448  0.0174  0.5154
 3013TIP3    H233235   1.781   5.117   9.879 -1.0421  0.0492  1.3513
 3014TIP3   OH233236   4.794   2.843   8.178 -0.1417  0.3791  0.0651
 3014TIP3    H133237   4.766   2.888   8.257  2.6400  1.1101  0.7463
 3014TIP3    H233238   4.719   2.848   8.119 -1.4175  2.0527  1.7192
 3015TIP3   OH233239   7.023   2.720   7.023  0.2672  0.0314  0.1535
 3015TIP3    H133240   7.055   2.658   6.957 -0.5742 -2.3572  1.8254
 3015TIP3    H233241   7.011   2.802   6.975  2.8815 -0.6178 -1.8625
 3016TIP3   OH233242   2.985   3.303   8.266 -0.0725  0.8857  0.1296
 3016TIP3    H133243   3.020   3.374   8.213 -1.1481  0.9404 -0.5321
 3016TIP3    H233244   2.896   3.290   8.234  1.1308 -3.1181 -2.3042
 3017TIP3   OH233245   7.244   5.167   8.407 -0.2145  0.4938 -0.0502
 3017TIP3    H133246   7.178   5.206   8.350  0.5045  1.5656 -0.1852
 3017TIP3    H233247   7.200   5.093   8.449 -1.1254  0.4638 -1.0379
 3018TIP3   OH233248   2.631   2.326   7.608  0.1425  0.3308  0.4526
 3018TIP3    H133249   2.556   2.309   7.665 -0.6472  3.1904  0.4031
 3018TIP3    H233250   2.612   2.277   7.528 -0.6261 -0.6582  1.2177
 3019TIP3   OH233251   4.270   2.033   7.404 -0.4941 -0.3577 -0.8149
 3019TIP3    H133252   4.180   2.015   7.377 -1.4467 -0.9203  2.3233
 3019TIP3    H233253   4.282   2.126   7.386 -2.0244 -0.0680 -0.4810
 3020TIP3   OH233254   6.346   2.756   9.296  0.4667 -0.1528  0.0509
 3020TIP3    H133255   6.360   2.782   9.387  0.3239 -2.3398  0.7651
 3020TIP3    H233256   6.285   2.682   9.301  0.6373 -0.4830 -1.8038
 3021TIP3   OH233257   7.340   0.294   8.602 -0.0330 -0.7000  0.0214
 3021TIP3    H133258   7.319   0.324   8.514 -1.6928 -1.0895  0.2458
 3021TIP3    H233259   7.255   0.278   8.643  0.5128  2.0312  2.6205
 3022TIP3   OH233260   0.085   4.626   7.140 -0.3708  0.3084 -0.4896
 3022TIP3    H133261   0.076   4.539   7.100 -1.0742  0.0743  0.1511
 3022TIP3    H233262   0.021   4.626   7.212 -0.1047  1.2181 -0.2409
 3023TIP3   OH233263   7.074   3.415   6.585 -0.0841  0.5559 -0.2808
 3023TIP3    H133264   6.997   3.367   6.553 -0.0098  1.0081 -1.1672
 3023TIP3    H233265   7.148   3.366   6.550  0.0211  0.5753 -0.0868
 3024TIP3   OH233266   0.149   4.339   8.760  0.0614  0.2554 -0.0400
 3024TIP3    H133267   0.230   4.388   8.774  0.0225  0.8799 -1.7958
 3024TIP3    H233268   0.178   4.249   8.742  0.3773  0.5003 -0.7761
 3025TIP3   OH233269   0.428   5.376   8.107  0.0920 -0.6130 -0.8068
 3025TIP3    H133270   0.499   5.312   8.111  1.1294  0.4863 -1.1007
 3025TIP3    H233271   0.379   5.362   8.187  1.6732 -0.2516  0.2786
 3026TIP3   OH233272   3.866   1.339   6.606  0.9347 -0.6106 -0.2448
 3026TIP3    H133273   3.841   1.422   6.567 -1.2712 -0.6671  0.8995
 3026TIP3    H233274   3.856   1.352   6.700 -1.0112 -2.5670 -0.0989
 3027TIP3   OH233275   3.273   3.447   8.182 -0.2828 -0.2274  0.0266
 3027TIP3    H133276   3.309   3.486   8.261  1.9495 -1.0889 -0.4797
 3027TIP3    H233277   3.302   3.356   8.185 -1.6983 -0.7568 -0.9294
 3028TIP3   OH233278   4.780   5.787   8.648 -0.4263 -0.4071 -0.2745
 3028TIP3    H133279   4.718   5.727   8.607  0.6119 -1.0895 -0.8954
 3028TIP3    H233280   4.731   5.826   8.720 -1.3165 -1.5513 -0.2270
 3029TIP3   OH233281   5.846   6.082   9.108  0.0255 -0.6011 -0.7369
 3029TIP3    H133282   5.806   5.998   9.089 -1.4097  0.1171 -1.0307
 3029TIP3    H233283   5.777   6.146   9.091  0.2853  0.4701  1.7851
 3030TIP3   OH233284   6.004   3.125   8.897 -0.2961  0.2173  0.3320
 3030TIP3    H133285   6.045   3.180   8.831 -0.3132  0.5666  0.6034
 3030TIP3    H233286   5.931   3.083   8.852  0.5256 -0.6355 -0.2274
 3031TIP3   OH233287   4.640   1.463   8.637  0.8378 -0.4276  0.1860
 3031TIP3    H133288   4.557   1.492   8.675  1.4845  0.8868  0.6746
 3031TIP3    H233289   4.678   1.543   8.600  0.2814 -1.5788 -3.2803
 3032TIP3   OH233290   2.884   0.781   9.156  0.2223 -0.3470 -0.2432
 3032TIP3    H133291   2.961   0.833   9.131  0.3913 -0.5893 -0.2257
 3032TIP3    H233292   2.906   0.692   9.131 -0.2007 -0.3653 -0.5708
 3033TIP3   OH233293   3.459   7.310   8.736  0.0059 -0.1224 -0.2012
 3033TIP3    H133294   3.521   7.281   8.803  0.0683 -0.3132 -0.3415
 3033TIP3    H233295   3.397   7.237   8.728  0.1476 -0.2066 -0.5337
 3034TIP3   OH233296   2.568   3.554   8.623  0.8383  0.5264  0.1090
 3034TIP3    H133297   2.577   3.649   8.626 -1.4779  0.7917 -0.1439
 3034TIP3    H233298   2.486   3.535   8.668  0.1778 -1.1707 -1.6610
 3035TIP3   OH233299   1.958   7.143   6.878  0.0027  0.2783 -0.5912
 3035TIP3    H133300   1.936   7.235   6.867 -0.7587  0.0267 -1.2778
 3035TIP3    H233301   1.930   7.122   6.967 -0.5285  0.5206 -0.6989
 3036TIP3   OH233302   1.939   3.706   8.762 -0.3347  0.0265 -0.5174
 3036TIP3    H133303   1.859   3.692   8.813 -0.1846  0.9007 -0.0143
 3036TIP3    H233304   2.004   3.649   8.803 -0.0729  1.1222  0.6379
 3037TIP3   OH233305   3.770   3.894   7.802 -0.5518  0.3966  0.4360
 3037TIP3    H133306   3.716   3.859   7.731 -0.8248  1.7830 -0.0747
 3037TIP3    H233307   3.855   3.852   7.790 -0.8320 -0.0031 -0.2294
 3038TIP3   OH233308   4.111   2.646   9.496  0.2492  0.2850  0.3295
 3038TIP3    H133309   4.139   2.557   9.474  2.2679  1.1581 -1.0018
 3038TIP3    H233310   4.127   2.697   9.416  0.2061  2.0448  1.3743
 3039TIP3   OH233311   1.753   7.065   8.399 -0.1675  0.2685  0.5254
 3039TIP3    H133312   1.687   7.116   8.352 -0.8618 -1.4712 -0.4735
 3039TIP3    H233313   1.819   7.044   8.332 -2.0718 -3.8115 -0.3459
 3040TIP3   OH233314   5.905   0.823   9.276 -0.0215  0.0786  0.4528
 3040TIP3    H133315   5.881   0.910   9.244  0.8293  0.4773  0.8523
 3040TIP3    H233316   5.976   0.794   9.219  0.0762 -0.1142  0.6663
 3041TIP3   OH233317   3.829   5.640   7.554  0.5095 -0.4261  0.1196
 3041TIP3    H133318   3.757   5.579   7.571  0.1087 -0.3493 -1.1676
 3041TIP3    H233319   3.808   5.678   7.468  0.6070  1.7393  0.9999
 3042TIP3   OH233320   5.783   5.514   7.772 -0.6031 -0.4506  0.0089
 3042TIP3    H133321   5.724   5.451   7.729 -0.8448 -1.3721  1.5660
 3042TIP3    H233322   5.724   5.569   7.824 -0.4930  1.8142 -2.1390
 3043TIP3   OH233323   7.034   0.532   7.836 -0.0348  0.0084 -0.3937
 3043TIP3    H133324   7.099   0.523   7.906  2.0188  3.3589 -1.6706
 3043TIP3    H233325   7.072   0.485   7.762 -1.1591 -1.6374  0.0318
 3044TIP3   OH233326   3.184   5.004   7.796 -0.2662  0.2971 -0.7902
 3044TIP3    H133327   3.112   4.992   7.859 -0.9126  3.2110 -0.8171
 3044TIP3    H233328   3.260   5.024   7.850 -0.5446  1.5940 -0.8402
 3045TIP3   OH233329   2.849   5.497   8.440  0.1202  0.0992 -0.3111
 3045TIP3    H133330   2.768   5.532   8.400 -1.1749 -1.0375  1.2086
 3045TIP3    H233331   2.898   5.461   8.366  0.1792  2.4654 -1.5393
 3046TIP3   OH233332   5.326   5.185   8.377  0.3793  0.3415  0.4075
 3046TIP3    H133333   5.310   5.145   8.462  1.8281 -1.4647 -0.1094
 3046TIP3    H233334   5.246   5.169   8.327  0.5494 -1.0874  0.5478
 3047TIP3   OH233335   1.552   1.831   8.445 -0.1841  0.6553 -0.1482
 3047TIP3    H133336   1.496   1.770   8.492 -0.4276  1.8444  1.1765
 3047TIP3    H233337   1.500   1.858   8.369 -1.0264  0.9795  0.5291
 3048TIP3   OH233338   2.849   4.583   9.408  0.2744 -0.4948 -0.5997
 3048TIP3    H133339   2.853   4.510   9.347  1.0355 -1.0179  0.0419
 3048TIP3    H233340   2.937   4.621   9.405  0.5875 -1.0470  0.7496
 3049TIP3   OH233341   2.795   7.010   9.212 -0.0744 -0.1223  0.1731
 3049TIP3    H133342   2.809   6.983   9.121  0.8613 -1.8077  0.7693
 3049TIP3    H233343   2.748   7.093   9.206  0.3351  0.0018 -1.8477
 3050TIP3   OH233344   0.812   6.177   9.940  0.1306 -0.2426  0.7147
 3050TIP3    H133345   0.729   6.189   9.895  0.3600 -2.3586 -0.3927
 3050TIP3    H233346   0.873   6.149   9.872  1.3447 -0.2701  1.7660
 3051TIP3   OH233347   4.158   6.265   8.319  0.1465 -0.4666  0.6429
 3051TIP3    H133348   4.139   6.271   8.413  1.6571  0.1806  0.9329
 3051TIP3    H233349   4.237   6.211   8.314  0.7254  0.4303 -0.1729
 3052TIP3   OH233350   6.831   4.510   7.289 -0.5256  0.5461 -0.1459
 3052TIP3    H133351   6.849   4.433   7.235  0.3927  0.5096  0.1918
 3052TIP3    H233352   6.844   4.584   7.229  0.7856  0.5184  0.0742
 3053TIP3   OH233353   2.516   3.604   9.715 -0.2599 -0.4971  0.8237
 3053TIP3    H133354   2.602   3.577   9.746  0.2970 -0.9702 -1.0251
 3053TIP3    H233355   2.490   3.537   9.652  0.4528  2.2732 -2.7130
 3054TIP3   OH233356   5.507   2.513   9.351  0.1724 -0.3642  0.3325
 3054TIP3    H133357   5.591   2.539   9.389 -0.5463  1.1427  0.9365
 3054TIP3    H233358   5.455   2.485   9.426 -0.8026  1.3764  0.3452
 3055TIP3   OH233359   0.746   4.442   6.709 -0.2177  0.4671 -0.0460
 3055TIP3    H133360   0.693   4.374   6.750 -3.1818  0.2571 -3.7067
 3055TIP3    H233361   0.835   4.406   6.709 -1.2539 -2.3125  0.3367
 3056TIP3   OH233362   4.321   1.137   7.272 -0.0273 -0.1279 -0.7120
 3056TIP3    H133363   4.414   1.121   7.287  0.0260  0.2002 -0.6847
 3056TIP3    H233364   4.316   1.163   7.180  0.1043  1.2962 -0.3368
 3057TIP3   OH233365   6.400   4.383   7.623  0.3997 -0.1840 -0.2707
 3057TIP3    H133366   6.478   4.435   7.602  0.5644 -0.4787 -0.4020
 3057TIP3    H233367   6.402   4.311   7.560 -0.3333  0.1577 -0.7072
 3058TIP3   OH233368   6.989   5.635   8.905 -0.1384  0.1929 -0.2898
 3058TIP3    H133369   6.995   5.714   8.852 -2.1164  0.7474  0.2200
 3058TIP3    H233370   7.003   5.665   8.995  2.4541 -0.6249 -0.3090
 3059TIP3   OH233371   6.309   0.686   8.316 -0.4664  0.1100 -0.3546
 3059TIP3    H133372   6.392   0.655   8.351  0.6887  3.2463 -0.0226
 3059TIP3    H233373   6.274   0.744   8.384 -1.7940  0.6221 -1.4184
 3060TIP3   OH233374   4.695   0.600   9.018  0.4081  0.0478 -0.6376
 3060TIP3    H133375   4.631   0.556   9.074  0.7692  0.3617  0.0395
 3060TIP3    H233376   4.643   0.660   8.964  0.1144  0.2381 -0.1513
 3061TIP3   OH233377   2.633   5.235   6.421 -0.0909 -0.5378  0.0180
 3061TIP3    H133378   2.553   5.281   6.394 -0.3884 -0.8734  0.3216
 3061TIP3    H233379   2.699   5.304   6.427 -0.7600  0.0242  1.4280
 3062TIP3   OH233380   4.977   5.450   8.486  0.1281  0.9002  0.0962
 3062TIP3    H133381   5.043   5.473   8.551 -1.0079  1.7333  0.9911
 3062TIP3    H233382   4.954   5.533   8.445  1.0462  0.3453 -1.6215
 3063TIP3   OH233383   2.284   4.191   8.329  0.2076  0.0409 -0.1166
 3063TIP3    H133384   2.280   4.116   8.269  0.6183  1.7856 -2.4596
 3063TIP3    H233385   2.372   4.226   8.318 -0.0743  1.0719  0.7104
 3064TIP3   OH233386   0.244   0.204   7.981 -0.0781 -0.0848  0.2073
 3064TIP3    H133387   0.233   0.169   7.893  1.9925 -0.4287  0.0327
 3064TIP3    H233388   0.234   0.299   7.971 -1.4265 -0.2405 -0.0831
 3065TIP3   OH233389   5.050   2.756   8.648 -0.0657  0.4055  0.2075
 3065TIP3    H133390   5.040   2.798   8.734  1.3538  1.1594  0.0219
 3065TIP3    H233391   5.105   2.679   8.665 -0.9603 -0.2641  0.1884
 3066TIP3   OH233392   6.342   4.611   9.906 -0.1271  0.3542  0.0281
 3066TIP3    H133393   6.331   4.550   9.833  2.2182  0.9725 -0.9642
 3066TIP3    H233394   6.343   4.555   9.984 -2.7527 -0.3091 -0.3390
 3067TIP3   OH233395   5.205   2.368   8.160  0.1486  0.3830  0.3159
 3067TIP3    H133396   5.210   2.325   8.246  0.6514  0.8841  0.5429
 3067TIP3    H233397   5.269   2.439   8.165  1.5218 -0.6827 -1.0970
 3068TIP3   OH233398   1.850   5.773   7.001 -0.0405 -0.4624  0.4120
 3068TIP3    H133399   1.892   5.748   6.919 -1.4884 -0.1135 -0.4608
 3068TIP3    H233400   1.923   5.791   7.061  1.0466 -2.4090 -0.2439
 3069TIP3   OH233401   2.994   6.750   9.927  0.2113 -0.4221  0.2098
 3069TIP3    H133402   3.080   6.724   9.959  0.3883  0.3474  0.3926
 3069TIP3    H233403   2.964   6.816   9.990  0.0980  0.3314 -0.6179
 3070TIP3   OH233404   6.522   4.613   9.123  0.8014  0.3340  0.1635
 3070TIP3    H133405   6.612   4.580   9.121  0.6932  0.0148 -2.1175
 3070TIP3    H233406   6.531   4.707   9.135  1.2898  0.0423  2.4926
 3071TIP3   OH233407   5.198   0.525   8.833  0.2795  0.6867 -0.5450
 3071TIP3    H133408   5.246   0.570   8.903  0.9703  0.8259 -1.1052
 3071TIP3    H233409   5.110   0.512   8.870  0.8719 -0.0406  0.6871
 3072TIP3   OH233410   2.158   2.057   7.855 -0.2235 -0.2438  0.0185
 3072TIP3    H133411   2.213   2.003   7.912 -0.0315  2.4611  2.6369
 3072TIP3    H233412   2.114   1.994   7.798  1.4413 -2.9618  1.4981
 3073TIP3   OH233413   2.401   6.213   7.742  0.6115  0.3176 -0.2889
 3073TIP3    H133414   2.306   6.221   7.731  0.6410 -0.9678 -1.7936
 3073TIP3    H233415   2.430   6.301   7.767 -1.1294  0.4119  1.6857
 3074TIP3   OH233416   0.272   3.941   9.459  0.1978  0.0443 -0.2254
 3074TIP3    H133417   0.320   3.955   9.540  1.6939  3.0507 -1.4858
 3074TIP3    H233418   0.210   4.014   9.454 -2.9334 -2.3334  0.0887
 3075TIP3   OH233419   5.458   0.111   9.168 -0.2377 -0.4315 -0.8179
 3075TIP3    H133420   5.475   0.168   9.242 -4.0233 -1.1895  0.8614
 3075TIP3    H233421   5.390   0.156   9.117  0.6612 -0.9732 -2.6078
 3076TIP3   OH233422   2.462   3.620   7.299  0.1087 -0.6560  0.9312
 3076TIP3    H133423   2.494   3.541   7.255 -1.1357 -0.4979 -0.3348
 3076TIP3    H233424   2.409   3.587   7.371  1.8681 -0.9233  2.1572
 3077TIP3   OH233425   6.014   4.437   7.803 -0.5341 -0.4453  0.1529
 3077TIP3    H133426   5.981   4.466   7.718 -0.1272  0.2901  0.2400
 3077TIP3    H233427   6.024   4.518   7.853 -0.2333 -0.8260  0.7066
 3078TIP3   OH233428   1.038   1.939   7.848 -0.0381 -0.6547 -0.0892
 3078TIP3    H133429   1.111   1.878   7.833  0.1413 -0.3167 -0.6083
 3078TIP3    H233430   1.002   1.954   7.761 -0.9735 -1.1100  0.2053
 3079TIP3   OH233431   7.431   3.746   8.102 -0.0050  0.0697 -0.4622
 3079TIP3    H133432   7.509   3.786   8.063  0.8554  0.0868  1.1875
 3079TIP3    H233433   7.459   3.719   8.190 -2.1725  1.1542  0.6448
 3080TIP3   OH233434   5.858   7.146   7.702 -0.3896  0.2451  0.2448
 3080TIP3    H133435   5.793   7.210   7.731 -1.1039 -0.7703  0.9582
 3080TIP3    H233436   5.806   7.071   7.673  0.2938  0.9892 -3.3023
 3081TIP3   OH233437   5.106   5.813   9.683 -0.2539 -0.2080 -0.8319
 3081TIP3    H133438   5.145   5.820   9.596  0.5743  1.6930 -0.3756
 3081TIP3    H233439   5.118   5.722   9.708  1.5600 -0.2888 -1.8100
 3082TIP3   OH233440   0.182   6.333   7.941  0.0662 -0.2461 -0.6904
 3082TIP3    H133441   0.262   6.284   7.961  0.2102 -0.1851 -1.0971
 3082TIP3    H233442   0.111   6.282   7.981  0.1651 -1.0545 -1.5173
 3083TIP3   OH233443   4.761   3.254   9.321 -0.2345 -0.2301  0.0236
 3083TIP3    H133444   4.791   3.164   9.305  0.6240  0.1245 -0.3616
 3083TIP3    H233445   4.729   3.284   9.236 -1.3490 -0.4647  0.3415
 3084TIP3   OH233446   2.303   0.177   8.535  0.0973 -0.1820 -0.1501
 3084TIP3    H133447   2.327   0.085   8.543  1.4511  0.2395  1.0247
 3084TIP3    H233448   2.271   0.201   8.623 -1.1752  0.2376 -0.6998
 3085TIP3   OH233449   1.104   3.191   7.182  0.0724  0.2625 -0.4359
 3085TIP3    H133450   1.032   3.127   7.185  0.8093 -0.5346  1.4822
 3085TIP3    H233451   1.136   3.186   7.092 -0.1894 -1.7602 -0.4688
 3086TIP3   OH233452   0.976   3.932   9.790 -0.5241 -0.1102  0.1440
 3086TIP3    H133453   0.955   4.024   9.773 -0.8705 -0.4194 -1.1723
 3086TIP3    H233454   1.071   3.927   9.780 -0.4477  0.1914  0.6834
 3087TIP3   OH233455   6.674   2.086   7.085 -0.4123 -0.2355 -0.1487
 3087TIP3    H133456   6.678   2.172   7.128 -0.3128 -0.8965  1.2261
 3087TIP3    H233457   6.610   2.097   7.015 -0.7352  0.8304  0.2877
 3088TIP3   OH233458   2.504   7.258   8.746  0.2189  0.1641  0.0191
 3088TIP3    H133459   2.429   7.202   8.762  0.7452 -0.5369  0.0766
 3088TIP3    H233460   2.526   7.243   8.654  0.3201  0.3203  0.0167
 3089TIP3   OH233461   5.492   2.950   9.459  0.0905 -0.7538  0.3022
 3089TIP3    H133462   5.404   2.942   9.495 -1.0027  0.9950 -1.7517
 3089TIP3    H233463   5.491   2.896   9.380 -0.3045  1.7565 -1.5399
 3090TIP3   OH233464   0.179   3.751   8.601 -0.1586  0.2367  0.0714
 3090TIP3    H133465   0.259   3.800   8.619  0.5369 -0.6795 -0.4379
 3090TIP3    H233466   0.181   3.677   8.662 -1.9471  1.5717  1.8826
 3091TIP3   OH233467   3.970   1.696   8.885 -0.2323 -0.2249  0.2027
 3091TIP3    H133468   3.903   1.648   8.934 -1.6844 -0.0822 -1.5417
 3091TIP3    H233469   4.051   1.646   8.898 -1.0117 -1.2867  1.0682
 3092TIP3   OH233470   4.711   0.180   7.273  0.3281 -0.3501 -0.0529
 3092TIP3    H133471   4.629   0.130   7.269  2.3140 -3.8926 -1.1286
 3092TIP3    H233472   4.751   0.154   7.356  0.7116  0.7783  0.1312
 3093TIP3   OH233473   0.931   2.067   6.816  0.0909 -0.7809  0.1535
 3093TIP3    H133474   0.900   1.992   6.867 -2.2375 -0.2364 -0.3262
 3093TIP3    H233475   0.873   2.069   6.740 -0.2223  1.7351  0.3722
 3094TIP3   OH233476   6.321   4.905   9.597 -0.1080 -0.2182 -0.3474
 3094TIP3    H133477   6.256   4.879   9.662  0.2697 -0.5668 -0.1085
 3094TIP3    H233478   6.404   4.873   9.632  0.2096  0.3214 -0.5954
 3095TIP3   OH233479   1.758   4.810   8.102  0.3253 -0.3854 -0.2468
 3095TIP3    H133480   1.792   4.827   8.190  0.4521  1.1762 -0.5623
 3095TIP3    H233481   1.788   4.722   8.081  1.3990 -0.2834  0.7610
 3096TIP3   OH233482   1.957   2.604   9.727  0.1518 -0.1349  0.0726
 3096TIP3    H133483   1.961   2.697   9.706 -0.6111 -0.3546 -1.1155
 3096TIP3    H233484   1.872   2.575   9.693  1.1309 -1.6536 -1.1799
 3097TIP3   OH233485   4.082   0.977   8.735 -0.1283 -0.7403  0.3384
 3097TIP3    H133486   4.026   0.903   8.714  2.3821 -2.2764 -1.3696
 3097TIP3    H233487   4.171   0.942   8.735  1.1862  2.2532 -0.5578
 3098TIP3   OH233488   4.402   7.172   8.264 -0.5554  0.1836  0.5010
 3098TIP3    H133489   4.341   7.154   8.336 -0.1548  1.2703  1.1282
 3098TIP3    H233490   4.442   7.087   8.245  0.1177  0.0695  2.2940
 3099TIP3   OH233491   6.440   6.004   9.542  0.1077 -0.1259 -0.1080
 3099TIP3    H133492   6.465   6.014   9.634  0.5510 -0.4588 -0.1886
 3099TIP3    H233493   6.361   5.951   9.544  1.3806 -2.1292 -0.0150
 3100TIP3   OH233494   4.274   3.830   8.715  0.1523 -0.0228 -0.2189
 3100TIP3    H133495   4.343   3.765   8.703  0.8597  0.8421 -0.9476
 3100TIP3    H233496   4.282   3.855   8.808  1.5489  0.8412 -0.5365
 3101TIP3   OH233497   1.159   1.637   8.245 -0.2611 -0.5756 -0.3751
 3101TIP3    H133498   1.103   1.712   8.225  0.3979  0.1593  0.4422
 3101TIP3    H233499   1.224   1.636   8.175  0.5075  0.4313  0.2973
 3102TIP3   OH233500   3.173   0.062   7.337  0.1220  0.0754  0.2031
 3102TIP3    H133501   3.170  -0.028   7.369  0.5098  0.1097  0.3363
 3102TIP3    H233502   3.255   0.069   7.289  0.3719  0.5247  0.6866
 3103TIP3   OH233503   3.265   2.597   8.400 -0.3237 -0.1216 -0.2960
 3103TIP3    H133504   3.234   2.512   8.433 -0.8729  0.4459  0.7100
 3103TIP3    H233505   3.284   2.581   8.308 -0.3643 -1.3553 -0.1168
 3104TIP3   OH233506   7.056   6.539   8.536  0.4942  0.2210 -0.0563
 3104TIP3    H133507   7.102   6.487   8.471  1.5809  1.6943 -0.5208
 3104TIP3    H233508   7.115   6.540   8.612 -0.3199 -0.6558  0.6253
 3105TIP3   OH233509   7.040   2.157   8.417 -0.2150 -0.1853 -0.3480
 3105TIP3    H133510   7.013   2.066   8.434 -2.2239  0.1639 -1.3089
 3105TIP3    H233511   7.023   2.169   8.324  0.9231  0.9180 -0.4296
 3106TIP3   OH233512   0.854   0.980   9.430 -0.7265  0.8391  0.0542
 3106TIP3    H133513   0.780   1.027   9.468  0.0050  1.1176  1.1772
 3106TIP3    H233514   0.924   1.045   9.427 -1.0418  1.1464 -2.8260
 3107TIP3   OH233515   7.017   1.885   6.915  0.3648  0.3065 -0.0424
 3107TIP3    H133516   7.015   1.790   6.900 -0.2571  0.3972 -0.5806
 3107TIP3    H233517   7.081   1.917   6.851  2.5308 -0.0085  1.8286
 3108TIP3   OH233518   0.428   0.864   7.273  0.4616  0.0183 -0.5333
 3108TIP3    H133519   0.491   0.896   7.209  0.3378  0.6346 -0.3553
 3108TIP3    H233520   0.343   0.891   7.239  0.3755  0.1175 -0.2407
 3109TIP3   OH233521   4.755   2.221   8.834  0.7938  0.8808 -0.2909
 3109TIP3    H133522   4.779   2.166   8.759 -0.1315 -2.4251  1.6483
 3109TIP3    H233523   4.660   2.234   8.824  0.8142  1.1522 -0.1233
 3110TIP3   OH233524   7.353   5.425   8.337  0.1160  0.1113 -0.2853
 3110TIP3    H133525   7.335   5.458   8.425  2.0929 -0.1146  0.2588
 3110TIP3    H233526   7.335   5.331   8.343 -0.7537  0.2705 -0.4171
 3111TIP3   OH233527   4.111   6.881   8.014  0.1851 -0.2497 -0.1680
 3111TIP3    H133528   4.142   6.856   8.102  0.1894 -0.1580 -0.1439
 3111TIP3    H233529   4.190   6.909   7.969 -0.0468  1.2806  0.3260
 3112TIP3   OH233530   1.292   5.402   9.321  0.2303 -0.2024 -0.0108
 3112TIP3    H133531   1.338   5.369   9.244  0.5427 -0.5062  0.3036
 3112TIP3    H233532   1.359   5.403   9.390  0.2320  1.0555  0.0022
 3113TIP3   OH233533   5.182   6.312   8.528  0.6176  0.1408  0.0168
 3113TIP3    H133534   5.114   6.245   8.522  0.9247 -0.1706  0.0135
 3113TIP3    H233535   5.156   6.365   8.603  1.0196 -0.7164  0.7820
 3114TIP3   OH233536   7.374   6.678   6.902 -0.1066  0.2945 -0.5242
 3114TIP3    H133537   7.336   6.615   6.841 -0.0648  2.2375 -2.7237
 3114TIP3    H233538   7.307   6.690   6.969 -2.1923  1.3534 -2.6414
 3115TIP3   OH233539   2.986   2.362   9.629  0.0249 -0.3504 -0.6597
 3115TIP3    H133540   3.020   2.427   9.691  3.1949 -0.2594 -2.2726
 3115TIP3    H233541   2.991   2.279   9.677  0.9394 -0.0761 -0.2537
 3116TIP3   OH233542   3.976   3.658   9.525  0.0304  0.0862 -0.2817
 3116TIP3    H133543   4.045   3.716   9.493  0.5923  0.4365  1.4304
 3116TIP3    H233544   3.988   3.577   9.476  0.2125  0.8823 -1.6044
 3117TIP3   OH233545   6.923   2.748   9.287  0.3627 -0.8787 -0.2342
 3117TIP3    H133546   6.899   2.807   9.217  0.1822 -1.0544 -0.3219
 3117TIP3    H233547   6.842   2.704   9.311  0.1978 -0.0183  0.8501
 3118TIP3   OH233548   6.363   0.233   9.253  0.4670  0.6289  0.0386
 3118TIP3    H133549   6.427   0.257   9.320 -0.3387  1.2240  0.6141
 3118TIP3    H233550   6.364   0.138   9.251  0.8147  0.6192  0.5892
 3119TIP3   OH233551   4.192   2.237   8.956  0.4132 -0.4848  0.2985
 3119TIP3    H133552   4.162   2.284   9.034 -0.4176  2.3215 -1.5650
 3119TIP3    H233553   4.114   2.196   8.920 -0.1678  1.8534 -1.3126
 3120TIP3   OH233554   6.778   4.204   8.769  0.0448  0.5171 -0.0965
 3120TIP3    H133555   6.694   4.227   8.730  0.0423  0.0296 -0.3791
 3120TIP3    H233556   6.827   4.286   8.768  0.0988  0.4981 -1.2699
 3121TIP3   OH233557   3.766   4.597   7.385 -0.3108  0.7192  0.1470
 3121TIP3    H133558   3.828   4.595   7.458  0.6113  0.6203 -0.6175
 3121TIP3    H233559   3.806   4.658   7.322  0.1578 -1.0282 -1.3406
 3122TIP3   OH233560   5.740   0.151   8.049  0.5329 -0.1259  0.2497
 3122TIP3    H133561   5.809   0.184   8.107  1.4068 -1.3910 -0.0055
 3122TIP3    H233562   5.661   0.196   8.076  1.4280  1.2236  0.7015
 3123TIP3   OH233563   5.367   2.150   8.678 -0.3660 -0.0263 -0.3246
 3123TIP3    H133564   5.389   2.106   8.596  0.2212  2.9277 -1.9049
 3123TIP3    H233565   5.451   2.165   8.721 -0.5382 -0.2895  0.1064
 3124TIP3   OH233566   0.805   5.532   7.952 -0.3332 -0.5236 -0.4911
 3124TIP3    H133567   0.898   5.550   7.935 -0.3838  2.8712  1.7536
 3124TIP3    H233568   0.802   5.505   8.044 -1.5942  0.2486 -0.2812
 3125TIP3   OH233569   5.558   5.801   8.233 -0.1141  0.0551  0.3500
 3125TIP3    H133570   5.582   5.747   8.309 -1.6748  1.6914  2.1254
 3125TIP3    H233571   5.574   5.891   8.262  1.5020  0.6836 -2.1775
 3126TIP3   OH233572   2.415   6.001   7.555 -0.0174  0.5035  0.0114
 3126TIP3    H133573   2.420   6.076   7.615 -0.5793 -0.1724  0.9429
 3126TIP3    H233574   2.426   6.039   7.468  0.5939  1.5487  0.5197
 3127TIP3   OH233575   6.741   1.975   7.854 -0.1598 -0.0091 -0.3123
 3127TIP3    H133576   6.684   1.923   7.910 -0.2917 -1.2364 -1.5424
 3127TIP3    H233577   6.722   1.945   7.765 -0.4848  2.3979 -1.1252
 3128TIP3   OH233578   2.664   4.999   9.384  0.3720  0.1202 -0.1598
 3128TIP3    H133579   2.620   4.989   9.469 -1.4257 -0.8001 -1.1390
 3128TIP3    H233580   2.752   4.964   9.399  0.8520  1.9338  1.8565
 3129TIP3   OH233581   1.597   4.594   6.896 -0.0796  0.4067  0.3867
 3129TIP3    H133582   1.525   4.620   6.954  0.4657  1.2109  0.7312
 3129TIP3    H233583   1.593   4.499   6.894 -1.3127  0.4409  0.1914
 3130TIP3   OH233584   4.441   1.720   8.440 -0.3400  0.0764 -0.0112
 3130TIP3    H133585   4.536   1.704   8.441 -0.2619  0.3447 -1.3634
 3130TIP3    H233586   4.409   1.678   8.520  0.9041 -0.1165  0.4095
 3131TIP3   OH233587   4.690   6.496   8.364 -0.0070  0.3415 -0.3093
 3131TIP3    H133588   4.633   6.424   8.391  0.6393 -0.7239 -1.6979
 3131TIP3    H233589   4.644   6.536   8.290  0.2342  0.5609 -0.3408
 3132TIP3   OH233590   2.243   6.440   8.621  0.1117  0.1536  0.6646
 3132TIP3    H133591   2.268   6.425   8.530 -1.4462 -0.4457  0.2997
 3132TIP3    H233592   2.325   6.458   8.666  0.8667  0.8276 -0.9250
 3133TIP3   OH233593   3.970   1.512   9.249  0.1633 -0.0765  0.4883
 3133TIP3    H133594   3.874   1.518   9.247  0.1998  0.4081 -0.0242
 3133TIP3    H233595   3.989   1.464   9.330 -0.5376 -0.7123  0.2893
 3134TIP3   OH233596   4.935   0.919   8.215  0.3577  0.3925 -0.3839
 3134TIP3    H133597   4.920   0.836   8.169  1.1370  0.1909 -0.3014
 3134TIP3    H233598   4.933   0.896   8.308 -1.8154  0.9054 -0.2638
 3135TIP3   OH233599   3.788   2.432   9.234  0.2309  0.0137 -0.1965
 3135TIP3    H133600   3.693   2.446   9.231 -0.0844 -1.7252  0.7947
 3135TIP3    H233601   3.825   2.520   9.240 -1.2404  0.7965 -1.8723
 3136TIP3   OH233602   1.692   6.200   8.560  0.5607  0.6460  0.3816
 3136TIP3    H133603   1.676   6.106   8.573  0.8899  0.6502  0.8725
 3136TIP3    H233604   1.767   6.219   8.616  1.1856  0.9834 -0.5550
 3137TIP3   OH233605   5.970   2.486   7.260 -0.2109 -0.2198  0.4853
 3137TIP3    H133606   6.020   2.499   7.180  1.3097 -1.0861  1.2605
 3137TIP3    H233607   5.910   2.561   7.264  2.2384  1.8776  0.4205
 3138TIP3   OH233608   6.448   1.034   9.102  0.0046  0.5500  0.0939
 3138TIP3    H133609   6.484   1.087   9.172  0.6656  1.2236 -0.7324
 3138TIP3    H233610   6.416   1.097   9.037  1.7131 -0.0048 -1.3772
 3139TIP3   OH233611   1.310   4.896   8.665 -0.2249  0.2534  0.4577
 3139TIP3    H133612   1.263   4.831   8.612  0.0281 -0.4923  1.1235
 3139TIP3    H233613   1.317   4.855   8.752 -1.2374  1.7197  1.2855
 3140TIP3   OH233614   3.010   7.301   7.745  0.1646 -0.1784  0.1301
 3140TIP3    H133615   3.102   7.274   7.749  0.8100  1.9207  0.8202
 3140TIP3    H233616   2.987   7.322   7.835  0.0670  2.4235 -0.4184
 3141TIP3   OH233617   3.614   7.212   6.797  0.0318  0.2263  0.2416
 3141TIP3    H133618   3.586   7.248   6.881 -1.4163 -1.1387  0.3835
 3141TIP3    H233619   3.693   7.262   6.775 -0.5920  1.8720  1.5013
 3142TIP3   OH233620   7.051   5.354   9.845  0.1041  0.2061 -0.0701
 3142TIP3    H133621   7.113   5.406   9.793 -0.5621  1.9059  0.7573
 3142TIP3    H233622   7.082   5.364   9.935 -0.5893 -0.0621  0.1992
 3143TIP3   OH233623   5.961   1.955   9.213 -0.3897 -0.3511 -0.1654
 3143TIP3    H133624   5.996   1.966   9.302  1.7490 -1.3461 -0.8225
 3143TIP3    H233625   5.889   1.893   9.222 -1.4151  0.9468  1.0904
 3144TIP3   OH233626   4.208   7.417   7.330 -0.0316  0.1791  0.5996
 3144TIP3    H133627   4.130   7.368   7.357 -0.4576  0.2713 -0.4094
 3144TIP3    H233628   4.238   7.372   7.251  0.8019  0.2900  0.8509
 3145TIP3   OH233629   5.772   2.028   7.432 -0.7258 -0.0892 -0.0289
 3145TIP3    H133630   5.731   1.955   7.387  0.0114 -0.0973 -0.6958
 3145TIP3    H233631   5.787   2.094   7.364 -0.5512  0.3183  0.3942
 3146TIP3   OH233632   4.213   3.952   8.044  0.7490  0.5220  0.0888
 3146TIP3    H133633   4.174   3.872   8.009  2.6530 -0.5659  0.3186
 3146TIP3    H233634   4.306   3.932   8.051  1.0525  2.2268  1.6486
 3147TIP3   OH233635   6.684   4.206   8.173 -0.6061 -0.7910 -0.5457
 3147TIP3    H133636   6.676   4.240   8.084  1.4826  1.9536  0.1578
 3147TIP3    H233637   6.763   4.154   8.172  2.3051  3.1384  0.5186
 3148TIP3   OH233638   4.477   5.247   7.150 -1.4719  0.7338  0.9867
 3148TIP3    H133639   4.405   5.299   7.113 -3.5572 -0.5955  2.9384
 3148TIP3    H233640   4.517   5.305   7.215 -0.1523  1.7695 -0.6640
 3149TIP3   OH233641   3.261   2.865   8.504  0.3429  0.6062 -0.1168
 3149TIP3    H133642   3.209   2.852   8.584  0.9257 -0.5504  0.0879
 3149TIP3    H233643   3.270   2.778   8.467  2.1410  0.7627 -0.1470
 3150TIP3   OH233644   7.024   0.336   7.393  0.1241  0.0261  0.0069
 3150TIP3    H133645   7.107   0.382   7.381  0.1078 -0.5767 -3.0748
 3150TIP3    H233646   6.957   0.404   7.387  0.2825  0.2604  0.7307
 3151TIP3   OH233647   1.919   0.102   7.559  0.4646  0.2487 -0.0532
 3151TIP3    H133648   1.884   0.039   7.496  1.2133 -2.2039  1.8534
 3151TIP3    H233649   1.842   0.144   7.597 -0.1667 -0.9663  0.0489
 3152TIP3   OH233650   6.574   5.600   7.154  0.5632  0.1097  0.0230
 3152TIP3    H133651   6.499   5.608   7.095 -0.2224  0.7175  1.0727
 3152TIP3    H233652   6.603   5.690   7.168  2.3048 -0.1847 -1.3406
 3153TIP3   OH233653   5.019   5.105   7.191  0.7278  0.0291  0.8281
 3153TIP3    H133654   4.990   5.197   7.188  1.7462  0.3417 -0.6724
 3153TIP3    H233655   5.108   5.110   7.225  1.9241 -0.0078 -1.9959
 3154TIP3   OH233656   6.669   1.622   7.556 -0.1732  0.3303 -0.3577
 3154TIP3    H133657   6.720   1.702   7.559 -1.1917  0.9939  2.3896
 3154TIP3    H233658   6.733   1.553   7.538  0.9894  1.5388 -1.0318
 3155TIP3   OH233659   3.844   6.008   9.824  0.0948 -0.3639 -0.0263
 3155TIP3    H133660   3.818   5.992   9.914  1.3592 -0.6829  0.3053
 3155TIP3    H233661   3.796   5.944   9.772 -0.5556 -0.2440  0.4254
 3156TIP3   OH233662   4.808   0.503   9.577 -0.0868  0.1647 -0.5783
 3156TIP3    H133663   4.798   0.562   9.503  0.1346 -2.2231 -2.6252
 3156TIP3    H233664   4.726   0.453   9.580 -0.7670  1.2712  1.8554
 3157TIP3   OH233665   4.583   2.100   8.476 -0.3108  0.1668  0.0032
 3157TIP3    H133666   4.659   2.125   8.423 -0.5703  0.7762 -0.0940
 3157TIP3    H233667   4.620   2.051   8.550  0.0776 -0.4584 -0.5942
 3158TIP3   OH233668   3.911   5.326   8.157  0.0084 -0.1223  0.2890
 3158TIP3    H133669   3.831   5.297   8.112  0.5014 -0.9926 -0.0525
 3158TIP3    H233670   3.926   5.415   8.125 -0.0557 -0.4655 -0.7252
 3159TIP3   OH233671   2.477   4.816   8.986 -0.1946  0.1523  0.2145
 3159TIP3    H133672   2.413   4.851   9.047 -0.6378 -0.2958  0.0145
 3159TIP3    H233673   2.517   4.743   9.034  0.8549  1.0274  0.7001
 3160TIP3   OH233674   2.242   5.677   9.251 -0.0712 -0.2129 -0.1118
 3160TIP3    H133675   2.287   5.712   9.175 -2.4194  0.2326 -1.3833
 3160TIP3    H233676   2.167   5.629   9.215 -0.0162 -1.9008  1.8294
 3161TIP3   OH233677   6.352   1.796   9.362  0.2263  0.2894  0.0746
 3161TIP3    H133678   6.442   1.781   9.389  0.6926  2.0610 -0.3816
 3161TIP3    H233679   6.356   1.875   9.309 -1.4624 -0.1445 -0.7540
 3162TIP3   OH233680   3.932   0.651   9.416 -0.0896 -0.4012  0.6529
 3162TIP3    H133681   3.848   0.644   9.463  0.1357 -0.6431  1.0257
 3162TIP3    H233682   3.976   0.725   9.458 -0.2102 -0.1329  0.3072
 3163TIP3   OH233683   7.371   5.940   9.842  0.1094 -0.6131  0.1956
 3163TIP3    H133684   7.423   5.908   9.769 -0.9484 -1.3168 -0.2753
 3163TIP3    H233685   7.319   6.012   9.806  2.3472  1.6586  1.2055
 3164TIP3   OH233686   4.184   7.454   9.500  0.5847  0.2707  0.3112
 3164TIP3    H133687   4.194   7.421   9.590 -0.2727  0.0217  0.3308
 3164TIP3    H233688   4.149   7.542   9.511  0.9568  0.4279  0.2285
 3165TIP3   OH233689   6.410   5.018   8.528 -0.3316 -0.1881  0.0831
 3165TIP3    H133690   6.352   4.997   8.601  1.7575 -0.0187  1.9020
 3165TIP3    H233691   6.434   4.933   8.491 -1.2906 -0.2811 -0.3601
 3166TIP3   OH233692   0.576   3.725   7.666  0.1257  0.3665 -0.1127
 3166TIP3    H133693   0.552   3.817   7.678  1.3588  0.5467  1.3209
 3166TIP3    H233694   0.561   3.708   7.574  0.5172  2.2055 -0.5581
 3167TIP3   OH233695   5.941   4.275   8.797  0.0611  0.2363  0.1693
 3167TIP3    H133696   5.850   4.283   8.767  0.6066 -1.3704 -2.1748
 3167TIP3    H233697   5.954   4.182   8.811  0.9892  0.5823  1.8422
 3168TIP3   OH233698   4.250   4.116   7.342  0.4905 -0.1010 -0.1522
 3168TIP3    H133699   4.196   4.132   7.264 -1.0975  1.3726  1.1820
 3168TIP3    H233700   4.338   4.143   7.316 -0.2423  1.5045 -1.0901
 3169TIP3   OH233701   4.802   1.601   8.378 -0.1365  0.2116 -0.2829
 3169TIP3    H133702   4.804   1.630   8.470 -0.1889 -0.7940  0.0463
 3169TIP3    H233703   4.820   1.680   8.328 -0.2958  0.8188  0.5885
 3170TIP3   OH233704   7.220   7.012   9.282 -0.4660 -0.6716 -0.5122
 3170TIP3    H133705   7.214   6.947   9.212  1.2820 -0.1041 -1.2501
 3170TIP3    H233706   7.166   7.085   9.252 -0.5662 -0.8530 -0.7768
 3171TIP3   OH233707   6.444   6.772   8.223  0.1272 -0.0721  0.2540
 3171TIP3    H133708   6.392   6.717   8.282  0.3552  0.1571  0.6777
 3171TIP3    H233709   6.380   6.806   8.160  0.3902 -3.1204 -1.8614
 3172TIP3   OH233710   0.242   6.170   9.353 -0.1470  0.4188  0.6074
 3172TIP3    H133711   0.164   6.221   9.329 -0.4031 -1.1548 -2.5306
 3172TIP3    H233712   0.222   6.081   9.322  2.3967 -0.3251  0.8926
 3173TIP3   OH233713   5.831   2.189   7.680  0.2752 -0.2962  0.6594
 3173TIP3    H133714   5.807   2.189   7.587  0.8544 -3.3675  0.4008
 3173TIP3    H233715   5.904   2.128   7.686 -0.0572 -0.5531  3.1988
 3174TIP3   OH233716   0.800   0.462   9.582  0.7980 -0.2612  0.4123
 3174TIP3    H133717   0.707   0.441   9.577  0.1304  2.4866 -0.7075
 3174TIP3    H233718   0.844   0.383   9.552 -1.1953 -1.4128  0.3480
 3175TIP3   OH233719   3.201   3.256   7.904  0.7190  0.5464 -0.0569
 3175TIP3    H133720   3.241   3.174   7.875 -0.9393 -0.2646 -0.1595
 3175TIP3    H233721   3.270   3.321   7.894  1.5195 -0.4894 -1.7590
 3176TIP3   OH233722   2.264   4.672   7.725  0.4744  0.3193 -0.5691
 3176TIP3    H133723   2.256   4.766   7.712  1.1653  0.4118 -0.3868
 3176TIP3    H233724   2.177   4.637   7.709 -0.5284  1.3282  2.0917
 3177TIP3   OH233725   4.846   3.959   7.781 -0.8142 -0.2040  0.6375
 3177TIP3    H133726   4.800   3.948   7.698  2.1181  0.7057 -1.2357
 3177TIP3    H233727   4.843   3.873   7.822 -0.8930 -1.1206 -1.2130
 3178TIP3   OH233728   1.251   2.471   7.615 -0.2662 -0.1632 -0.1410
 3178TIP3    H133729   1.165   2.485   7.654  0.2237  2.5090  0.1279
 3178TIP3    H233730   1.313   2.483   7.687  0.3932 -2.6677 -0.1798
 3179TIP3   OH233731   5.566   4.237   9.622  0.0584  0.5317 -0.7076
 3179TIP3    H133732   5.588   4.313   9.568  2.0812  1.0917  0.7862
 3179TIP3    H233733   5.645   4.182   9.619 -0.8556 -0.8369 -0.6221
 3180TIP3   OH233734   4.513   0.470   9.150 -0.1053 -0.3202 -0.3872
 3180TIP3    H133735   4.420   0.456   9.170  0.1749 -1.8802 -0.0846
 3180TIP3    H233736   4.548   0.383   9.133  1.5888  0.0732  0.7691
 3181TIP3   OH233737   5.515   2.234   9.555  0.5454  0.0091  0.3795
 3181TIP3    H133738   5.475   2.298   9.495 -0.4206 -0.5449  0.4243
 3181TIP3    H233739   5.442   2.195   9.602  1.2115 -0.3668  1.1390
 3182TIP3   OH233740   4.241   2.694   9.231 -0.4036  0.5656 -0.2293
 3182TIP3    H133741   4.326   2.685   9.275 -1.2282 -0.1637  1.2974
 3182TIP3    H233742   4.263   2.703   9.138  1.2500 -1.9380 -0.1720
 3183TIP3   OH233743   3.899   7.172   7.712  0.5760 -0.3001 -0.6267
 3183TIP3    H133744   3.857   7.198   7.629 -1.3364 -1.7265 -0.2043
 3183TIP3    H233745   3.826   7.140   7.765  1.9847 -0.8838  1.0204
 3184TIP3   OH233746   3.938   6.406   9.069  0.4233 -0.4635 -0.5167
 3184TIP3    H133747   3.959   6.489   9.028  2.5543 -1.5455 -1.7882
 3184TIP3    H233748   3.986   6.408   9.152  0.0297 -0.2053 -0.2952
 3185TIP3   OH233749   5.026   4.929   8.648 -0.0828 -0.1545 -0.3528
 3185TIP3    H133750   4.980   4.909   8.566 -0.0735  1.7687 -0.8707
 3185TIP3    H233751   5.090   4.996   8.623  1.9575 -1.5934  0.6671
 3186TIP3   OH233752   1.257   2.170   7.166 -0.4051  0.4079 -0.3561
 3186TIP3    H133753   1.275   2.207   7.253  0.7491  0.2800 -0.5171
 3186TIP3    H233754   1.302   2.229   7.106  0.3883 -0.5372 -0.7159
 3187TIP3   OH233755   1.299   2.567   7.888  0.2443 -0.4325  0.2085
 3187TIP3    H133756   1.316   2.660   7.872  0.4627 -0.8965 -2.9321
 3187TIP3    H233757   1.206   2.562   7.910  0.0610  0.4844 -0.3168
 3188TIP3   OH233758   6.732   2.762   8.740  0.1436 -0.1909 -0.1847
 3188TIP3    H133759   6.670   2.809   8.796  0.4987 -0.3398  0.3483
 3188TIP3    H233760   6.678   2.700   8.691 -0.2079  0.1305 -0.2059
 3189TIP3   OH233761   0.269   7.146   7.747  0.2198  0.0801  0.2132
 3189TIP3    H133762   0.194   7.195   7.714  1.0680  0.8587 -0.6329
 3189TIP3    H233763   0.311   7.207   7.809  2.1658  1.1389 -1.9892
 3190TIP3   OH233764   0.938   1.560   8.602  0.5886 -0.2161  0.2761
 3190TIP3    H133765   1.001   1.550   8.530  0.3396  0.7052 -0.0702
 3190TIP3    H233766   0.938   1.474   8.644  1.9907 -0.2824  0.2072
 3191TIP3   OH233767   6.820   7.514   8.698 -0.0657  1.0179 -0.0715
 3191TIP3    H133768   6.756   7.513   8.626 -0.8220  0.6360  0.5852
 3191TIP3    H233769   6.829   7.606   8.721 -0.0136  1.1184 -0.4872
 3192TIP3   OH233770   7.507   3.807   9.309 -0.5585 -0.3169 -0.4226
 3192TIP3    H133771   7.571   3.878   9.317 -0.8669 -0.0153 -0.6445
 3192TIP3    H233772   7.492   3.799   9.215  0.7891 -1.8506 -0.5556
 3193TIP3   OH233773   3.482   2.998   8.596 -0.4351 -0.4280 -0.1910
 3193TIP3    H133774   3.546   2.986   8.527 -0.3552 -0.7615 -0.0601
 3193TIP3    H233775   3.409   2.940   8.572 -0.5186 -0.3470 -0.1340
 3194TIP3   OH233776   4.516   3.035   7.958  0.0447  0.3251 -0.0135
 3194TIP3    H133777   4.533   3.040   8.052  0.3109 -0.2192 -0.0247
 3194TIP3    H233778   4.596   2.996   7.921  0.2828  1.3173 -0.5792
 3195TIP3   OH233779   4.996   4.507   6.970 -0.1788 -0.1944 -0.8153
 3195TIP3    H133780   5.052   4.582   6.990  2.0378 -1.9987  0.2673
 3195TIP3    H233781   4.928   4.509   7.038  1.7130 -0.8535  1.2144
 3196TIP3   OH233782   3.995   6.535   9.357  0.1109  0.1437 -0.0083
 3196TIP3    H133783   3.982   6.617   9.310 -0.3532  0.5614  0.8346
 3196TIP3    H233784   3.973   6.555   9.448 -0.3741 -0.9944  0.1491
 3197TIP3   OH233785   4.902   3.484   8.631  0.0105 -0.2182 -0.4447
 3197TIP3    H133786   4.895   3.572   8.594  0.1685 -0.0069  0.0163
 3197TIP3    H233787   4.992   3.457   8.610  0.9458  0.8694  1.8378
 3198TIP3   OH233788   3.063   0.615   7.285  0.1461  0.1670 -0.1080
 3198TIP3    H133789   3.035   0.644   7.198  0.2571  0.9505  0.1104
 3198TIP3    H233790   3.097   0.527   7.271  0.5347  0.4398 -0.9345
 3199TIP3   OH233791   3.351   2.468   9.637 -0.0130  0.3154 -0.5078
 3199TIP3    H133792   3.275   2.518   9.667 -0.2013 -0.1348 -0.2259
 3199TIP3    H233793   3.322   2.377   9.639  0.3876  0.1767 -0.8410
 3200TIP3   OH233794   1.453   6.319   8.735  0.1823  0.1494 -0.1290
 3200TIP3    H133795   1.506   6.300   8.658  0.0432 -0.9578  0.0329
 3200TIP3    H233796   1.362   6.309   8.705  0.1055 -3.0015  0.7403
 3201TIP3   OH233797   1.715   2.505   8.582 -0.0884  0.2639 -0.1095
 3201TIP3    H133798   1.730   2.467   8.668 -0.8258 -0.0760 -0.1241
 3201TIP3    H233799   1.653   2.446   8.540  3.0257 -1.7114 -2.3251
 3202TIP3   OH233800   4.621   4.893   7.818 -0.3746 -0.1997  0.0783
 3202TIP3    H133801   4.685   4.824   7.805 -1.2926 -0.7942 -1.5580
 3202TIP3    H233802   4.544   4.848   7.852 -1.3740 -0.2373 -2.0756
 3203TIP3   OH233803   6.903   6.209   7.804  0.0930  0.3262 -0.0056
 3203TIP3    H133804   6.823   6.235   7.850  0.0513 -1.3061  0.9141
 3203TIP3    H233805   6.968   6.197   7.874  0.9659  0.9993 -0.6872
 3204TIP3   OH233806   0.948   4.444   7.418 -0.0641  0.4919 -0.6011
 3204TIP3    H133807   0.965   4.538   7.422  0.0344  0.4754 -0.6294
 3204TIP3    H233808   0.858   4.437   7.388 -0.0018  0.5727 -0.8065
 3205TIP3   OH233809   4.027   1.971   8.915  0.0761  0.2823 -0.8385
 3205TIP3    H133810   3.962   1.902   8.929 -0.1609  0.8580  1.3427
 3205TIP3    H233811   4.082   1.939   8.844  0.1717 -2.2919  0.3161
 3206TIP3   OH233812   3.638   5.360   7.767 -0.0290 -0.4348 -0.3712
 3206TIP3    H133813   3.637   5.327   7.677  2.6161  1.8987 -1.3805
 3206TIP3    H233814   3.581   5.436   7.765  0.8679  0.2557 -0.4074
 3207TIP3   OH233815   3.739   0.279   8.425 -0.1999  0.7013 -0.4006
 3207TIP3    H133816   3.782   0.236   8.499  0.1769  0.9458 -0.4699
 3207TIP3    H233817   3.664   0.325   8.463  2.5877  4.8833  0.7745
 3208TIP3   OH233818   1.339   3.772   6.986 -0.5913  0.3781  0.5783
 3208TIP3    H133819   1.323   3.741   7.076  1.5040 -1.6313  0.3535
 3208TIP3    H233820   1.432   3.792   6.984 -0.8669  1.6577 -0.8422
 3209TIP3   OH233821   2.698   3.906   8.880 -0.0239 -0.5966  0.0679
 3209TIP3    H133822   2.710   3.999   8.863 -1.3221 -0.2971  0.6917
 3209TIP3    H233823   2.773   3.882   8.935  0.2241  0.1136  0.0475
 3210TIP3   OH233824   1.793   3.923   8.568 -0.6477 -0.3726  0.1048
 3210TIP3    H133825   1.832   3.836   8.558 -0.2243 -0.3614  1.4155
 3210TIP3    H233826   1.713   3.908   8.618 -1.4423 -0.1833 -1.0746
 3211TIP3   OH233827   0.563   0.060   8.850  0.1240 -0.1823 -0.3982
 3211TIP3    H133828   0.608   0.008   8.916  0.2822 -1.3274 -1.3682
 3211TIP3    H233829   0.471   0.060   8.878  0.5271  1.4164  1.1086
 3212TIP3   OH233830   2.975   5.250   8.836  0.5589 -0.3830 -0.4957
 3212TIP3    H133831   2.989   5.258   8.742  2.1939  0.6534 -0.1927
 3212TIP3    H233832   3.042   5.305   8.876 -1.6957  1.3350  1.2417
 3213TIP3   OH233833   1.672   0.730   6.918 -0.2902  0.2613  0.1845
 3213TIP3    H133834   1.665   0.795   6.848  0.7345  1.7490  1.3893
 3213TIP3    H233835   1.583   0.697   6.929 -1.1883  2.5551  0.4738
 3214TIP3   OH233836   1.089   5.563   7.943  0.4435 -0.0476 -0.3831
 3214TIP3    H133837   1.105   5.599   7.856  1.2783  0.9773  0.1723
 3214TIP3    H233838   1.147   5.487   7.949  0.5677  0.0266 -0.6242
 3215TIP3   OH233839   1.256   5.739   7.537 -0.3874 -0.5786 -0.0774
 3215TIP3    H133840   1.180   5.691   7.569 -0.7312 -0.0386 -0.0620
 3215TIP3    H233841   1.236   5.831   7.555 -0.6830 -0.2227 -1.9970
 3216TIP3   OH233842   4.420   7.069   9.838 -0.0252 -0.3246 -0.4445
 3216TIP3    H133843   4.326   7.051   9.831  0.0178 -1.2793  1.0411
 3216TIP3    H233844   4.462   6.985   9.818  0.4133 -0.4412  0.8663
 3217TIP3   OH233845   1.487   0.566   7.250  0.0807 -0.3454  0.2405
 3217TIP3    H133846   1.522   0.503   7.187  0.7448  1.4783 -1.3360
 3217TIP3    H233847   1.550   0.638   7.249 -1.4279  1.0439  0.7718
 3218TIP3   OH233848   4.512   5.260   8.567  0.4088 -0.5797 -0.3108
 3218TIP3    H133849   4.574   5.333   8.554 -0.4298  0.1233 -0.4954
 3218TIP3    H233850   4.529   5.201   8.494  2.7546 -1.8226  1.1393
 3219TIP3   OH233851   1.146   5.950   8.785  0.1571 -0.4949  0.2848
 3219TIP3    H133852   1.179   6.011   8.851  0.3660 -0.2365 -0.0541
 3219TIP3    H233853   1.215   5.948   8.718  0.0137 -0.8674  0.1454
 3220TIP3   OH233854   7.115   3.291   8.766  0.1415 -0.1815 -0.2404
 3220TIP3    H133855   7.092   3.238   8.689  0.5398 -0.3795 -0.2229
 3220TIP3    H233856   7.206   3.316   8.752  0.2638 -0.3524  0.2441
 3221TIP3   OH233857   7.241   2.431   7.851  0.0220  0.1178  0.2889
 3221TIP3    H133858   7.256   2.490   7.925  0.8662  1.7412 -1.0979
 3221TIP3    H233859   7.161   2.465   7.809 -0.1162 -0.4136  0.1145
 3222TIP3   OH233860   7.288   0.419   8.950  0.1077 -0.0541 -0.2824
 3222TIP3    H133861   7.347   0.438   8.878 -1.1620 -1.4237 -1.7524
 3222TIP3    H233862   7.307   0.487   9.015  2.2500  0.3952 -1.2897
 3223TIP3   OH233863   0.702   4.710   8.593  0.5013  0.5008  0.3185
 3223TIP3    H133864   0.724   4.802   8.603 -1.8825  1.0937  0.8302
 3223TIP3    H233865   0.764   4.677   8.528  0.4117  2.8702 -1.0897
 3224TIP3   OH233866   4.299   0.878   7.887 -0.1861  0.2459  0.1549
 3224TIP3    H133867   4.322   0.935   7.960  1.7887  0.6746 -0.7463
 3224TIP3    H233868   4.354   0.801   7.899  0.2404  0.3701 -0.9291
 3225TIP3   OH233869   2.105   3.913   8.447  0.5809 -0.1992  0.4647
 3225TIP3    H133870   2.012   3.901   8.426  0.5823  0.4843  0.0179
 3225TIP3    H233871   2.139   3.825   8.457 -0.3518 -0.4480  1.7022
 3226TIP3   OH233872   4.007   3.443   9.093  0.4295  0.2034 -0.0514
 3226TIP3    H133873   3.968   3.385   9.160 -0.3119  0.4584 -0.2511
 3226TIP3    H233874   3.974   3.530   9.115 -0.0017  0.2588 -0.8752
 3227TIP3   OH233875   0.911   6.777   9.352  0.1987  0.5810 -0.1472
 3227TIP3    H133876   0.918   6.718   9.427  0.7543 -0.2138 -0.8180
 3227TIP3    H233877   0.827   6.755   9.312 -0.1189  1.0359  0.2497
 3228TIP3   OH233878   4.634   4.222   9.575  0.1006 -0.1832  0.3663
 3228TIP3    H133879   4.545   4.242   9.605 -0.7345 -1.6687 -0.9757
 3228TIP3    H233880   4.653   4.287   9.508  0.2951  0.5381  1.1129
 3229TIP3   OH233881   3.742   7.202   7.465 -0.1065 -0.4121 -0.4270
 3229TIP3    H133882   3.670   7.244   7.418 -0.8781 -2.0246 -0.7520
 3229TIP3    H233883   3.714   7.112   7.477  0.8986 -0.5429  1.4563
 3230TIP3   OH233884   1.866   5.526   8.114 -0.2466  0.2707  0.2551
 3230TIP3    H133885   1.960   5.512   8.107 -0.4200 -1.2442  0.4956
 3230TIP3    H233886   1.832   5.500   8.028 -0.6866 -1.8797  1.0188
 3231TIP3   OH233887   3.174   3.325   9.467  0.5268 -0.7171 -0.0365
 3231TIP3    H133888   3.267   3.304   9.454  0.5117 -1.8621  1.4159
 3231TIP3    H233889   3.129   3.241   9.460  0.0309 -0.7495  2.6156
 3232TIP3   OH233890   6.229   5.131   9.420  0.0449 -0.0202 -0.3545
 3232TIP3    H133891   6.312   5.172   9.394 -0.0628  1.0469  0.8795
 3232TIP3    H233892   6.254   5.057   9.475  0.1970  0.6479  0.5007
 3233TIP3   OH233893   1.931   7.320   7.681 -0.0002  0.1752  0.6373
 3233TIP3    H133894   1.879   7.351   7.754 -0.5133 -0.5573  0.5973
 3233TIP3    H233895   1.977   7.398   7.649 -1.2300  0.8923  0.5361
 3234TIP3   OH233896   6.684   1.330   7.904 -0.3971  0.1174 -0.4938
 3234TIP3    H133897   6.644   1.415   7.886  0.6638  1.0321  1.2149
 3234TIP3    H233898   6.699   1.330   7.998  0.7501 -1.4616 -0.6335
 3235TIP3   OH233899   4.739   7.008   9.320 -0.0786 -0.3340  0.2295
 3235TIP3    H133900   4.748   7.036   9.229  0.0102  1.4983  0.7782
 3235TIP3    H233901   4.645   6.995   9.332  0.0638 -2.8663 -0.7218
 3236TIP3   OH233902   0.561   3.113   8.201  0.0139 -0.9911  0.1454
 3236TIP3    H133903   0.503   3.127   8.126  0.8061 -0.4489 -0.3805
 3236TIP3    H233904   0.505   3.129   8.278 -0.5021 -0.3497 -0.3525
 3237TIP3   OH233905   6.877   0.092   6.919  0.6926 -0.0870 -0.3546
 3237TIP3    H133906   6.834   0.138   6.847 -0.3011 -0.4706 -0.0223
 3237TIP3    H233907   6.832   0.124   6.998 -0.3924 -2.0028 -0.1486
 3238TIP3   OH233908   0.263   3.917   8.839 -0.2263  0.3152  0.0984
 3238TIP3    H133909   0.329   3.854   8.811  0.4956  0.2897  1.7319
 3238TIP3    H233910   0.193   3.864   8.878 -0.0559  0.4620  0.6137
 3239TIP3   OH233911   0.321   3.555   7.035  0.1183 -0.0608  0.1023
 3239TIP3    H133912   0.266   3.493   6.987  0.3326 -0.4590  0.3592
 3239TIP3    H233913   0.308   3.532   7.128 -0.3375  0.7365  0.2455
 3240TIP3   OH233914   3.928   4.534   8.270  0.0278  0.4129 -0.2897
 3240TIP3    H133915   3.924   4.515   8.363  1.4370 -1.2472 -0.5097
 3240TIP3    H233916   3.887   4.619   8.261 -0.6415  0.3605  1.7630
 3241TIP3   OH233917   5.982   5.014   9.772 -0.0004  0.1033  0.4081
 3241TIP3    H133918   6.054   4.963   9.811  0.3922  0.5337  0.2523
 3241TIP3    H233919   5.904   4.963   9.793  0.1023  0.6700  2.3890
 3242TIP3   OH233920   5.213   6.133   9.565  0.1689 -0.3230 -0.0114
 3242TIP3    H133921   5.269   6.068   9.607 -1.0399 -0.7826  0.9287
 3242TIP3    H233922   5.126   6.116   9.600 -0.9959 -0.9291 -2.9045
 3243TIP3   OH233923   1.809   0.648   7.868 -0.0548 -0.5633 -0.6829
 3243TIP3    H133924   1.808   0.590   7.944 -0.0650 -2.1840 -1.8820
 3243TIP3    H233925   1.898   0.685   7.869 -0.5397  0.6865  0.9815
 3244TIP3   OH233926   1.863   1.480   7.769 -0.4523  0.5521  0.5704
 3244TIP3    H133927   1.788   1.424   7.788 -0.3016  0.5893  1.3298
 3244TIP3    H233928   1.918   1.474   7.847  0.4063  0.4155 -0.0257
 3245TIP3   OH233929   0.865   0.037   6.738  0.8701  0.5855 -0.2267
 3245TIP3    H133930   0.851  -0.010   6.656  0.3575 -1.0907  0.7819
 3245TIP3    H233931   0.941   0.094   6.720  0.4614  0.6333 -1.9873
 3246TIP3   OH233932   0.296   6.634   8.031  0.4358  0.1709 -0.3348
 3246TIP3    H133933   0.263   6.682   7.955 -0.4916  0.5624  0.2991
 3246TIP3    H233934   0.273   6.543   8.014  2.0132 -0.0689 -1.4437
 3247TIP3   OH233935   6.726   1.462   9.639 -0.0233  0.0206  0.1957
 3247TIP3    H133936   6.732   1.460   9.735 -0.9519 -1.2110  0.2481
 3247TIP3    H233937   6.647   1.513   9.621  0.0138  0.0406  0.0890
 3248TIP3   OH233938   6.123   0.412   8.533  0.2098  0.0322  0.1184
 3248TIP3    H133939   6.070   0.346   8.488  0.3527  0.0540 -0.0813
 3248TIP3    H233940   6.133   0.482   8.469  1.4073 -0.4488 -0.2424
 3249TIP3   OH233941   1.596   5.912   7.749 -0.1626  0.1300 -0.5335
 3249TIP3    H133942   1.555   5.993   7.720  1.9636  2.0450  1.4324
 3249TIP3    H233943   1.604   5.921   7.844  0.6552 -2.1699 -0.3084
 3250TIP3   OH233944   7.438   5.828   7.967 -0.1997 -0.2708  0.2008
 3250TIP3    H133945   7.402   5.890   8.029  0.0376 -0.1571  0.2240
 3250TIP3    H233946   7.401   5.743   7.993  0.0117 -0.2462  0.5809
 3251TIP3   OH233947   4.513   6.351   8.537  0.2040  0.0625 -0.0989
 3251TIP3    H133948   4.484   6.269   8.577  0.7624 -0.2598 -0.3312
 3251TIP3    H233949   4.440   6.412   8.549  0.1404 -0.1968  0.8848
 3252TIP3   OH233950   5.724   4.729   9.139  0.5351  0.3414 -0.3418
 3252TIP3    H133951   5.710   4.679   9.059 -0.4968  1.1201 -0.6667
 3252TIP3    H233952   5.663   4.692   9.202  1.2329 -0.1640  0.0480
 3253TIP3   OH233953   7.046   3.824   9.402  0.9224  0.1692  0.4000
 3253TIP3    H133954   7.082   3.745   9.362 -4.4761 -1.3896 -2.2908
 3253TIP3    H233955   7.020   3.797   9.490  3.4678  0.6136  1.3973
 3254TIP3   OH233956   0.706   7.031   7.587  0.2655 -1.1254 -0.2016
 3254TIP3    H133957   0.663   7.082   7.656  0.9917  0.6928 -1.0235
 3254TIP3    H233958   0.674   7.069   7.505  1.5489 -1.3530 -0.8383
 3255TIP3   OH233959   7.081   7.431   9.364  0.0234  0.6127  0.2967
 3255TIP3    H133960   7.174   7.427   9.386  0.4012  0.8030 -1.2024
 3255TIP3    H233961   7.057   7.342   9.342 -0.2583  0.4978  1.0228
 3256TIP3   OH233962   5.610   2.282   7.825  0.2369  0.0466  0.4095
 3256TIP3    H133963   5.686   2.230   7.798  0.4278 -0.5943  2.0267
 3256TIP3    H233964   5.538   2.248   7.773  1.2293  1.5715 -2.1446
 3257TIP3   OH233965   0.946   6.175   8.692  0.2840 -0.1209 -0.1648
 3257TIP3    H133966   0.939   6.100   8.633  1.6208 -0.6926  0.3790
 3257TIP3    H233967   1.038   6.201   8.688 -0.0302  1.1107  0.1331
 3258TIP3   OH233968   4.049   4.749   8.849  0.3936 -0.0681 -0.3062
 3258TIP3    H133969   4.061   4.684   8.781  1.3281 -0.1026 -0.1171
 3258TIP3    H233970   4.109   4.723   8.919  1.1333  1.2260 -0.4126
 3259TIP3   OH233971   0.001   1.051   7.734  0.3509  0.1507  0.1211
 3259TIP3    H133972  -0.068   0.985   7.736  0.7357 -0.5134 -3.3997
 3259TIP3    H233973   0.077   1.006   7.700  1.7911  1.5334  1.3410
 3260TIP3   OH233974   6.796   2.488   7.523 -0.1365 -0.5474 -0.5088
 3260TIP3    H133975   6.714   2.460   7.562 -0.1029  0.0533  0.0101
 3260TIP3    H233976   6.776   2.574   7.485  0.6521  0.3885  1.0959
 3261TIP3   OH233977   0.318   0.704   9.189 -0.1508 -0.2719 -0.6147
 3261TIP3    H133978   0.379   0.774   9.167  1.8704 -1.0051  2.1172
 3261TIP3    H233979   0.371   0.624   9.187 -2.1177 -1.6215 -2.4826
 3262TIP3   OH233980   4.362   4.827   7.915 -0.0484 -0.1433 -0.1249
 3262TIP3    H133981   4.314   4.898   7.958 -1.6115 -1.2529  0.0611
 3262TIP3    H233982   4.364   4.851   7.823 -0.6316  0.1278 -0.0738
 3263TIP3   OH233983   2.691   3.367   8.166 -0.0573 -0.4700 -0.2661
 3263TIP3    H133984   2.649   3.445   8.130 -0.8838 -1.2199 -0.9411
 3263TIP3    H233985   2.678   3.299   8.100  0.6353 -1.1980  0.3215
 3264TIP3   OH233986   7.478   5.811   9.625 -0.6509 -0.0472 -0.7132
 3264TIP3    H133987   7.465   5.772   9.539  1.6380  0.9034 -1.5458
 3264TIP3    H233988   7.500   5.736   9.681 -1.4230 -0.5739 -1.0894
 3265TIP3   OH233989   1.157   1.883   6.501 -0.1204  0.1912 -1.0742
 3265TIP3    H133990   1.143   1.906   6.409  0.0089 -0.3468 -1.2325
 3265TIP3    H233991   1.228   1.819   6.499  2.9825  3.3124 -0.2524
 3266TIP3   OH233992   1.826   4.019   7.721 -0.5165 -0.3193 -0.0572
 3266TIP3    H133993   1.768   4.061   7.784 -0.2570  1.6334 -1.0242
 3266TIP3    H233994   1.783   4.032   7.637  0.9386  0.5217 -0.7046
 3267TIP3   OH233995   6.804   3.192   7.507 -0.0169  0.3072 -0.5540
 3267TIP3    H133996   6.806   3.260   7.440 -1.9739  2.1314  1.0699
 3267TIP3    H233997   6.873   3.131   7.482  0.6201  1.9225 -3.1034
 3268TIP3   OH233998   1.513   4.049   8.386  0.6752 -0.1220  0.1137
 3268TIP3    H133999   1.444   4.020   8.445 -1.5500  4.6100  0.2591
 3268TIP3    H234000   1.591   4.056   8.442 -0.4335  0.6987  1.6237
 3269TIP3   OH234001   6.311   3.038   8.895  0.0649 -0.7082 -0.2313
 3269TIP3    H134002   6.243   3.025   8.961  0.5242  0.3928  0.4862
 3269TIP3    H234003   6.274   3.104   8.836  0.7447  0.3957  0.5423
 3270TIP3   OH234004   3.115   5.021   9.319 -0.7007  0.5230 -0.1069
 3270TIP3    H134005   3.198   5.066   9.303 -0.3509  0.4995  1.4296
 3270TIP3    H234006   3.051   5.092   9.331 -0.5970  0.5818  0.1194
 3271TIP3   OH234007   1.433   4.254   7.883 -0.1956  0.2918  0.0064
 3271TIP3    H134008   1.348   4.295   7.869 -0.5242 -0.5031 -0.3249
 3271TIP3    H234009   1.425   4.208   7.966  0.7752  2.4116  1.3806
 3272TIP3   OH234010   4.565   0.792   6.900 -0.0648  0.0721  0.2303
 3272TIP3    H134011   4.594   0.827   6.984  1.1590  0.7191 -0.4243
 3272TIP3    H234012   4.640   0.804   6.842 -1.1631  0.4310 -1.1861
 3273TIP3   OH234013   3.431   3.604   8.385 -0.1999  0.6145  0.3978
 3273TIP3    H134014   3.510   3.657   8.378  0.7839 -0.8684 -0.1622
 3273TIP3    H234015   3.427   3.579   8.477  0.2498  0.3127  0.3384
 3274TIP3   OH234016   1.840   2.750   7.908  0.5912  0.0780 -0.6819
 3274TIP3    H134017   1.755   2.705   7.903  1.7048 -2.2326 -0.1048
 3274TIP3    H234018   1.841   2.788   7.996  1.1557 -2.2210  0.3938
 3275TIP3   OH234019   2.152   1.649   8.236  0.0771  0.4583 -0.1803
 3275TIP3    H134020   2.229   1.706   8.239  0.9354 -0.6014 -0.9482
 3275TIP3    H234021   2.162   1.592   8.312  0.1896  0.1597 -0.4168
 3276TIP3   OH234022   3.212   4.157   7.267 -0.7623  0.0248 -0.2669
 3276TIP3    H134023   3.202   4.096   7.195 -0.5607 -0.0840 -0.2018
 3276TIP3    H234024   3.306   4.169   7.277 -0.7503 -0.6502  0.5535
 3277TIP3   OH234025   2.623   2.738   8.065  0.2562 -0.4490 -0.4620
 3277TIP3    H134026   2.708   2.754   8.108  0.5129 -0.4238 -0.9775
 3277TIP3    H234027   2.616   2.808   8.000 -1.8191  1.8075  1.9727
 3278TIP3   OH234028   4.918   1.474   8.175  0.2039 -0.5080 -0.1560
 3278TIP3    H134029   4.917   1.520   8.259  0.3078 -2.2788  0.8389
 3278TIP3    H234030   5.004   1.494   8.138  1.1930 -1.7558  1.3540
 3279TIP3   OH234031   6.516   5.556   8.879  0.2880  0.2135 -0.0857
 3279TIP3    H134032   6.571   5.633   8.863 -0.5143  0.5313 -1.4368
 3279TIP3    H234033   6.449   5.560   8.812 -0.8492 -0.6894  0.9504
 3280TIP3   OH234034   1.862   4.967  10.014  0.4957  0.0141 -0.1679
 3280TIP3    H134035   1.846   4.938  10.104 -0.1886 -1.4664 -0.7289
 3280TIP3    H234036   1.909   5.049  10.023  1.1508 -0.5099  1.5508
 3281TIP3   OH234037   3.368   3.923   8.234 -0.1171  0.0860 -0.4296
 3281TIP3    H134038   3.451   3.967   8.252 -1.0273  1.3803  0.8010
 3281TIP3    H234039   3.364   3.918   8.139 -0.1750  3.1906 -0.7043
 3282TIP3   OH234040   0.333   6.664   9.211 -0.2426 -0.1844 -0.0391
 3282TIP3    H134041   0.354   6.578   9.248 -1.9026 -0.3284  0.6461
 3282TIP3    H234042   0.360   6.658   9.119 -0.3920 -1.4691 -0.0151
 3283TIP3   OH234043   3.882   6.911   8.618 -0.1480 -0.3131  0.0807
 3283TIP3    H134044   3.963   6.899   8.669  0.3181  0.0641 -0.5552
 3283TIP3    H234045   3.910   6.905   8.527 -0.9618 -0.9034 -0.1396
 3284TIP3   OH234046   0.941   2.519   7.249  0.1203  0.0890  0.4221
 3284TIP3    H134047   0.852   2.485   7.244  0.3008 -0.2472 -0.7330
 3284TIP3    H234048   0.930   2.613   7.263 -0.4184  0.0308  0.4156
 3285TIP3   OH234049   4.679   0.836   9.639 -0.2370  0.2114  0.3893
 3285TIP3    H134050   4.642   0.775   9.575  1.3803  1.1888 -1.5979
 3285TIP3    H234051   4.698   0.782   9.716 -0.5221 -1.4219 -0.6478
 3286TIP3   OH234052   6.065   2.247   7.424 -0.1837 -0.1616 -0.5911
 3286TIP3    H134053   6.067   2.332   7.381  0.1511  0.5627  0.7806
 3286TIP3    H234054   6.023   2.188   7.361  0.1537  0.8659 -1.8089
 3287TIP3   OH234055   2.463   4.198   7.327  0.5459  0.1424 -0.6377
 3287TIP3    H134056   2.547   4.220   7.287 -0.3104  0.7313 -2.2544
 3287TIP3    H234057   2.398   4.242   7.271 -0.7786  0.8053  1.3076
 3288TIP3   OH234058   0.742   7.333   9.486  0.1940 -0.9132 -0.3832
 3288TIP3    H134059   0.671   7.272   9.464 -1.4203  1.3710 -2.0484
 3288TIP3    H234060   0.738   7.343   9.581 -0.5473 -2.1777 -0.2679
 3289TIP3   OH234061   4.668   6.705   8.568 -0.5569  0.2770  0.0343
 3289TIP3    H134062   4.729   6.757   8.516  1.9096 -0.2347  2.2634
 3289TIP3    H234063   4.665   6.620   8.523  1.6170 -0.1955  0.7051
 3290TIP3   OH234064   7.251   0.012   7.275 -0.1939  0.4290 -0.1132
 3290TIP3    H134065   7.266  -0.061   7.215  0.4197  1.0997 -0.7897
 3290TIP3    H234066   7.196   0.073   7.225  0.8680  1.2972 -0.2494
 3291TIP3   OH234067   3.719   2.905   7.758  0.5083  0.0667  0.3077
 3291TIP3    H134068   3.644   2.889   7.700  1.4293 -0.9552 -0.6532
 3291TIP3    H234069   3.785   2.841   7.730  0.5729 -1.3297  3.3039
 3292TIP3   OH234070   6.306   0.187   9.826 -0.6506  0.2576 -0.3169
 3292TIP3    H134071   6.211   0.179   9.833 -0.8636  2.2880 -0.3430
 3292TIP3    H234072   6.326   0.272   9.866  1.0472  0.2846 -1.1281
 3293TIP3   OH234073   2.638   2.019   8.284 -0.0281 -0.1305  0.2571
 3293TIP3    H134074   2.576   2.087   8.258 -0.8976 -0.2954  1.7646
 3293TIP3    H234075   2.717   2.037   8.232 -1.0681  0.5286 -1.1677
 3294TIP3   OH234076   6.084   1.561   9.041 -0.0294 -0.5891  0.5499
 3294TIP3    H134077   6.102   1.572   9.134 -2.1358 -1.4221  1.1098
 3294TIP3    H234078   6.154   1.503   9.010  0.8058 -0.1547  1.5500
 3295TIP3   OH234079   3.996   2.153   8.210 -0.5804 -0.1192  0.2961
 3295TIP3    H134080   3.902   2.166   8.198 -0.3304  0.6556 -1.0067
 3295TIP3    H234081   4.030   2.145   8.121  0.9586  2.2645  0.6054
 3296TIP3   OH234082   0.751   5.972   8.841  0.2357  0.1193 -0.0014
 3296TIP3    H134083   0.663   5.955   8.807 -0.8052 -0.3576  2.6599
 3296TIP3    H234084   0.761   6.067   8.832 -0.3556  0.1294 -0.7209
 3297TIP3   OH234085   2.863   6.906   9.708  0.7916 -0.8712  0.1636
 3297TIP3    H134086   2.924   6.840   9.742 -0.1163 -1.2019  1.1965
 3297TIP3    H234087   2.916   6.985   9.699  1.4272 -1.2035  0.8753
 3298TIP3   OH234088   3.740   6.816   9.353 -0.3442 -0.7042 -0.0741
 3298TIP3    H134089   3.687   6.761   9.294 -0.2846  0.3129 -1.1264
 3298TIP3    H234090   3.829   6.808   9.320  0.0317 -1.6387  1.0973
 3299TIP3   OH234091   4.215   0.045   7.994  0.1629  0.0627 -0.4658
 3299TIP3    H134092   4.190  -0.014   7.923 -0.3455 -0.5774  0.2151
 3299TIP3    H234093   4.303   0.017   8.019  0.5636  0.6453 -1.1868
 3300TIP3   OH234094   6.594   7.379   9.800  0.0543  0.6128  0.1748
 3300TIP3    H134095   6.600   7.409   9.891  0.2323  1.5204 -0.1264
 3300TIP3    H234096   6.634   7.449   9.749 -3.4348  2.0009 -0.9759
 3301TIP3   OH234097   7.068   4.451   8.702 -0.8071  0.4854 -0.2313
 3301TIP3    H134098   7.139   4.514   8.710 -1.3440  1.0815 -0.1440
 3301TIP3    H234099   7.090   4.401   8.623  0.4123 -0.2427  0.5276
 3302TIP3   OH234100   0.013   1.322   8.706 -0.0500  0.4530 -0.1239
 3302TIP3    H134101  -0.043   1.319   8.784  0.2984  0.4074  0.1252
 3302TIP3    H234102   0.082   1.258   8.723 -0.6690 -0.4975 -1.0151
 3303TIP3   OH234103   1.225   2.796   8.667  0.2013 -0.0303  1.1473
 3303TIP3    H134104   1.310   2.766   8.634 -0.0563  0.6507 -0.2367
 3303TIP3    H234105   1.225   2.890   8.651 -1.6374 -0.3085 -0.9983
 3304TIP3   OH234106   0.691   1.138   9.618  0.1199 -0.0166 -0.4125
 3304TIP3    H134107   0.662   1.226   9.595  2.3812  0.3410 -2.3093
 3304TIP3    H234108   0.762   1.151   9.681  1.6790 -0.2946 -2.0289
 3305TIP3   OH234109   7.093   7.284   6.961  0.1230  0.2867  0.4813
 3305TIP3    H134110   7.109   7.321   6.874 -1.5944 -2.3752 -1.1134
 3305TIP3    H234111   7.168   7.313   7.013  2.6643 -0.1525 -2.6105
 3306TIP3   OH234112   2.722   0.348   8.521 -0.1445 -0.0444 -0.2646
 3306TIP3    H134113   2.815   0.333   8.506 -0.1956 -0.5775 -0.0617
 3306TIP3    H234114   2.718   0.387   8.608  0.0893  2.3702 -1.2465
 3307TIP3   OH234115   6.512   0.608   8.983 -0.2121  0.1610  0.4109
 3307TIP3    H134116   6.453   0.540   9.016  0.2687 -0.1740  0.5895
 3307TIP3    H234117   6.520   0.670   9.055  0.7033 -0.4830  0.8767
 3308TIP3   OH234118   3.592   4.099   8.210 -1.0711 -0.0316 -0.9659
 3308TIP3    H134119   3.591   4.192   8.234 -0.2975  0.5293 -2.8854
 3308TIP3    H234120   3.563   4.098   8.119 -0.5135 -1.6185 -1.1543
 3309TIP3   OH234121   1.344   7.343   8.554 -0.1828 -0.2379  0.0695
 3309TIP3    H134122   1.396   7.387   8.487  0.7005 -0.6028  0.4997
 3309TIP3    H234123   1.258   7.385   8.549  0.8489  2.1908  1.0279
 3310TIP3   OH234124   3.869   4.128   9.550 -0.3860  0.2614 -0.3746
 3310TIP3    H134125   3.843   4.045   9.590  1.9725 -2.2384 -3.6243
 3310TIP3    H234126   3.805   4.142   9.480 -0.2412  0.7248 -0.4167
 3311TIP3   OH234127   5.808   4.631   8.340  0.0997  0.7556 -0.3143
 3311TIP3    H134128   5.844   4.601   8.257 -1.7856  0.8382 -1.2094
 3311TIP3    H234129   5.784   4.722   8.325  1.2036  1.2737  0.8526
 3312TIP3   OH234130   4.248   6.288   9.501 -0.0631 -0.7370 -0.3342
 3312TIP3    H134131   4.202   6.342   9.565 -0.7920 -1.6429 -0.0864
 3312TIP3    H234132   4.337   6.280   9.535  0.1993  0.6943 -0.6205
 3313TIP3   OH234133   5.973   0.216   8.898  0.0273 -0.2776  0.6832
 3313TIP3    H134134   5.885   0.232   8.864  0.0306  0.1525  0.8681
 3313TIP3    H234135   6.014   0.302   8.898  0.5039 -0.5016  0.4492
 3314TIP3   OH234136   2.693   5.297   9.299  0.2630  0.4808 -0.2054
 3314TIP3    H134137   2.774   5.265   9.337  0.9640  0.9054 -1.2859
 3314TIP3    H234138   2.712   5.307   9.205 -0.8559  1.1319 -0.3906
 3315TIP3   OH234139   3.766   4.391   9.176  0.0746  0.6716 -0.0178
 3315TIP3    H134140   3.830   4.421   9.111  1.3871 -0.9223  0.4791
 3315TIP3    H234141   3.803   4.418   9.260  0.0179 -0.1027  0.2657
 3316TIP3   OH234142   1.427   2.856   9.643  0.3122  0.0321 -0.2002
 3316TIP3    H134143   1.459   2.880   9.556  1.1452  1.2747  0.4317
 3316TIP3    H234144   1.503   2.866   9.700  0.0228 -1.6634  0.5522
 3317TIP3   OH234145   6.243   0.127   7.520  0.2109 -0.2377 -0.3096
 3317TIP3    H134146   6.173   0.099   7.462  1.0170  0.0471 -1.4648
 3317TIP3    H234147   6.264   0.050   7.573 -1.4662 -0.1142  0.6218
 3318TIP3   OH234148   3.749   2.464   7.264  0.0980 -0.0605  0.5347
 3318TIP3    H134149   3.794   2.399   7.317  1.3215 -0.8403 -1.3657
 3318TIP3    H234150   3.811   2.537   7.259  0.8216 -0.7595 -1.3213
 3319TIP3   OH234151   5.116   4.011   7.885  0.1437 -0.9442  0.9736
 3319TIP3    H134152   5.032   3.966   7.874 -0.9419  0.4651  2.8339
 3319TIP3    H234153   5.102   4.069   7.960  1.4499  2.4264 -1.1600
 3320TIP3   OH234154   5.303   1.502   7.488  0.0115  0.2366 -0.1906
 3320TIP3    H134155   5.302   1.538   7.399 -1.7772  0.4644 -0.1333
 3320TIP3    H234156   5.344   1.570   7.541  1.1724  0.0629 -0.8433
 3321TIP3   OH234157   1.916   1.232   7.260  0.1056 -0.0559  0.0446
 3321TIP3    H134158   1.881   1.142   7.263  0.0893 -0.0233  1.2905
 3321TIP3    H234159   1.883   1.267   7.177  0.6334 -1.3969 -0.7776
 3322TIP3   OH234160   5.070   3.603   8.043 -0.2265  0.0375 -0.2418
 3322TIP3    H134161   5.023   3.545   7.983  1.2478 -1.0682 -0.3878
 3322TIP3    H234162   5.034   3.583   8.129 -0.5331 -0.2591 -0.4378
 3323TIP3   OH234163   5.037   4.736   7.673  0.1670 -0.1318 -1.1996
 3323TIP3    H134164   5.103   4.666   7.677 -0.1655 -0.3881  0.3899
 3323TIP3    H234165   5.087   4.813   7.644  1.5552  0.0441  1.3512
 3324TIP3   OH234166   4.237   5.834   8.220 -0.0103  0.6840 -0.2346
 3324TIP3    H134167   4.266   5.877   8.300 -1.6266  1.9888 -0.2899
 3324TIP3    H234168   4.149   5.804   8.240  0.2106 -0.5248 -0.9926
 3325TIP3   OH234169   1.919   4.565   9.582  0.1238 -0.6554  0.3785
 3325TIP3    H134170   1.899   4.502   9.512  2.6476  0.7558 -1.7717
 3325TIP3    H234171   1.971   4.515   9.645  2.2318 -0.8131 -1.3722
 3326TIP3   OH234172   4.311   1.552   7.357  0.2290  0.7177 -0.5104
 3326TIP3    H134173   4.385   1.520   7.408 -0.7278  0.6293  0.8860
 3326TIP3    H234174   4.319   1.508   7.273  0.0675 -1.7311  0.6486
 3327TIP3   OH234175   3.725   1.633   7.413  0.6649  0.2493 -0.0141
 3327TIP3    H134176   3.731   1.702   7.480  0.0400 -1.5664  2.0350
 3327TIP3    H234177   3.791   1.569   7.439  0.5714 -0.3964 -1.2965
 3328TIP3   OH234178   2.462   6.413   8.773  0.0154  0.0989  0.2872
 3328TIP3    H134179   2.420   6.365   8.845  0.9606  0.6763  1.2539
 3328TIP3    H234180   2.553   6.384   8.774  0.1905  0.6020 -0.2582
 3329TIP3   OH234181   5.344   1.644   8.245  0.2058 -0.4950  0.4576
 3329TIP3    H134182   5.314   1.566   8.291  1.2301 -0.7536  0.7163
 3329TIP3    H234183   5.266   1.698   8.236 -0.7231 -1.9361 -0.5407
 3330TIP3   OH234184   6.265   2.720   9.586  0.3078 -0.7544  0.2239
 3330TIP3    H134185   6.240   2.813   9.581 -0.0793 -0.8994 -3.1700
 3330TIP3    H234186   6.181   2.673   9.592  0.4599 -0.9390  1.0101
 3331TIP3   OH234187   1.867   6.690   8.137  0.1551 -0.6002  0.4268
 3331TIP3    H134188   1.776   6.669   8.157  0.8277 -2.7228  1.6147
 3331TIP3    H234189   1.885   6.647   8.054  0.0789 -0.1239  0.1575
 3332TIP3   OH234190   1.656   6.722   7.525 -0.1751  0.1086  0.7160
 3332TIP3    H134191   1.695   6.675   7.599 -1.8294 -1.1699  0.8204
 3332TIP3    H234192   1.567   6.688   7.518  0.7664 -2.2522 -3.8005
 3333TIP3   OH234193   4.686   4.139   8.247  0.6319  0.3300  0.0737
 3333TIP3    H134194   4.640   4.077   8.304 -0.4323  1.5231  0.5687
 3333TIP3    H234195   4.743   4.189   8.306  0.1481  1.0098 -0.0171
 3334TIP3   OH234196   3.207   4.315   7.690 -0.5336  0.4316  0.3917
 3334TIP3    H134197   3.256   4.276   7.762 -0.2173  2.6038  1.4173
 3334TIP3    H234198   3.198   4.244   7.626  2.2028 -0.6174  1.0251
 3335TIP3   OH234199   5.276   6.629   7.765  0.1758 -0.1252  0.3415
 3335TIP3    H134200   5.353   6.573   7.763  1.1459  1.1557  0.5171
 3335TIP3    H234201   5.233   6.607   7.847  0.0588 -1.1985  0.0138
 3336TIP3   OH234202   5.599   6.073   8.787  0.2862  0.2119  0.5334
 3336TIP3    H134203   5.505   6.083   8.806 -0.2484 -0.1486 -1.6852
 3336TIP3    H234204   5.628   6.161   8.764  0.5546  0.3565  1.3966
 3337TIP3   OH234205   2.810   3.616   9.551  0.0520  0.1021 -0.0888
 3337TIP3    H134206   2.897   3.655   9.539 -0.4369  1.2122 -0.1695
 3337TIP3    H234207   2.771   3.618   9.464 -0.4841  0.6912  0.1609
 3338TIP3   OH234208   1.970   5.593   9.027 -0.1322  0.3660 -0.0749
 3338TIP3    H134209   1.910   5.568   8.957 -0.9982  2.0740  0.0019
 3338TIP3    H234210   1.956   5.687   9.037  0.6465  0.3111  1.7749
 3339TIP3   OH234211   0.433   3.766   8.671 -0.0522 -0.3235  0.0067
 3339TIP3    H134212   0.454   3.691   8.727  0.3802 -0.3311 -0.1614
 3339TIP3    H234213   0.511   3.779   8.618 -0.1325  0.2421  0.0223
 3340TIP3   OH234214   3.880   2.692   7.217  0.1285 -0.1135  0.9121
 3340TIP3    H134215   3.903   2.764   7.157 -0.6256  0.6829  1.5530
 3340TIP3    H234216   3.959   2.678   7.269  1.6922 -2.4912 -1.8117
 3341TIP3   OH234217   3.662   4.732   9.756 -0.5139  0.1304 -0.3788
 3341TIP3    H134218   3.756   4.742   9.740 -0.6461  0.0742 -1.1829
 3341TIP3    H234219   3.657   4.669   9.828  0.0801  0.5324  0.0216
 3342TIP3   OH234220   4.756   0.519   7.743 -0.2937 -0.0492 -0.5361
 3342TIP3    H134221   4.682   0.541   7.686 -0.1634 -0.4851 -0.8819
 3342TIP3    H234222   4.773   0.426   7.725  0.0563 -0.0646 -0.1362
 3343TIP3   OH234223   2.320   0.900   9.447 -0.4160  1.0230 -0.0248
 3343TIP3    H134224   2.404   0.946   9.453 -0.7967  1.6716  0.6104
 3343TIP3    H234225   2.326   0.829   9.511  0.1241  0.2537 -0.9111
 3344TIP3   OH234226   3.357   6.096   9.349  0.0638 -0.2248 -0.2605
 3344TIP3    H134227   3.309   6.102   9.267 -0.5117  0.7187  0.1240
 3344TIP3    H234228   3.438   6.050   9.327  0.2069  0.5690 -1.4849
 3345TIP3   OH234229   4.932   2.754   7.076  0.3341 -0.2759  0.3471
 3345TIP3    H134230   4.988   2.724   7.004  0.2796  1.5812 -0.5340
 3345TIP3    H234231   4.847   2.768   7.036  0.1038  0.0584  0.9439
 3346TIP3   OH234232   7.116   3.699   9.130  0.4866  0.1231 -0.6502
 3346TIP3    H134233   7.211   3.691   9.121  0.6022 -0.3677  0.7579
 3346TIP3    H234234   7.081   3.625   9.079  0.9904 -1.1100  0.7011
 3347TIP3   OH234235   4.277   2.699   8.951  0.4918 -0.1582  0.4625
 3347TIP3    H134236   4.190   2.674   8.921  0.3634  0.9088 -0.1323
 3347TIP3    H234237   4.335   2.631   8.918  0.2687  0.6751 -1.7989
 3348TIP3   OH234238   5.069   6.364   9.703  0.1694 -1.0228 -0.1931
 3348TIP3    H134239   5.151   6.365   9.652  0.2382 -0.0376 -0.0754
 3348TIP3    H234240   5.046   6.271   9.708  0.8372 -1.2461 -0.9421
 3349TIP3   OH234241   6.620   3.647   7.397  0.1178 -0.5974 -0.1535
 3349TIP3    H134242   6.552   3.711   7.419  0.2279  0.0627 -1.6594
 3349TIP3    H234243   6.702   3.697   7.399  0.1374 -0.5059 -1.9499
 3350TIP3   OH234244   1.377   6.005   7.131  0.3568 -0.0420  0.3146
 3350TIP3    H134245   1.371   5.909   7.131  1.5071 -0.2027 -2.2089
 3350TIP3    H234246   1.321   6.033   7.203  0.4570 -2.6261  1.5079
 3351TIP3   OH234247   3.586   6.818   9.033  0.4149 -0.5617 -0.1282
 3351TIP3    H134248   3.639   6.793   8.957  1.1030 -0.8777  0.4399
 3351TIP3    H234249   3.500   6.780   9.016  0.6277 -0.8260 -0.6418
 3352TIP3   OH234250   1.938   5.246   7.839  0.0121  0.3855  0.6170
 3352TIP3    H134251   1.997   5.322   7.837 -0.6709  1.0334  2.4400
 3352TIP3    H234252   1.850   5.285   7.845 -0.4611 -0.5585 -0.1323
 3353TIP3   OH234253   1.160   4.311   7.913 -0.0242  0.2601 -0.4355
 3353TIP3    H134254   1.166   4.218   7.937 -0.6899  0.4215  0.4293
 3353TIP3    H234255   1.067   4.324   7.893 -0.0239  0.8396 -0.0780
 3354TIP3   OH234256   4.313   2.938   8.777  0.3800 -0.3107 -0.3393
 3354TIP3    H134257   4.308   3.025   8.819 -1.0650 -0.5738  0.1157
 3354TIP3    H234258   4.301   2.877   8.849 -1.3384 -0.7978 -0.9963
 3355TIP3   OH234259   7.400   2.364   9.001 -0.0430 -0.1091 -0.1904
 3355TIP3    H134260   7.306   2.371   8.983 -0.1447 -0.3181  0.2537
 3355TIP3    H234261   7.432   2.300   8.937 -0.0998  0.3718 -0.7055
 3356TIP3   OH234262   3.353   1.764   9.142 -0.0809  1.2022 -0.5802
 3356TIP3    H134263   3.287   1.804   9.086  0.4320  1.3723 -1.0735
 3356TIP3    H234264   3.306   1.744   9.223 -1.0350  0.2200 -1.3434
 3357TIP3   OH234265   1.545   4.951   9.082  0.1132 -0.6356  0.5714
 3357TIP3    H134266   1.596   4.879   9.045 -0.2708 -0.2477 -0.7613
 3357TIP3    H234267   1.600   5.028   9.071 -0.5198 -0.3027 -0.3870
 3358TIP3   OH234268   4.018   2.756   7.960  0.1307  0.2106 -0.3097
 3358TIP3    H134269   4.076   2.814   8.010  0.7400  0.3225 -1.1255
 3358TIP3    H234270   3.936   2.756   8.010  1.0178 -0.4474  1.1979
 3359TIP3   OH234271   5.304   3.214   8.596 -0.1209 -0.5430  0.2867
 3359TIP3    H134272   5.367   3.232   8.665 -0.3938  0.7494  0.2134
 3359TIP3    H234273   5.283   3.121   8.606  1.1064 -0.7739  0.8705
 3360TIP3   OH234274   0.962   1.761   8.994 -0.1287 -0.5171 -0.0029
 3360TIP3    H134275   1.003   1.745   8.909 -0.1605 -1.4778  0.1517
 3360TIP3    H234276   0.951   1.674   9.032 -0.8452 -0.1536  0.6475
 3361TIP3   OH234277   4.769   4.176   7.473 -0.1513 -0.1408 -0.4623
 3361TIP3    H134278   4.721   4.172   7.556  0.2026 -0.9302 -0.2842
 3361TIP3    H234279   4.805   4.264   7.471 -0.3960 -0.0197  0.0903
 3362TIP3   OH234280   2.539   1.006   8.144 -0.5425  0.1964 -0.1145
 3362TIP3    H134281   2.450   1.000   8.177 -0.0376 -0.1428  1.2693
 3362TIP3    H234282   2.530   1.023   8.051 -2.0449  0.5847  0.0874
 3363TIP3   OH234283   6.284   5.837   7.231  0.0679  0.4878  0.2902
 3363TIP3    H134284   6.276   5.763   7.171 -0.9306  0.8604 -0.0394
 3363TIP3    H234285   6.195   5.852   7.263  0.4981  0.6297  1.4674
 3364TIP3   OH234286   6.609   0.520   8.391  0.2774  0.1590  0.4716
 3364TIP3    H134287   6.551   0.453   8.356  0.2747  0.9921 -1.2326
 3364TIP3    H234288   6.696   0.497   8.358  0.7356 -0.3937  1.9821
 3365TIP3   OH234289   0.117   6.570   8.381  0.0407  0.0448 -0.3175
 3365TIP3    H134290   0.092   6.641   8.321  1.3234  2.1731  1.5191
 3365TIP3    H234291   0.036   6.519   8.392 -0.8870  1.0864 -1.8331
 3366TIP3   OH234292   4.645   3.664   7.277  0.3095  0.2743  0.1943
 3366TIP3    H134293   4.683   3.746   7.307  0.6548 -0.3156  1.4461
 3366TIP3    H234294   4.680   3.651   7.189  3.2886 -0.3585  1.3580
 3367TIP3   OH234295   6.450   5.192   9.036  0.2106  0.2291  0.2339
 3367TIP3    H134296   6.513   5.168   9.104 -0.6980  0.7165  1.2939
 3367TIP3    H234297   6.394   5.115   9.027 -0.5613  0.6655  1.1160
 3368TIP3   OH234298   4.167   6.848   8.736  0.0233  0.6620  0.2519
 3368TIP3    H134299   4.246   6.825   8.686  0.2442 -1.3954  1.4386
 3368TIP3    H234300   4.199   6.867   8.824 -0.6614  1.4858  0.3411
 3369TIP3   OH234301   6.837   2.393   8.346 -0.4134  0.1076  0.2131
 3369TIP3    H134302   6.899   2.447   8.298  1.0556 -0.1804  1.6935
 3369TIP3    H234303   6.829   2.313   8.293 -1.6750  1.2030 -1.3590
 3370TIP3   OH234304   4.236   3.427   9.431  0.5461  0.6343 -0.4232
 3370TIP3    H134305   4.235   3.457   9.340  0.4937  1.3438 -0.1986
 3370TIP3    H234306   4.328   3.437   9.458  0.7144 -0.2995 -0.6232
 3371TIP3   OH234307   4.165   7.029   9.750  0.3361  0.3784 -0.1551
 3371TIP3    H134308   4.139   6.955   9.695 -0.3455  0.7748 -0.3827
 3371TIP3    H234309   4.096   7.034   9.817  1.1997 -0.1530  0.8058
 3372TIP3   OH234310   6.391   2.962   7.103  0.2663  0.3539 -0.4754
 3372TIP3    H134311   6.479   2.996   7.117  1.4327 -1.8723 -1.8474
 3372TIP3    H234312   6.393   2.927   7.014 -1.8526 -0.2713 -0.3290
 3373TIP3   OH234313   3.858   4.513   7.648 -0.1220 -0.4871  0.6532
 3373TIP3    H134314   3.947   4.541   7.625 -0.4599  0.8112  0.8494
 3373TIP3    H234315   3.856   4.420   7.627  0.4814 -0.0188 -1.7804
 3374TIP3   OH234316   4.884   1.254   9.375  0.4143 -0.5663  0.0665
 3374TIP3    H134317   4.921   1.285   9.458  1.6291 -0.5768 -0.4445
 3374TIP3    H234318   4.817   1.318   9.353  1.0092  0.1877  0.3932
 3375TIP3   OH234319   4.675   5.760   9.378 -0.1015 -0.4081  0.3764
 3375TIP3    H134320   4.661   5.841   9.328  0.4570  0.1867  1.1398
 3375TIP3    H234321   4.587   5.737   9.410 -0.5569 -1.1300 -1.3315
 3376TIP3   OH234322   3.345   3.484   8.643 -0.1629 -0.2707 -0.5912
 3376TIP3    H134323   3.400   3.407   8.659 -0.2534 -0.7238 -2.2600
 3376TIP3    H234324   3.265   3.449   8.604 -0.0367  0.6854 -1.7772
 3377TIP3   OH234325   3.910   5.554   9.144 -0.3035  0.0558 -0.0048
 3377TIP3    H134326   3.968   5.481   9.121  0.2071  0.7361 -0.9545
 3377TIP3    H234327   3.824   5.528   9.109 -0.2908 -0.3880  0.2778
 3378TIP3   OH234328   6.889   0.083   6.505 -0.0830 -0.0447  0.7889
 3378TIP3    H134329   6.822   0.096   6.438 -1.5370 -0.9395  1.9986
 3378TIP3    H234330   6.972   0.102   6.461 -0.9539 -0.8949 -1.3220
 3379TIP3   OH234331   3.980   6.803   9.228  0.3225 -0.0010  0.3098
 3379TIP3    H134332   3.974   6.817   9.134 -0.2656 -0.6956  0.2368
 3379TIP3    H234333   4.044   6.868   9.258  0.7875 -0.0159 -0.6178
 3380TIP3   OH234334   2.667   6.284   7.466  0.7130  0.3150 -0.4465
 3380TIP3    H134335   2.737   6.228   7.499 -0.7440 -1.6687 -0.5147
 3380TIP3    H234336   2.684   6.290   7.372  1.4404  0.8571 -0.2880
 3381TIP3   OH234337   7.479   1.724   8.710 -0.0727 -0.0961 -0.6289
 3381TIP3    H134338   7.463   1.714   8.804  3.0707  0.8896  0.1386
 3381TIP3    H234339   7.549   1.661   8.691  0.4150  0.7983 -1.9538
 3382TIP3   OH234340   3.556   0.363   9.558  0.0238 -0.0335  0.0974
 3382TIP3    H134341   3.599   0.358   9.644  1.2131  0.1371 -0.4684
 3382TIP3    H234342   3.547   0.272   9.530  0.0566 -0.0697  0.2045
 3383TIP3   OH234343   3.840   3.062   9.386 -0.6241 -0.0598 -0.5390
 3383TIP3    H134344   3.774   3.016   9.334  0.2040 -0.2817 -1.4358
 3383TIP3    H234345   3.923   3.026   9.355 -0.1114 -1.1313  1.8401
 3384TIP3   OH234346   0.641   6.893   8.805  0.5402  0.6397  0.0228
 3384TIP3    H134347   0.734   6.903   8.785  0.4140  1.6872 -0.0908
 3384TIP3    H234348   0.625   6.799   8.796  1.7823  0.3140  0.9311
 3385TIP3   OH234349   3.126   2.250   9.393 -0.0776 -0.1720  0.0534
 3385TIP3    H134350   3.139   2.267   9.486  1.2814  1.1936 -0.3512
 3385TIP3    H234351   3.156   2.160   9.381 -0.4706 -0.4327  0.9647
 3386TIP3   OH234352   5.949   0.848   8.260  0.0047  0.5342 -0.1447
 3386TIP3    H134353   5.919   0.924   8.310 -0.2699  0.2632  0.1162
 3386TIP3    H234354   6.033   0.874   8.223  0.4927  0.5561  0.9210
 3387TIP3   OH234355   2.945   3.881   8.332  0.5121  0.0863  0.3567
 3387TIP3    H134356   2.951   3.890   8.237  0.9058  0.3917  0.4057
 3387TIP3    H234357   3.028   3.840   8.357 -0.3456 -1.7326  0.3760
 3388TIP3   OH234358   3.596   2.825   8.265  0.4678 -0.0919 -0.1736
 3388TIP3    H134359   3.576   2.913   8.234 -3.0709 -1.1988 -1.6157
 3388TIP3    H234360   3.628   2.779   8.188  0.4143 -0.5572  0.0773
 3389TIP3   OH234361   0.231   4.321   7.928 -0.3816  0.2967  0.2707
 3389TIP3    H134362   0.148   4.354   7.960 -1.9113 -2.0188 -1.0080
 3389TIP3    H234363   0.285   4.312   8.007 -2.1103 -0.1668  1.4706
 3390TIP3   OH234364   4.940   5.665   9.285  0.4603 -0.1425  0.0776
 3390TIP3    H134365   4.845   5.673   9.285  0.5042  0.5109  0.4517
 3390TIP3    H234366   4.958   5.585   9.335  0.1431  0.6038  1.4407
 3391TIP3   OH234367   0.761   6.184   9.129 -0.1778 -0.6177 -0.0277
 3391TIP3    H134368   0.791   6.237   9.203  0.1953 -0.3555 -0.3629
 3391TIP3    H234369   0.690   6.131   9.165 -0.8095  0.3793  0.2200
 3392TIP3   OH234370   2.971   6.766   9.335 -0.0348  0.3710 -0.1821
 3392TIP3    H134371   2.934   6.691   9.381  0.4700 -0.1783 -0.6489
 3392TIP3    H234372   2.939   6.758   9.245  0.0393  0.6985 -0.2408
 3393TIP3   OH234373   1.401   1.583   7.303  0.0754  0.1460  0.1124
 3393TIP3    H134374   1.374   1.519   7.236  0.8330 -1.3837  1.2115
 3393TIP3    H234375   1.472   1.633   7.261  0.6502 -0.8934 -0.1973
 3394TIP3   OH234376   0.827   3.462   7.576 -0.2673  0.3369  0.0790
 3394TIP3    H134377   0.774   3.389   7.609 -0.2020  0.4735  0.4988
 3394TIP3    H234378   0.861   3.432   7.492  1.3477 -0.9125  1.1083
 3395TIP3   OH234379   5.754   1.031   7.169  0.5873  0.2946  0.1532
 3395TIP3    H134380   5.681   1.028   7.107 -0.4319 -0.3660  1.3266
 3395TIP3    H234381   5.827   0.991   7.123 -0.1369 -0.1519 -0.6262
 3396TIP3   OH234382   5.008   0.412   7.440 -0.3092 -0.4758  0.0686
 3396TIP3    H134383   4.993   0.385   7.349  1.0844 -1.3301  0.0478
 3396TIP3    H234384   4.923   0.406   7.482 -0.6103 -2.0952 -0.6973
 3397TIP3   OH234385   4.373   7.470   9.065  0.4257  0.1601  0.1088
 3397TIP3    H134386   4.374   7.519   8.982 -2.1632 -0.0485 -0.1598
 3397TIP3    H234387   4.396   7.534   9.131  1.9140  0.4955 -0.7006
 3398TIP3   OH234388   5.075   4.733   9.410  0.7081 -0.1681 -0.4329
 3398TIP3    H134389   4.992   4.706   9.370  0.2152 -0.3147  0.6680
 3398TIP3    H234390   5.050   4.794   9.479  1.5764  0.3432 -0.5606
 3399TIP3   OH234391   4.463   0.891   8.121 -0.4941  0.9740  0.0974
 3399TIP3    H134392   4.541   0.852   8.082 -0.5181  1.3517 -0.3312
 3399TIP3    H234393   4.494   0.972   8.161 -0.2684  0.0979  1.7909
 3400TIP3   OH234394   1.765   6.020   7.075 -0.6637 -0.2273  0.0010
 3400TIP3    H134395   1.743   6.062   6.992  1.9223 -0.7077 -1.0254
 3400TIP3    H234396   1.811   5.940   7.050 -0.2794 -0.6572  1.9036
 3401TIP3   OH234397   1.951   2.216   8.467 -0.0697 -0.0355  0.0754
 3401TIP3    H134398   1.977   2.308   8.478  0.2734 -0.0127 -0.8057
 3401TIP3    H234399   2.025   2.176   8.421 -0.3741 -0.6686  0.1266
 3402TIP3   OH234400   0.937   4.288   9.512  0.5306  0.2295  0.0701
 3402TIP3    H134401   0.872   4.271   9.444  0.4919  0.3532  0.0764
 3402TIP3    H234402   0.985   4.364   9.481  0.9010 -0.0715 -0.1015
 3403TIP3   OH234403   4.258   1.984   9.125 -0.3588  0.1480  0.2674
 3403TIP3    H134404   4.190   1.946   9.180  0.1810 -1.4844 -0.1388
 3403TIP3    H234405   4.213   2.016   9.048 -0.7869 -0.0159  0.4486
 3404TIP3   OH234406   4.376   3.016   8.477 -0.2501 -0.1100  0.0440
 3404TIP3    H134407   4.392   2.928   8.511 -0.8577 -0.3988 -0.4011
 3404TIP3    H234408   4.406   3.074   8.546  1.0052 -0.6400 -0.0108
 3405TIP3   OH234409   2.002   1.576   9.211 -0.6929 -0.3448  0.1687
 3405TIP3    H134410   1.944   1.607   9.280 -0.6646  0.0162  0.0315
 3405TIP3    H234411   2.055   1.508   9.253 -0.2862  0.2590  0.6558
 3406TIP3   OH234412   4.642   2.052   9.383 -0.1332  0.3251 -0.1884
 3406TIP3    H134413   4.591   2.066   9.304 -0.4110 -0.6200 -0.1980
 3406TIP3    H234414   4.733   2.064   9.355 -0.2368  0.1066 -0.6373
 3407TIP3   OH234415   7.109   5.024   9.314  0.0413 -0.1804 -0.1445
 3407TIP3    H134416   7.139   4.937   9.338  1.4604  0.4829  0.5974
 3407TIP3    H234417   7.137   5.080   9.387 -0.7835  0.9026 -0.6357
 3408TIP3   OH234418   6.514   5.921   9.271 -0.2222  0.2152 -0.5218
 3408TIP3    H134419   6.445   5.861   9.244 -0.2752  1.4424 -3.5123
 3408TIP3    H234420   6.480   5.963   9.350 -1.7297 -1.0784 -0.4380
 3409TIP3   OH234421   3.032   0.294   9.225 -0.3086  0.1389 -0.1951
 3409TIP3    H134422   3.010   0.255   9.310  1.8588 -1.7164 -0.3979
 3409TIP3    H234423   3.111   0.248   9.197 -1.0239  0.5712 -3.3123
 3410TIP3   OH234424   0.055   3.161   9.134  0.6318  0.2378 -0.0369
 3410TIP3    H134425  -0.020   3.175   9.076 -1.4421  0.8991  2.6523
 3410TIP3    H234426   0.087   3.249   9.153  0.3478  0.1327  0.9620
 3411TIP3   OH234427   2.955   1.315   7.977  0.3331  0.3609 -0.3425
 3411TIP3    H134428   2.961   1.292   8.070  1.9854 -1.2985 -0.8005
 3411TIP3    H234429   2.919   1.237   7.935 -1.5083  1.4981 -0.9997
 3412TIP3   OH234430   2.452   6.498   7.172 -0.2361  0.4754  0.1548
 3412TIP3    H134431   2.444   6.415   7.125 -0.7439 -0.1654  1.3318
 3412TIP3    H234432   2.522   6.545   7.125 -1.6410  0.4863 -2.0820
 3413TIP3   OH234433   1.247   1.764   7.795  0.3819 -0.6611 -0.1540
 3413TIP3    H134434   1.319   1.813   7.756 -0.0121  1.3378  1.5068
 3413TIP3    H234435   1.288   1.715   7.867  0.3349 -0.7564 -0.1920
 3414TIP3   OH234436   3.778   5.139   9.708  0.4963 -0.4600  0.4849
 3414TIP3    H134437   3.762   5.208   9.644  1.0587 -1.0609 -0.3157
 3414TIP3    H234438   3.859   5.097   9.679  0.7968 -0.7138  1.6215
 3415TIP3   OH234439   0.532   3.077   9.486  0.4077 -0.4403 -0.8216
 3415TIP3    H134440   0.567   3.165   9.503 -0.3234 -0.6424  2.2067
 3415TIP3    H234441   0.448   3.093   9.444  1.8103  0.1199 -3.7379
 3416TIP3   OH234442   6.104   6.177   9.097  0.0356 -0.5291  0.1986
 3416TIP3    H134443   6.031   6.117   9.087 -1.0550  0.7042  0.4216
 3416TIP3    H234444   6.073   6.260   9.060  0.5893  0.5634  2.0460
 3417TIP3   OH234445   7.273   6.824   9.080  0.0934 -0.4879  0.0973
 3417TIP3    H134446   7.354   6.773   9.074  0.4907 -0.0739  1.5005
 3417TIP3    H234447   7.207   6.770   9.037  0.8538 -1.4286  0.0844
 3418TIP3   OH234448   2.163   1.745   8.553 -0.3263  0.1443 -0.6008
 3418TIP3    H134449   2.067   1.745   8.555 -0.3275 -0.7787  0.4299
 3418TIP3    H234450   2.187   1.653   8.568  0.7183  0.4989 -0.0082
 3419TIP3   OH234451   2.864   2.090   7.870 -0.5991  0.2440  0.1338
 3419TIP3    H134452   2.935   2.095   7.934 -0.1720  1.7366 -0.4190
 3419TIP3    H234453   2.909   2.080   7.786 -1.1152 -0.5571 -0.0536
 3420TIP3   OH234454   6.637   7.013   8.307  0.0759  0.1752 -0.8487
 3420TIP3    H134455   6.636   7.060   8.390  0.0524  2.0261 -1.8550
 3420TIP3    H234456   6.545   7.008   8.281  0.1676  0.5521 -1.2618
 3421TIP3   OH234457   5.944   2.406   8.039  0.6944  0.6367  0.2004
 3421TIP3    H134458   6.005   2.344   8.077  0.0376 -0.1649 -0.0172
 3421TIP3    H234459   5.936   2.380   7.947  0.1195  0.7986  0.1983
 3422TIP3   OH234460   2.546   1.734   9.284 -0.2003  0.4166 -0.9345
 3422TIP3    H134461   2.539   1.773   9.371 -1.4324 -1.3509 -0.1840
 3422TIP3    H234462   2.474   1.771   9.234 -0.4255  0.2858 -0.7078
 3423TIP3   OH234463   4.799   5.394   8.727  0.4881  0.1856 -0.1645
 3423TIP3    H134464   4.854   5.377   8.802  1.4682 -0.5232 -1.0240
 3423TIP3    H234465   4.820   5.325   8.664 -1.9184 -0.5727 -0.2554
 3424TIP3   OH234466   7.355   2.436   8.152  0.0028  1.1592  0.1895
 3424TIP3    H134467   7.339   2.361   8.094 -1.2117  2.8062 -1.7614
 3424TIP3    H234468   7.383   2.398   8.235  0.1874 -1.3976 -0.9709
 3425TIP3   OH234469   2.159   0.279   8.208  0.8896 -0.4103 -0.1954
 3425TIP3    H134470   2.128   0.367   8.189  1.0807 -0.7710 -2.3727
 3425TIP3    H234471   2.097   0.245   8.273  0.2186  0.9473 -0.1066
 3426TIP3   OH234472   7.407   4.837   8.457 -0.2782 -0.5469  0.1566
 3426TIP3    H134473   7.319   4.865   8.482  0.2140  1.4981 -0.2573
 3426TIP3    H234474   7.461   4.915   8.466  1.0940 -1.2158 -1.6430
 3427TIP3   OH234475   4.057   4.229   8.516  0.2623  0.3869  0.6439
 3427TIP3    H134476   3.987   4.206   8.578 -1.5781 -0.1029 -1.4873
 3427TIP3    H234477   4.138   4.216   8.566 -1.0396 -1.7917  2.4086
 3428TIP3   OH234478   3.335   3.003   7.764 -0.0568  0.1982 -0.4339
 3428TIP3    H134479   3.257   2.951   7.744  0.6256 -0.9328 -0.3148
 3428TIP3    H234480   3.397   2.980   7.694  0.4277  0.4751 -0.1032
 3429TIP3   OH234481   5.777   0.694   8.114  0.3733 -0.5109  0.1076
 3429TIP3    H134482   5.841   0.742   8.166 -0.9394  1.4067  0.0586
 3429TIP3    H234483   5.782   0.734   8.027 -0.7871 -0.3832  0.0786
 3430TIP3   OH234484   3.863   3.968   8.292  0.3064 -0.1089  0.9244
 3430TIP3    H134485   3.795   3.982   8.226 -0.0876 -2.2614  0.8073
 3430TIP3    H234486   3.939   4.016   8.259 -0.1847 -0.3466 -0.6062
 3431TIP3   OH234487   3.416   0.576   7.329  0.5589  0.2006  0.6680
 3431TIP3    H134488   3.424   0.633   7.252 -0.5713 -1.6636 -0.9297
 3431TIP3    H234489   3.505   0.570   7.363  1.4526 -0.2780 -1.5637
 3432TIP3   OH234490   7.136   0.691   8.176  0.7153 -0.4230  0.1353
 3432TIP3    H134491   7.225   0.702   8.208  1.9129 -0.6409 -2.7809
 3432TIP3    H234492   7.127   0.756   8.106 -0.7829 -1.5311 -0.7745
 3433TIP3   OH234493   5.625   2.964   9.061  0.4200 -0.3234  0.2659
 3433TIP3    H134494   5.540   2.933   9.092  0.3094  0.7018  1.0490
 3433TIP3    H234495   5.606   3.009   8.979  0.1553  0.1201  0.5652
 3434TIP3   OH234496   4.886   1.588   8.866  0.1581  0.0853 -0.4337
 3434TIP3    H134497   4.914   1.505   8.828  1.7166  0.6658 -0.6098
 3434TIP3    H234498   4.967   1.634   8.886 -0.6774  1.3696  0.1049
 3435TIP3   OH234499   7.411   4.600   8.339 -0.0195  0.0456 -0.0734
 3435TIP3    H134500   7.401   4.690   8.367  3.8501  0.4162  0.6992
 3435TIP3    H234501   7.385   4.600   8.247 -0.4936  1.8362  0.0375
 3436TIP3   OH234502   4.670   0.716   8.477  0.2223  0.0930 -0.1874
 3436TIP3    H134503   4.623   0.799   8.469 -0.3933 -0.0294  1.6487
 3436TIP3    H234504   4.757   0.741   8.507 -0.0452  0.0887  0.6269
 3437TIP3   OH234505   1.594   3.919   8.742  0.2862 -0.0253 -0.2497
 3437TIP3    H134506   1.526   3.860   8.710  1.1237 -1.3416  0.3597
 3437TIP3    H234507   1.553   4.006   8.740 -2.4684 -1.0702  2.8251
 3438TIP3   OH234508   6.855   6.466   9.307  0.1313 -0.1835  0.2077
 3438TIP3    H134509   6.922   6.496   9.368  0.1055 -0.2831  0.2853
 3438TIP3    H234510   6.879   6.375   9.289  0.5699  0.0602 -0.5098
 3439TIP3   OH234511   2.812   7.123   8.567  0.0312 -0.0326 -0.1975
 3439TIP3    H134512   2.863   7.117   8.486 -1.5138  0.0528 -1.2235
 3439TIP3    H234513   2.764   7.040   8.572 -1.1261  0.5977 -0.2714
 3440TIP3   OH234514   6.279   3.292   9.552  0.1274  0.0493  0.2539
 3440TIP3    H134515   6.265   3.287   9.457 -0.0363 -0.2366  0.2918
 3440TIP3    H234516   6.200   3.333   9.585  1.3080  2.7641 -0.0126
 3441TIP3   OH234517   0.419   3.513   6.592 -0.0679  0.2134  0.2202
 3441TIP3    H134518   0.449   3.599   6.620  0.4417  0.2354 -0.3731
 3441TIP3    H234519   0.473   3.452   6.642  1.9094  0.2447 -1.7193
 3442TIP3   OH234520   5.793   7.331   8.698 -0.0022  0.3752 -0.5728
 3442TIP3    H134521   5.715   7.387   8.692  1.0350  2.0763  0.9667
 3442TIP3    H234522   5.865   7.391   8.713  1.3517 -1.3143 -0.0039
 3443TIP3   OH234523   3.961   1.584   9.617  0.0995  0.3327 -0.2211
 3443TIP3    H134524   3.950   1.500   9.661 -0.9901  0.3717 -0.3905
 3443TIP3    H234525   4.034   1.570   9.556 -1.3305 -1.1196 -1.6979
 3444TIP3   OH234526   3.799   3.887   9.666 -0.3552  0.1198 -0.3156
 3444TIP3    H134527   3.744   3.825   9.714 -0.7550  1.8570  1.5881
 3444TIP3    H234528   3.860   3.831   9.617  2.3221 -2.0330  4.6601
 3445TIP3   OH234529   5.521   5.482   8.860 -0.0969 -0.3765  0.4258
 3445TIP3    H134530   5.589   5.419   8.883  0.3914  0.2243  0.6275
 3445TIP3    H234531   5.450   5.428   8.824  1.0238 -0.8887 -1.1156
 3446TIP3   OH234532   2.374   5.764   6.797 -0.1494 -0.8606 -0.1522
 3446TIP3    H134533   2.464   5.752   6.766  0.0577  1.0843 -0.4257
 3446TIP3    H234534   2.329   5.808   6.725 -0.3309  1.4646  1.2789
 3447TIP3   OH234535   5.583   2.774   8.204 -0.1079  0.1433 -0.5192
 3447TIP3    H134536   5.544   2.813   8.125  0.1551  0.5741 -0.4405
 3447TIP3    H234537   5.582   2.845   8.268 -0.3854 -0.2287 -0.1081
 3448TIP3   OH234538   5.905   1.357   8.253 -0.0967 -0.1782  0.1450
 3448TIP3    H134539   5.877   1.444   8.279 -0.3031 -0.6550  1.5733
 3448TIP3    H234540   5.847   1.334   8.180  0.1477  0.9688 -0.4307
 3449TIP3   OH234541   2.630   3.801   7.510 -0.3438 -0.3373 -0.4955
 3449TIP3    H134542   2.543   3.817   7.472 -0.1154  0.0648 -0.8595
 3449TIP3    H234543   2.641   3.706   7.506 -0.6188 -0.3585 -0.7819
 3450TIP3   OH234544   3.024   6.109   8.003 -0.2912  0.2382  0.2577
 3450TIP3    H134545   2.984   6.164   7.935  2.1059  1.7132 -0.1048
 3450TIP3    H234546   2.955   6.049   8.029 -3.0843  3.2998  0.5563
 3451TIP3   OH234547   3.640   6.228   9.274 -0.2452  0.6011  0.1591
 3451TIP3    H134548   3.608   6.177   9.348 -1.0031  1.9930  0.8249
 3451TIP3    H234549   3.733   6.244   9.295 -0.2587  0.3403  0.4309
 3452TIP3   OH234550   3.362   1.241   7.824 -0.1521 -0.6307 -0.0382
 3452TIP3    H134551   3.432   1.224   7.887 -2.0215 -1.4748  1.9322
 3452TIP3    H234552   3.334   1.154   7.795 -0.4166 -0.3065 -0.7788
 3453TIP3   OH234553   7.274   2.000   7.723  0.3001  0.3646 -0.4080
 3453TIP3    H134554   7.256   2.030   7.634  1.8407  0.5094 -0.7066
 3453TIP3    H234555   7.188   1.980   7.760 -0.3637  0.2670 -1.9316
 3454TIP3   OH234556   2.185   0.070   6.660  0.0823 -0.4761  0.0133
 3454TIP3    H134557   2.219   0.150   6.700  0.5857 -0.5047 -0.3509
 3454TIP3    H234558   2.251   0.003   6.677 -1.3687 -1.4415  2.3513
 3455TIP3   OH234559   6.614   5.866   7.098  0.4729 -0.3224 -0.6446
 3455TIP3    H134560   6.709   5.867   7.083  0.6419  0.3778  0.3349
 3455TIP3    H234561   6.579   5.926   7.032  1.1252  2.2236  1.1550
 3456TIP3   OH234562   6.131   1.503   7.392 -0.3059  0.1820  0.3192
 3456TIP3    H134563   6.105   1.480   7.303 -1.8953  0.7387  0.5998
 3456TIP3    H234564   6.097   1.591   7.405  2.7819  1.4820  0.3845
 3457TIP3   OH234565   2.839   7.103   8.044 -0.9785 -0.0967  0.5180
 3457TIP3    H134566   2.900   7.052   7.992 -0.7182  1.6372 -1.0012
 3457TIP3    H234567   2.752   7.072   8.017 -0.8163 -0.8417  0.8316
 3458TIP3   OH234568   3.326   5.151   7.613 -0.5078 -0.5478  0.1852
 3458TIP3    H134569   3.262   5.208   7.570  0.1164 -1.6937 -2.4591
 3458TIP3    H234570   3.273   5.097   7.672 -1.7564 -0.3724 -0.7290
 3459TIP3   OH234571   5.551   3.062   6.863 -0.1656 -0.5983  0.2647
 3459TIP3    H134572   5.593   2.988   6.907  1.6300 -0.4924 -1.1498
 3459TIP3    H234573   5.602   3.075   6.783  1.2347  3.6414  1.5214
 3460TIP3   OH234574   5.033   3.847   8.834  0.4111  0.5176  0.0018
 3460TIP3    H134575   5.000   3.893   8.911  3.2978 -2.7793  3.6095
 3460TIP3    H234576   5.128   3.861   8.836  0.8258 -1.4819 -1.6246
 3461TIP3   OH234577   0.169   2.795   7.521  0.0860  0.5017 -0.0402
 3461TIP3    H134578   0.084   2.750   7.517  0.4365 -0.0949 -1.0586
 3461TIP3    H234579   0.159   2.859   7.592 -0.6779 -0.6707  0.9537
 3462TIP3   OH234580   4.812   7.107   8.842 -0.5037 -0.1455 -0.3609
 3462TIP3    H134581   4.734   7.119   8.789  0.2671  1.7386 -1.1479
 3462TIP3    H234582   4.883   7.143   8.789  0.7316 -0.7334  0.8259
 3463TIP3   OH234583   0.017   4.993   9.148 -0.3702 -0.2235 -0.1720
 3463TIP3    H134584  -0.012   4.959   9.233 -0.9529 -0.2529 -0.3758
 3463TIP3    H234585   0.112   5.005   9.157 -0.3062 -0.9990  0.2129
 3464TIP3   OH234586   3.928   3.631   8.851 -0.1418  0.1758  0.4852
 3464TIP3    H134587   3.964   3.573   8.918  1.3386  0.3062 -0.1745
 3464TIP3    H234588   3.911   3.574   8.776  1.3433  0.5703 -0.1752
 3465TIP3   OH234589   5.500   3.582   7.944 -0.6326 -0.0821 -0.3667
 3465TIP3    H134590   5.508   3.628   7.861 -0.5861  0.3915 -0.1022
 3465TIP3    H234591   5.576   3.610   7.995 -2.0370  1.7346  0.8413
 3466TIP3   OH234592   3.469   0.780   8.992  0.7936 -0.2945 -0.3788
 3466TIP3    H134593   3.440   0.708   8.936 -0.7558 -0.5895  0.7089
 3466TIP3    H234594   3.463   0.858   8.937 -0.2477 -0.6346 -0.7715
 3467TIP3   OH234595   0.157   4.682   6.782  0.0747 -0.2320  0.2988
 3467TIP3    H134596   0.094   4.693   6.711 -0.0853 -1.3349  0.2535
 3467TIP3    H234597   0.116   4.619   6.841  0.8908 -0.5368  0.5584
 3468TIP3   OH234598   3.063   4.158   7.955 -0.4164 -0.5358  0.3671
 3468TIP3    H134599   3.039   4.133   7.866  0.3261 -1.3399  0.3737
 3468TIP3    H234600   2.991   4.127   8.009  0.4771 -2.8278  0.3737
 3469TIP3   OH234601   4.626   3.861   7.653 -0.1413  0.7153 -0.2142
 3469TIP3    H134602   4.543   3.882   7.696  0.0081  0.6400  0.1153
 3469TIP3    H234603   4.633   3.766   7.658  1.0216  0.8438  1.7922
 3470TIP3   OH234604   2.682   6.345   9.045 -0.2552  0.0849 -0.2310
 3470TIP3    H134605   2.746   6.393   8.992  1.7688 -0.1709  1.7783
 3470TIP3    H234606   2.724   6.337   9.131 -1.6359 -2.9084  0.3130
 3471TIP3   OH234607   5.935   4.680   9.845  0.0262 -0.0499 -0.3553
 3471TIP3    H134608   5.914   4.591   9.816  0.8636 -0.0028 -1.1496
 3471TIP3    H234609   5.883   4.692   9.925  0.5032 -1.5499  0.2182
 3472TIP3   OH234610   0.530   1.888   7.493  0.0065  0.1475 -0.2227
 3472TIP3    H134611   0.543   1.916   7.402  0.4239  0.9246  0.0655
 3472TIP3    H234612   0.562   1.962   7.546  0.1331 -0.4494  0.5566
 3473TIP3   OH234613   6.801   4.508   9.090  0.3186  0.6450 -0.4903
 3473TIP3    H134614   6.840   4.548   9.012 -1.0778 -0.9192 -2.0639
 3473TIP3    H234615   6.877   4.481   9.143  1.4747 -1.4127 -2.9767
 3474TIP3   OH234616   0.691   3.247   7.688 -0.7099  0.2560 -0.1409
 3474TIP3    H134617   0.678   3.179   7.622  0.6648 -0.2457  0.0716
 3474TIP3    H234618   0.618   3.236   7.748 -0.1363 -1.5669  0.3032
 3475TIP3   OH234619   0.093   2.302   6.729 -0.5719  0.4752  0.0449
 3475TIP3    H134620   0.097   2.378   6.787 -0.0769 -0.4629  1.3179
 3475TIP3    H234621   0.024   2.247   6.767 -0.7928  0.2076 -0.7412
 3476TIP3   OH234622   3.289   4.723   8.678 -0.0023  0.4919  0.0185
 3476TIP3    H134623   3.254   4.797   8.727  1.2487  0.5479  0.8557
 3476TIP3    H234624   3.290   4.651   8.741  0.6468  0.2933 -0.2134
 3477TIP3   OH234625   5.718   1.847   9.862 -0.0534  0.1958 -0.1932
 3477TIP3    H134626   5.808   1.878   9.853  1.6996 -4.3744 -1.7906
 3477TIP3    H234627   5.723   1.778   9.929 -2.4519  0.0285 -0.1004
 3478TIP3   OH234628   6.843   7.485   9.015 -0.4873  0.8120  0.0712
 3478TIP3    H134629   6.822   7.509   8.925  0.6996 -0.3187 -0.5540
 3478TIP3    H234630   6.775   7.525   9.068 -0.8562  2.0225 -1.2725
 3479TIP3   OH234631   0.189   3.871   8.214  0.5945 -0.3509 -0.1773
 3479TIP3    H134632   0.179   3.966   8.209  0.6037 -0.3005  0.6928
 3479TIP3    H234633   0.234   3.855   8.297 -0.9603 -1.2165  0.5388
 3480TIP3   OH234634   3.807   5.733   7.301 -0.3431  0.6353 -0.0620
 3480TIP3    H134635   3.860   5.788   7.243 -0.7735 -1.0879 -2.2316
 3480TIP3    H234636   3.743   5.691   7.243  0.0918 -2.2949  1.3806
 3481TIP3   OH234637   2.156   7.078   9.526 -0.6902  0.4186  0.2317
 3481TIP3    H134638   2.139   7.168   9.554 -1.2597  0.2008  0.5930
 3481TIP3    H234639   2.240   7.083   9.481 -1.2993  1.3481 -0.8339
 3482TIP3   OH234640   0.522   0.926   9.623  0.2883 -0.6917 -0.0097
 3482TIP3    H134641   0.588   0.863   9.651  0.5156 -0.7045 -0.5545
 3482TIP3    H234642   0.567   1.011   9.627  0.4866 -0.7461 -0.7934
 3483TIP3   OH234643   2.533   1.579   8.779 -0.1469 -0.0747  0.4140
 3483TIP3    H134644   2.594   1.649   8.758 -1.5449  0.8886 -0.5734
 3483TIP3    H234645   2.501   1.599   8.867 -0.4493  0.4735  0.1830
 3484TIP3   OH234646   2.748   3.474   9.801  0.2888  0.4235 -0.1733
 3484TIP3    H134647   2.778   3.450   9.713  0.9793 -1.4029  0.5197
 3484TIP3    H234648   2.822   3.520   9.839  0.3121  0.4399 -0.2366
 3485TIP3   OH234649   1.650   5.148   8.677 -0.1833 -0.1447 -0.3389
 3485TIP3    H134650   1.679   5.121   8.763  0.6667  1.5250 -0.0663
 3485TIP3    H234651   1.726   5.136   8.620 -0.1155  0.6309 -0.4242
 3486TIP3   OH234652   7.195   4.109   8.027  0.3028 -0.4448 -0.4984
 3486TIP3    H134653   7.247   4.078   8.102 -0.2679 -2.8148 -0.9910
 3486TIP3    H234654   7.259   4.121   7.957  0.6617  0.4638 -0.0292
 3487TIP3   OH234655   5.999   1.913   9.767 -0.4684  0.2474  0.1075
 3487TIP3    H134656   6.093   1.899   9.755 -0.5137 -2.0242  1.7713
 3487TIP3    H234657   5.958   1.848   9.709 -1.0335  0.9000 -0.2418
 3488TIP3   OH234658   0.994   1.211   8.459 -0.0160 -0.0470  0.1349
 3488TIP3    H134659   1.042   1.294   8.464  0.8384 -0.4738 -0.8372
 3488TIP3    H234660   0.979   1.187   8.551  0.4918  0.7366  0.4332
 3489TIP3   OH234661   4.172   3.093   9.162 -0.0698  0.5181 -0.4054
 3489TIP3    H134662   4.243   3.109   9.100  0.3620  1.0450  0.2051
 3489TIP3    H234663   4.199   3.140   9.241  0.2186 -1.5632  0.7853
 3490TIP3   OH234664   3.113   0.198   7.850 -0.3818  0.2581  0.5438
 3490TIP3    H134665   3.025   0.168   7.826 -0.2675  0.6730 -0.4210
 3490TIP3    H234666   3.147   0.129   7.907 -2.0659  1.0101  2.5872
 3491TIP3   OH234667   6.271   4.975   8.981 -0.1033 -0.1478  0.5254
 3491TIP3    H134668   6.228   4.901   9.023 -0.5087  0.0797  0.5086
 3491TIP3    H234669   6.333   4.935   8.920  2.5276 -0.5895  3.2251
 3492TIP3   OH234670   0.022   4.483   8.056  0.5938  0.6363  0.1782
 3492TIP3    H134671  -0.064   4.480   8.014 -0.2867  0.1377  1.9094
 3492TIP3    H234672   0.013   4.426   8.133  2.0921  1.5178  1.0592
 3493TIP3   OH234673   1.365   1.247   8.473  0.3830  0.0460  0.2903
 3493TIP3    H134674   1.378   1.251   8.379 -2.0499 -2.6087 -0.3012
 3493TIP3    H234675   1.451   1.226   8.508  1.2685  0.7624 -1.3523
 3494TIP3   OH234676   1.800   6.703   7.222  0.4257 -0.1477 -0.1938
 3494TIP3    H134677   1.863   6.664   7.282  0.3414  0.2632  0.1643
 3494TIP3    H234678   1.730   6.637   7.215  1.1461 -0.8591 -1.0462
 3495TIP3   OH234679   1.893   2.070   7.642  0.8537  0.2338  0.2170
 3495TIP3    H134680   1.916   2.131   7.712 -0.4310 -0.2396  1.0902
 3495TIP3    H234681   1.868   1.990   7.688 -2.2430  0.6174 -0.6271
 3496TIP3   OH234682   4.367   4.343   7.749 -0.0107  0.2556 -0.1888
 3496TIP3    H134683   4.391   4.436   7.750  3.4170 -0.4410 -1.9482
 3496TIP3    H234684   4.298   4.336   7.682  1.8373  1.2252 -2.3221
 3497TIP3   OH234685   4.046   0.346   7.568  0.3000  0.1884  0.8490
 3497TIP3    H134686   4.106   0.327   7.640  0.4051  1.1047  1.0186
 3497TIP3    H234687   4.080   0.296   7.494  0.4550 -0.4013  1.3148
 3498TIP3   OH234688   4.308   6.584   9.652 -0.4168  0.1781  0.1420
 3498TIP3    H134689   4.365   6.553   9.722 -0.8985  0.7610  0.8014
 3498TIP3    H234690   4.233   6.525   9.653 -0.8613  0.7317  0.7429
 3499TIP3   OH234691   6.265   2.603   8.464 -0.2654 -0.0870 -0.0724
 3499TIP3    H134692   6.359   2.586   8.465 -0.2910 -0.4250 -1.5546
 3499TIP3    H234693   6.226   2.523   8.430 -1.0932  0.0730  0.4721
 3500TIP3   OH234694   4.163   3.101   8.343  0.2223  0.4620  0.2495
 3500TIP3    H134695   4.141   3.176   8.397  0.7357  1.6878 -1.1642
 3500TIP3    H234696   4.247   3.070   8.377 -0.7320 -0.5242  1.8489
 3501TIP3   OH234697   1.823   6.038   8.218 -0.0988  0.5648  0.0336
 3501TIP3    H134698   1.860   6.017   8.304  0.9108 -2.2791 -1.0052
 3501TIP3    H234699   1.730   6.052   8.234 -0.5043 -2.8175  1.2730
 3502TIP3   OH234700   7.206   1.282   9.140 -0.1775 -0.3189 -0.2417
 3502TIP3    H134701   7.126   1.236   9.115 -0.3883 -0.8268  1.2490
 3502TIP3    H234702   7.255   1.218   9.191  0.0452  0.7434  0.9308
 3503TIP3   OH234703   4.789   3.631   7.052 -0.2040  0.1007 -0.5924
 3503TIP3    H134704   4.704   3.606   7.016  0.1432 -2.7367  0.3201
 3503TIP3    H234705   4.852   3.583   6.998  1.1697  3.8214 -2.7178
 3504TIP3   OH234706   5.494   2.237   9.222  0.0991  0.3186  0.0661
 3504TIP3    H134707   5.559   2.169   9.202  1.9551  1.7818  0.7542
 3504TIP3    H234708   5.531   2.317   9.183 -2.2870  0.8804 -1.2088
 3505TIP3   OH234709   7.060   3.884   7.069 -0.1244  0.1360  0.3647
 3505TIP3    H134710   7.070   3.978   7.054  0.7392 -0.0245 -0.1290
 3505TIP3    H234711   6.994   3.878   7.138 -1.7223  1.0333 -1.0099
 3506TIP3   OH234712   3.372   1.761   9.565 -0.4371  0.2505 -0.7113
 3506TIP3    H134713   3.346   1.679   9.522 -0.7516 -0.0184 -0.0337
 3506TIP3    H234714   3.447   1.793   9.514  0.4390 -1.0686 -0.3024
 3507TIP3   OH234715   1.832   0.973   9.191  0.1106  0.4164 -0.3434
 3507TIP3    H134716   1.911   0.942   9.234  0.2429  0.4001 -0.5923
 3507TIP3    H234717   1.856   0.978   9.098  0.1030  1.3096 -0.3009
 3508TIP3   OH234718   5.415   5.178   9.031 -0.6196 -0.1227  0.1134
 3508TIP3    H134719   5.356   5.103   9.026 -2.4253  1.2713 -0.6694
 3508TIP3    H234720   5.366   5.244   9.081 -0.3960  1.5930 -1.7799
 3509TIP3   OH234721   4.505   7.298   7.814  0.1341  0.0793 -0.0225
 3509TIP3    H134722   4.438   7.248   7.860  0.9614 -0.7442  0.3248
 3509TIP3    H234723   4.537   7.360   7.879  1.6423 -1.4079  0.7286
 3510TIP3   OH234724   4.018   1.220   8.276 -0.2078 -0.1412  0.6582
 3510TIP3    H134725   4.011   1.189   8.366  0.3669 -0.6849  0.5200
 3510TIP3    H234726   4.019   1.316   8.284 -0.3804 -0.1814  1.2088
 3511TIP3   OH234727   4.283   6.823   8.992 -0.5637 -0.1902 -0.2915
 3511TIP3    H134728   4.365   6.836   8.945  0.8223 -3.5383  0.9243
 3511TIP3    H234729   4.293   6.875   9.071 -0.1358  0.3356 -0.6788
 3512TIP3   OH234730   1.294   7.149   8.878  0.6558 -0.5837 -0.5391
 3512TIP3    H134731   1.371   7.131   8.932  0.9140 -0.5253 -0.8804
 3512TIP3    H234732   1.309   7.099   8.798 -0.8086 -2.5641  0.3166
 3513TIP3   OH234733   1.716   0.602   9.485 -0.1607 -0.3351 -0.7376
 3513TIP3    H134734   1.761   0.682   9.513 -0.4257  0.5524 -2.6541
 3513TIP3    H234735   1.652   0.585   9.554 -0.4491  1.4232 -0.5254
 3514TIP3   OH234736   0.336   0.244   9.131  0.5660  0.0103  0.5170
 3514TIP3    H134737   0.415   0.264   9.181  0.9971 -0.6735  0.1201
 3514TIP3    H234738   0.269   0.227   9.198  0.4131  1.8133  0.8645
 3515TIP3   OH234739   4.538   6.559   9.859 -0.3599 -0.4596  0.2897
 3515TIP3    H134740   4.581   6.567   9.944  1.7722 -0.0925 -0.7364
 3515TIP3    H234741   4.581   6.484   9.818  1.2091  1.4270 -1.7724
 3516TIP3   OH234742   1.622   3.581   9.476 -0.0043 -0.0386 -0.1824
 3516TIP3    H134743   1.673   3.543   9.404 -1.0339  1.9326 -2.0605
 3516TIP3    H234744   1.604   3.671   9.448 -1.8782  0.2774  1.7848
 3517TIP3   OH234745   1.361   6.555   9.491 -0.7033  0.5273 -0.3197
 3517TIP3    H134746   1.423   6.531   9.422  0.0487 -0.4144  0.6518
 3517TIP3    H234747   1.276   6.525   9.458 -0.6493  1.6501 -1.5739
 3518TIP3   OH234748   2.623   6.362   8.259  0.3482 -0.2340 -0.0918
 3518TIP3    H134749   2.621   6.275   8.297 -1.3345  0.4886  1.6122
 3518TIP3    H234750   2.674   6.415   8.320  0.2957  0.2634 -0.4667
 3519TIP3   OH234751   5.452   6.204   7.926  0.4670 -0.0234 -0.2338
 3519TIP3    H134752   5.423   6.116   7.947 -0.0874  0.5794  1.7313
 3519TIP3    H234753   5.486   6.239   8.008  1.3072  1.3792 -1.1224
 3520TIP3   OH234754   3.973   5.620   9.651 -0.1934 -0.2853 -0.0564
 3520TIP3    H134755   3.985   5.529   9.681  1.2612 -0.6641 -1.6293
 3520TIP3    H234756   4.003   5.619   9.560 -0.1994  1.7729 -0.1135
 3521TIP3   OH234757   4.872   2.149   8.595 -0.0984 -0.2053 -0.1673
 3521TIP3    H134758   4.955   2.196   8.594  0.9990 -2.0390  0.5215
 3521TIP3    H234759   4.890   2.067   8.550 -2.0709  0.1163 -1.7222
 3522TIP3   OH234760   2.248   5.901   8.499  0.5531 -0.0605 -0.2398
 3522TIP3    H134761   2.208   5.874   8.581  0.8893 -1.8372 -0.6080
 3522TIP3    H234762   2.200   5.852   8.432  0.3918  1.2236 -1.0990
 3523TIP3   OH234763   1.419   7.454   6.673  0.2977 -0.1989  0.1505
 3523TIP3    H134764   1.343   7.500   6.708  1.9853  3.6726 -0.8220
 3523TIP3    H234765   1.492   7.485   6.726  2.1254  1.6280 -3.1610
 3524TIP3   OH234766   1.589   3.029   9.474 -0.3856  0.1651  0.2035
 3524TIP3    H134767   1.566   3.121   9.488 -0.2104  0.5049 -1.4885
 3524TIP3    H234768   1.655   3.010   9.541  0.9337  1.8279 -0.5367
 3525TIP3   OH234769   3.193   3.756   8.366 -0.2834  0.3550 -0.2301
 3525TIP3    H134770   3.253   3.686   8.391 -0.7871 -0.5243 -1.3869
 3525TIP3    H234771   3.246   3.819   8.317 -0.1050  0.0839 -0.3826
 3526TIP3   OH234772   4.099   4.457   8.759  0.7380  0.5082 -0.4698
 3526TIP3    H134773   4.115   4.365   8.782 -2.2213  0.2753  1.1599
 3526TIP3    H234774   4.045   4.453   8.681 -0.4289  0.7835  0.3098
 3527TIP3   OH234775   1.351   7.149   8.201  0.7334  0.8886 -0.5188
 3527TIP3    H134776   1.281   7.205   8.235  0.4208  1.4371 -1.9987
 3527TIP3    H234777   1.306   7.072   8.167  0.8580  1.1266 -1.2381
 3528TIP3   OH234778   4.963   3.001   7.869  0.1505  0.1390  0.1352
 3528TIP3    H134779   4.870   2.991   7.851  0.3800 -0.5070 -0.7614
 3528TIP3    H234780   4.976   3.096   7.873 -0.2115  0.3179 -1.7355
 3529TIP3   OH234781   6.320   4.589   7.821  0.5766 -0.5104  0.1417
 3529TIP3    H134782   6.312   4.551   7.733  1.0013  2.0580 -1.0896
 3529TIP3    H234783   6.290   4.680   7.811  1.0783 -0.0011  2.5723
 3530TIP3   OH234784   0.685   6.611   9.822 -0.6213  0.1037 -0.1678
 3530TIP3    H134785   0.755   6.568   9.872  0.4262  0.1134 -1.5444
 3530TIP3    H234786   0.616   6.545   9.816 -0.0848 -0.4773 -0.0878
 3531TIP3   OH234787   1.589   7.293   8.216  1.0502  0.1617  0.2764
 3531TIP3    H134788   1.519   7.231   8.195  0.8298  0.4232  0.2413
 3531TIP3    H234789   1.614   7.331   8.132  1.9748 -0.7106  0.1421
 3532TIP3   OH234790   4.734   2.520   9.484  0.2482 -0.6688 -0.5365
 3532TIP3    H134791   4.821   2.490   9.458  1.3039  0.6894  1.1692
 3532TIP3    H234792   4.687   2.440   9.506  0.5899 -1.5242 -2.6894
 3533TIP3   OH234793   2.897   3.112   9.295 -0.2477 -0.2912  0.3530
 3533TIP3    H134794   2.891   3.204   9.322 -2.6490 -0.4697  0.6358
 3533TIP3    H234795   2.889   3.063   9.377  1.4685 -0.7900  0.2562
 3534TIP3   OH234796   0.348   5.835   9.642  0.5341  0.1969  0.8213
 3534TIP3    H134797   0.400   5.758   9.619 -0.5974 -0.5620  0.7313
 3534TIP3    H234798   0.379   5.903   9.583  1.0682 -0.3753  0.4288
 3535TIP3   OH234799   5.795   7.213   6.822 -0.0770 -0.1283 -0.5450
 3535TIP3    H134800   5.872   7.169   6.786 -0.8879 -1.3706 -0.8107
 3535TIP3    H234801   5.768   7.274   6.753  0.4306  0.0386 -0.6022
 3536TIP3   OH234802   6.825   3.835   7.289  0.0620 -0.6646 -0.7755
 3536TIP3    H134803   6.798   3.891   7.362  0.8261  0.9505 -1.6589
 3536TIP3    H234804   6.783   3.874   7.212 -0.3495 -2.0470 -1.2663
 3537TIP3   OH234805   4.379   6.483   7.389 -0.2225 -0.2761 -0.2209
 3537TIP3    H134806   4.390   6.543   7.315  0.0609  1.1918  0.9456
 3537TIP3    H234807   4.303   6.430   7.365  0.5867 -0.6835 -2.0717
 3538TIP3   OH234808   6.385   2.552   7.828 -0.0533 -0.2666 -0.8134
 3538TIP3    H134809   6.355   2.466   7.858  0.1093 -0.2915 -0.7203
 3538TIP3    H234810   6.431   2.589   7.904 -1.2219  0.4410 -0.4234
 3539TIP3   OH234811   0.609   0.242   9.265  0.3545  0.3724  0.4075
 3539TIP3    H134812   0.581   0.160   9.307 -0.3105  1.1455  1.5107
 3539TIP3    H234813   0.702   0.228   9.248  0.6842  0.0326  2.2290
 3540TIP3   OH234814   5.219   6.487   8.936 -0.1353 -0.6442  0.4913
 3540TIP3    H134815   5.273   6.564   8.956 -1.4387  0.5307 -0.2919
 3540TIP3    H234816   5.199   6.449   9.021  0.5904 -0.1616  0.8953
 3541TIP3   OH234817   5.442   3.579   8.606  0.1688 -0.0154 -0.0226
 3541TIP3    H134818   5.508   3.565   8.538  0.0428 -2.5300  0.2526
 3541TIP3    H234819   5.492   3.574   8.688 -0.1375 -0.3941  0.1426
 3542TIP3   OH234820   1.950   6.545   8.929  0.3798 -0.3066  0.4986
 3542TIP3    H134821   1.896   6.614   8.891 -0.8458 -1.3415  0.3081
 3542TIP3    H234822   2.032   6.589   8.952 -0.4097  1.2326  0.4913
 3543TIP3   OH234823   3.865   3.643   7.981  0.1927  0.0314  0.1139
 3543TIP3    H134824   3.830   3.730   7.999  1.6769  0.5369  0.6792
 3543TIP3    H234825   3.960   3.654   7.982  0.5353 -2.0332  2.7077
 3544TIP3   OH234826   1.953   1.766   7.451  0.2846  0.6391 -0.3236
 3544TIP3    H134827   1.950   1.674   7.427 -1.8560  0.2501  1.1230
 3544TIP3    H234828   1.981   1.766   7.542 -1.1629  1.2593  0.1516
 3545TIP3   OH234829   4.225   3.967   7.608 -0.1413  0.5048  0.0574
 3545TIP3    H134830   4.237   3.965   7.513  1.3334 -0.2360  0.2263
 3545TIP3    H234831   4.310   3.993   7.643 -0.8511  1.4505  1.1700
 3546TIP3   OH234832   5.749   5.802   7.578 -0.0454  0.1598  0.6621
 3546TIP3    H134833   5.689   5.778   7.649 -0.4079 -0.0164  0.2985
 3546TIP3    H234834   5.749   5.898   7.578  1.1888  0.2038  1.9316
 3547TIP3   OH234835   5.951   1.043   9.441  0.0287  0.5514 -0.2842
 3547TIP3    H134836   5.958   0.957   9.400 -1.2951  0.7597 -0.9648
 3547TIP3    H234837   5.858   1.053   9.462  0.2790  1.5242  0.4507
 3548TIP3   OH234838   2.312   7.132   6.900 -0.5223 -0.0316  0.3333
 3548TIP3    H134839   2.367   7.180   6.963  0.2750 -0.7067  0.1666
 3548TIP3    H234840   2.319   7.183   6.820 -2.4231  1.4550  1.0257
 3549TIP3   OH234841   6.295   3.772   8.898 -0.2839 -0.5748 -0.5374
 3549TIP3    H134842   6.353   3.732   8.963  1.9983  1.0123 -1.4440
 3549TIP3    H234843   6.278   3.860   8.932 -0.8857 -0.4937 -1.0296
 3550TIP3   OH234844   4.389   5.367   8.796 -0.2462  0.1184 -0.5243
 3550TIP3    H134845   4.416   5.318   8.718  1.7153 -0.3784  0.4080
 3550TIP3    H234846   4.316   5.316   8.832 -0.3132 -0.3600 -1.3046
 3551TIP3   OH234847   5.492   3.313   9.559  0.1509 -0.1692 -0.2881
 3551TIP3    H134848   5.414   3.269   9.593 -0.0026  0.0265 -0.3819
 3551TIP3    H234849   5.463   3.403   9.542  0.6952  0.2072  0.7256
 3552TIP3   OH234850   3.621   0.869   7.333 -0.3848 -0.5161  0.2777
 3552TIP3    H134851   3.591   0.870   7.424 -1.2060  0.5936  0.0038
 3552TIP3    H234852   3.545   0.842   7.282  0.5870 -3.2041  0.0388
 3553TIP3   OH234853   2.232   1.162   8.726  0.6077  0.4070 -0.0242
 3553TIP3    H134854   2.266   1.249   8.704  1.5253  0.1336  0.2926
 3553TIP3    H234855   2.137   1.171   8.718  0.7482  1.1462 -1.0672
 3554TIP3   OH234856   1.267   6.244   9.620  0.6148  0.7631 -0.7178
 3554TIP3    H134857   1.293   6.165   9.573 -1.3167  0.4640 -1.3779
 3554TIP3    H234858   1.227   6.299   9.553  0.9233  1.8365 -0.0439
 3555TIP3   OH234859   7.306   4.448   8.524 -0.1753  0.2231 -0.4756
 3555TIP3    H134860   7.348   4.484   8.602 -0.7849  1.2780 -0.6175
 3555TIP3    H234861   7.347   4.494   8.451  0.5422 -0.9118 -0.8057
 3556TIP3   OH234862   6.532   2.575   8.587 -0.1578 -0.1698  0.1441
 3556TIP3    H134863   6.460   2.550   8.644 -0.0486  1.3753  1.0063
 3556TIP3    H234864   6.596   2.505   8.596 -0.7853 -0.6685  0.7593
 3557TIP3   OH234865   0.451   3.431   8.516 -0.4484 -0.0767  0.0525
 3557TIP3    H134866   0.376   3.413   8.573 -1.3707  0.9973 -0.7989
 3557TIP3    H234867   0.524   3.442   8.577 -0.9668 -1.0730  0.8967
 3558TIP3   OH234868   1.884   5.104   8.504 -0.5095  0.0238 -0.3775
 3558TIP3    H134869   1.979   5.102   8.497 -0.3836 -1.9667  0.8953
 3558TIP3    H234870   1.862   5.195   8.523  1.4121  0.0820  2.0029
 3559TIP3   OH234871   2.761   4.429   8.280  0.1156  0.2615 -0.0107
 3559TIP3    H134872   2.843   4.464   8.315 -0.2798  1.5376 -0.2919
 3559TIP3    H234873   2.785   4.389   8.197  0.7116 -0.9005  0.6902
 3560TIP3   OH234874   2.702   5.127   7.634 -0.1482  0.5250 -0.1777
 3560TIP3    H134875   2.779   5.128   7.691 -0.3845  0.3295  0.1507
 3560TIP3    H234876   2.695   5.216   7.601 -0.0518  0.6617  0.1639
 3561TIP3   OH234877   6.988   3.180   8.972  0.3305 -0.1865  0.3171
 3561TIP3    H134878   6.933   3.135   8.909 -0.5376 -1.5277  1.9581
 3561TIP3    H234879   7.042   3.240   8.919 -0.9257 -0.6492 -1.5643
 3562TIP3   OH234880   7.032   2.168   8.151  0.3056 -0.6011 -0.1183
 3562TIP3    H134881   7.100   2.179   8.085  0.5540  0.4738  0.2956
 3562TIP3    H234882   6.951   2.197   8.108  0.3104 -0.7896 -0.2517
 3563TIP3   OH234883   7.371   4.412   6.763  0.0984  0.4439  0.0049
 3563TIP3    H134884   7.419   4.427   6.845 -0.3875 -0.3126  0.4507
 3563TIP3    H234885   7.328   4.495   6.745  0.3476  0.6698  0.4338
 3564TIP3   OH234886   0.870   3.447  10.023 -0.2225  0.8494 -0.0085
 3564TIP3    H134887   0.803   3.380  10.037  0.4605  0.1979  0.2188
 3564TIP3    H234888   0.911   3.459  10.108 -0.6206  1.8775  0.0477
 3565TIP3   OH234889   1.207   3.085   8.581 -0.4735 -0.1342  0.3120
 3565TIP3    H134890   1.112   3.096   8.580 -0.3882  0.5618 -0.7453
 3565TIP3    H234891   1.240   3.162   8.626 -0.2968  0.6623 -1.1382
 3566TIP3   OH234892   0.548   2.214   8.930  0.0742 -0.1174  0.0509
 3566TIP3    H134893   0.572   2.298   8.892  1.5964 -0.3912  0.3262
 3566TIP3    H234894   0.541   2.230   9.024  0.7774 -0.3671  0.1530
 3567TIP3   OH234895   2.947   1.003   8.823 -0.6450 -0.1307 -0.0777
 3567TIP3    H134896   2.967   0.973   8.912  0.2805 -1.7508 -0.7847
 3567TIP3    H234897   2.984   1.091   8.819  0.1798 -0.4091  0.8481
 3568TIP3   OH234898   2.023   5.212   9.994 -0.0361  0.2981 -0.0409
 3568TIP3    H134899   2.089   5.204   9.926 -0.5229 -0.7846 -0.4016
 3568TIP3    H234900   1.977   5.294   9.972  0.2710  0.3301 -0.5952
 3569TIP3   OH234901   5.705   4.135   9.030 -0.1207  0.8790  0.2663
 3569TIP3    H134902   5.701   4.231   9.023 -0.9226  0.7843 -1.0079
 3569TIP3    H234903   5.617   4.110   9.058  0.8867  0.6586  3.6376
 3570TIP3   OH234904   5.743   4.635   8.867 -0.1602  0.3446 -0.0026
 3570TIP3    H134905   5.786   4.719   8.884  0.1242  0.1395  0.2897
 3570TIP3    H234906   5.721   4.639   8.773  2.0294 -0.2284 -0.5946
 3571TIP3   OH234907   6.785   1.010   7.701 -0.5004  0.4587  0.3674
 3571TIP3    H134908   6.777   0.963   7.618  0.1218 -0.3333  0.7362
 3571TIP3    H234909   6.714   0.976   7.755  0.0453 -0.1944  0.6886
 3572TIP3   OH234910   4.995   4.273   7.123  0.3141  0.4232  0.5174
 3572TIP3    H134911   4.970   4.338   7.189 -0.9906 -1.2036  1.6838
 3572TIP3    H234912   4.976   4.317   7.040 -3.5020  0.5625  1.2598
 3573TIP3   OH234913   5.126   4.746   6.959  0.0467 -0.3313  0.5802
 3573TIP3    H134914   5.182   4.818   6.988  1.5618 -0.4687 -1.8188
 3573TIP3    H234915   5.057   4.788   6.907  0.3148 -0.5144  0.0742
 3574TIP3   OH234916   3.900   5.280   8.418  0.6739 -0.5025  0.7960
 3574TIP3    H134917   3.914   5.186   8.432 -0.3250 -0.5142  1.8534
 3574TIP3    H234918   3.910   5.291   8.323  2.0162 -1.4435  0.7851
 3575TIP3   OH234919   7.231   5.703   9.570 -0.0872 -0.5534 -0.1079
 3575TIP3    H134920   7.230   5.754   9.489 -0.3794  0.0332  0.2602
 3575TIP3    H234921   7.303   5.741   9.620 -0.4270 -0.3710  0.2463
 3576TIP3   OH234922   4.246   6.228   7.194 -0.2631  0.0353 -0.0037
 3576TIP3    H134923   4.188   6.277   7.136  0.2528 -0.1771 -0.7257
 3576TIP3    H234924   4.334   6.243   7.157 -0.0892 -1.3732 -0.2091
 3577TIP3   OH234925   4.941   5.709   8.086 -0.6751 -0.6625 -0.4962
 3577TIP3    H134926   4.959   5.685   8.177  1.5870  0.1008 -0.6840
 3577TIP3    H234927   4.931   5.804   8.088 -1.4496 -0.7241 -0.9522
 3578TIP3   OH234928   4.557   7.115   7.497  0.1893 -0.0511  0.7094
 3578TIP3    H134929   4.529   7.201   7.526 -1.0621  0.7610 -2.5121
 3578TIP3    H234930   4.609   7.131   7.419  0.8843 -2.1748  0.6542
 3579TIP3   OH234931   5.188   0.243   7.256 -0.2269 -0.6157 -0.1771
 3579TIP3    H134932   5.171   0.286   7.339  0.0630  1.3396 -1.0876
 3579TIP3    H234933   5.282   0.258   7.239 -0.2609 -1.0644 -0.8156
 3580TIP3   OH234934   4.486   5.348   9.800 -0.1587 -0.0142 -0.4236
 3580TIP3    H134935   4.457   5.390   9.719 -1.2581 -3.2663 -1.8606
 3580TIP3    H234936   4.499   5.421   9.861 -0.6629  2.4575 -3.0514
 3581TIP3   OH234937   4.600   1.043   9.426  0.0621  0.1754  0.4805
 3581TIP3    H134938   4.652   1.004   9.496  0.2240 -0.3383  0.0800
 3581TIP3    H234939   4.647   1.021   9.345  0.6424  1.9533  0.2824
 3582TIP3   OH234940   7.294   6.466   9.198 -0.1703 -0.3626  0.1731
 3582TIP3    H134941   7.208   6.490   9.163 -0.0103 -0.5512 -0.3544
 3582TIP3    H234942   7.314   6.536   9.261 -0.5896 -0.1751  0.1019
 3583TIP3   OH234943   4.414   1.473   7.125 -0.6083 -0.6627 -0.1238
 3583TIP3    H134944   4.403   1.459   7.031 -1.3167  0.4758 -0.2264
 3583TIP3    H234945   4.498   1.518   7.133 -0.9919  0.1182 -0.3247
 3584TIP3   OH234946   5.697   4.174   8.353  0.3755 -0.1693 -0.7365
 3584TIP3    H134947   5.789   4.181   8.328  0.1019  2.4716 -1.3810
 3584TIP3    H234948   5.655   4.247   8.307 -1.6365 -0.0021  1.1939
 3585TIP3   OH234949   6.760   5.462   8.984 -0.2799  0.0439 -0.8731
 3585TIP3    H134950   6.828   5.520   8.950 -1.7474  1.7222 -1.1407
 3585TIP3    H234951   6.678   5.502   8.953 -1.3802 -2.0777 -0.8599
 3586TIP3   OH234952   2.156   1.465   8.444  0.0147  0.1101 -0.7106
 3586TIP3    H134953   2.067   1.429   8.444 -0.7247  1.7616 -2.1096
 3586TIP3    H234954   2.212   1.390   8.427 -1.2147 -0.8188 -0.8109
 3587TIP3   OH234955   5.638   0.768   9.339  0.0381 -0.0842 -0.1465
 3587TIP3    H134956   5.634   0.698   9.404 -0.0180 -0.4259 -0.5152
 3587TIP3    H234957   5.731   0.773   9.316  0.0188 -0.1424 -0.2352
 3588TIP3   OH234958   0.193   3.728   7.982  0.0749  0.3409 -0.4022
 3588TIP3    H134959   0.193   3.772   8.066  0.7182  0.2472 -0.3542
 3588TIP3    H234960   0.244   3.785   7.924  2.4351 -1.1525  0.0988
 3589TIP3   OH234961   4.827   3.236   7.728 -0.2233  0.0518  0.0892
 3589TIP3    H134962   4.843   3.278   7.644  0.3173  2.3202  1.2372
 3589TIP3    H234963   4.737   3.205   7.723 -0.5064  0.9866 -0.9843
 3590TIP3   OH234964   0.121   3.290   7.577  0.4046 -0.0012 -0.2825
 3590TIP3    H134965   0.086   3.203   7.594 -0.7160  0.9966  3.6651
 3590TIP3    H234966   0.043   3.345   7.565  1.0983  0.5055 -3.0783
 3591TIP3   OH234967   3.740   5.328   9.506  0.8061 -0.0285 -0.3773
 3591TIP3    H134968   3.771   5.412   9.473  0.9726  0.0226 -0.0894
 3591TIP3    H234969   3.666   5.306   9.450  0.4122  0.5785 -0.1028
 3592TIP3   OH234970   5.019   6.162   8.708 -0.8278 -0.0950 -0.0690
 3592TIP3    H134971   5.017   6.105   8.784 -0.1970  0.4353  0.3599
 3592TIP3    H234972   4.936   6.210   8.711 -1.4938 -1.1891 -0.6069
 3593TIP3   OH234973   0.750   0.734   7.685 -0.7351 -0.2486  0.2886
 3593TIP3    H134974   0.717   0.689   7.763 -0.6022 -2.8130 -1.0042
 3593TIP3    H234975   0.838   0.761   7.708 -0.5060 -1.4398  0.9024
 3594TIP3   OH234976   2.423   2.970   9.275  0.2295  0.2643  0.0834
 3594TIP3    H134977   2.389   3.054   9.304 -2.1545 -0.7743  0.4906
 3594TIP3    H234978   2.471   2.991   9.195  0.5345  2.1251  0.6993
 3595TIP3   OH234979   1.018   4.392   6.696  0.1204 -0.1831 -0.1872
 3595TIP3    H134980   1.070   4.470   6.674  0.0096  0.3584  1.3458
 3595TIP3    H234981   1.078   4.336   6.744 -0.5777  0.3070  1.3177
 3596TIP3   OH234982   6.134   5.867   7.698  0.1194  0.5231  0.1137
 3596TIP3    H134983   6.061   5.810   7.672 -0.3602  0.2391  1.9638
 3596TIP3    H234984   6.212   5.814   7.685 -0.1734  0.0880  0.1348
 3597TIP3   OH234985   6.834   7.237   7.725  0.6094  0.2168 -0.1727
 3597TIP3    H134986   6.869   7.151   7.747 -2.0814 -0.7433  0.7439
 3597TIP3    H234987   6.818   7.234   7.631 -0.3911 -0.6787  0.0151
 3598TIP3   OH234988   7.031   0.219   9.283  0.7000  0.3349  0.6316
 3598TIP3    H134989   7.048   0.132   9.320 -1.0348 -0.8337 -1.1368
 3598TIP3    H234990   7.103   0.235   9.223  1.7926  0.8025  2.0201
 3599TIP3   OH234991   1.890   3.566   9.117  0.2721 -0.4208  0.5931
 3599TIP3    H134992   1.970   3.581   9.066  0.3635 -1.8201  0.2775
 3599TIP3    H234993   1.831   3.635   9.089  1.1021  0.1681  0.2452
 3600TIP3   OH234994   3.971   7.460   8.633  0.4164  0.1250 -0.0746
 3600TIP3    H134995   3.894   7.515   8.622 -1.5343 -2.0368  1.6726
 3600TIP3    H234996   3.974   7.405   8.555  0.3170  0.3304 -0.2231
 3601TIP3   OH234997   4.184   0.665   8.551 -0.1205  0.6026 -0.3074
 3601TIP3    H134998   4.237   0.739   8.521  0.0969  0.5880  0.0313
 3601TIP3    H234999   4.110   0.706   8.596 -0.5702  0.6290 -1.0502
 3602TIP3   OH235000   3.667   1.724   8.523  0.0827 -0.3904 -0.5200
 3602TIP3    H135001   3.747   1.769   8.548 -0.3594  0.5149 -0.6847
 3602TIP3    H235002   3.616   1.790   8.476  0.2176 -1.5905 -2.4436
 3603TIP3   OH235003   4.998   2.612   8.328 -0.3408  0.0457  0.3362
 3603TIP3    H135004   5.092   2.610   8.310 -0.5122 -1.9267 -0.6917
 3603TIP3    H235005   4.967   2.692   8.286  0.7456  0.2317 -0.1411
 3604TIP3   OH235006   0.148   1.352   9.629  0.1039  0.7630 -0.4992
 3604TIP3    H135007   0.107   1.385   9.550  0.3651  1.8196 -0.2124
 3604TIP3    H235008   0.118   1.261   9.636 -1.3985  1.2134 -0.8051
 3605TIP3   OH235009   5.774   7.490   8.434 -0.3682  0.0871  0.1487
 3605TIP3    H135010   5.678   7.487   8.427 -0.2090 -0.2524 -4.0104
 3605TIP3    H235011   5.802   7.400   8.419  0.6913  0.2111  1.2051
 3606TIP3   OH235012   6.090   3.899   8.034  0.1862 -0.3482 -0.0998
 3606TIP3    H135013   6.178   3.935   8.047  0.1411  0.1452 -1.0445
 3606TIP3    H235014   6.038   3.935   8.105 -0.3308  3.0894 -2.0275
 3607TIP3   OH235015   4.224   2.250   7.638  0.1580  0.6179  0.3414
 3607TIP3    H135016   4.301   2.257   7.694  1.1356  0.3865 -0.9352
 3607TIP3    H235017   4.256   2.268   7.549 -0.9378 -1.0328 -0.4490
 3608TIP3   OH235018   3.023   4.416   9.845 -0.6156  0.0516  0.1432
 3608TIP3    H135019   2.972   4.492   9.870  0.5410  0.7290  0.5144
 3608TIP3    H235020   2.958   4.351   9.817 -1.6095  1.2009 -0.2911
 3609TIP3   OH235021   5.553   5.044   8.310  0.0535 -0.1074 -0.7872
 3609TIP3    H135022   5.606   5.092   8.246  1.7601 -0.5032  0.2781
 3609TIP3    H235023   5.476   5.099   8.323  1.1753  1.5562 -0.8325
 3610TIP3   OH235024   0.507   5.180   8.542  0.0149  0.1940 -0.0036
 3610TIP3    H135025   0.475   5.247   8.602  1.7206  0.1988  0.9344
 3610TIP3    H235026   0.474   5.097   8.578 -0.5640  0.3473 -0.1592
 3611TIP3   OH235027   5.332   0.815   8.511 -0.4132  0.3899 -0.0528
 3611TIP3    H135028   5.402   0.866   8.550 -1.1736  1.4127  0.0263
 3611TIP3    H235029   5.372   0.773   8.435 -0.3818  3.4618 -1.9102
 3612TIP3   OH235030   3.578   1.078   8.905  0.4502 -0.2976  0.1217
 3612TIP3    H135031   3.635   1.025   8.850 -0.5489 -0.3884 -0.8573
 3612TIP3    H235032   3.637   1.119   8.968  1.4471 -1.2460 -0.1645
 3613TIP3   OH235033   7.025   3.443   9.282 -0.2950 -0.3433  0.3394
 3613TIP3    H135034   7.093   3.440   9.350 -0.0340 -2.5969  0.0711
 3613TIP3    H235035   7.067   3.487   9.208  0.5660 -0.8274  0.5166
 3614TIP3   OH235036   3.636   2.377   8.529 -0.3449  0.7525 -0.2437
 3614TIP3    H135037   3.694   2.323   8.475 -0.9226  0.0112 -0.1520
 3614TIP3    H235038   3.646   2.465   8.495  1.4653  0.8030  0.3104
 3615TIP3   OH235039   2.851   4.092   8.109 -0.4990 -0.1046  0.3392
 3615TIP3    H135040   2.811   4.164   8.062 -0.2417  0.7377  1.3626
 3615TIP3    H235041   2.804   4.089   8.193  0.4495 -0.1753  0.8843
 3616TIP3   OH235042   2.512   4.323   8.254  0.1230 -0.5550 -0.0287
 3616TIP3    H135043   2.455   4.395   8.226 -0.1546 -0.5778  0.4529
 3616TIP3    H235044   2.589   4.366   8.290 -0.2778 -0.4727  0.7567
 3617TIP3   OH235045   3.338   6.586   7.731  1.0042 -0.0522 -0.4521
 3617TIP3    H135046   3.358   6.493   7.717  1.4771 -0.1650  0.8365
 3617TIP3    H235047   3.255   6.600   7.686  1.3666 -0.8824 -1.4089
 3618TIP3   OH235048   5.221   4.537   7.707 -0.1509  0.5730 -0.5528
 3618TIP3    H135049   5.276   4.530   7.785 -2.2130 -1.3636  0.8329
 3618TIP3    H235050   5.148   4.478   7.723 -0.8298  0.3254 -3.8650
 3619TIP3   OH235051   2.928   1.180   9.519 -0.2252  0.3288 -0.2147
 3619TIP3    H135052   2.863   1.250   9.522  0.6066  1.1374 -0.5637
 3619TIP3    H235053   2.983   1.194   9.596 -0.1474 -0.0435 -0.1975
 3620TIP3   OH235054   1.729   5.285   7.253 -0.5466 -0.1479  0.0844
 3620TIP3    H135055   1.678   5.208   7.227  1.3396 -1.6527  0.5570
 3620TIP3    H235056   1.780   5.307   7.175  0.0613 -0.3778  0.4085
 3621TIP3   OH235057   4.940   1.909   8.482  0.3347  0.3821  0.1903
 3621TIP3    H135058   4.921   1.863   8.400 -1.4488 -1.1636  1.3841
 3621TIP3    H235059   5.035   1.909   8.488  0.4873  0.1513 -1.6619
 3622TIP3   OH235060   1.369   2.179   8.719 -0.0441 -0.5820 -0.4100
 3622TIP3    H135061   1.461   2.205   8.719 -0.1740  0.3242 -3.4461
 3622TIP3    H235062   1.361   2.120   8.644 -1.8377 -1.0840  0.1255
 3623TIP3   OH235063   6.939   4.205   7.990  0.0768 -0.2818  0.0282
 3623TIP3    H135064   7.028   4.193   8.024  1.0077 -0.2234 -2.2208
 3623TIP3    H235065   6.917   4.295   8.013  1.7349  0.6463 -1.6971
 3624TIP3   OH235066   7.122   4.207   6.955  0.1734  0.6305  0.4344
 3624TIP3    H135067   7.157   4.200   6.866 -0.2669  1.1061  0.2142
 3624TIP3    H235068   7.200   4.211   7.011  0.4868  1.5073 -0.0304
 3625TIP3   OH235069   3.143   0.837   8.675 -0.1589 -0.4624  0.6510
 3625TIP3    H135070   3.133   0.895   8.600 -1.1378 -0.8984  0.4330
 3625TIP3    H235071   3.061   0.844   8.723 -0.9416 -2.7820 -0.1917
 3626TIP3   OH235072   2.933   2.543   8.506 -0.0350  0.0117 -0.5294
 3626TIP3    H135073   2.862   2.556   8.569  0.1212  2.2658 -0.7138
 3626TIP3    H235074   2.895   2.487   8.439 -1.7709  1.3272 -0.7336
 3627TIP3   OH235075   4.489   2.136   7.941 -0.1647  0.0768  0.0085
 3627TIP3    H135076   4.554   2.122   7.872  0.4645 -0.3510  0.6720
 3627TIP3    H235077   4.504   2.226   7.969 -1.9697  1.0983 -1.9552
 3628TIP3   OH235078   6.017   6.202   8.064 -0.5790  0.0942  0.2980
 3628TIP3    H135079   6.017   6.196   7.968  2.9809 -1.5802  0.2150
 3628TIP3    H235080   6.075   6.277   8.082 -0.1243 -0.4366  1.0914
 3629TIP3   OH235081   5.318   0.594   6.968 -0.1098  0.5409  0.4037
 3629TIP3    H135082   5.310   0.688   6.955 -0.5840  0.2868 -1.4767
 3629TIP3    H235083   5.233   0.567   7.001 -0.6423  0.5434 -0.8896
 3630TIP3   OH235084   3.969   6.920   8.315  0.3414 -0.2276 -0.1894
 3630TIP3    H135085   4.060   6.927   8.286  0.2343 -0.7072 -0.6649
 3630TIP3    H235086   3.946   7.009   8.344  1.0182 -0.1508  0.1202
 3631TIP3   OH235087   5.413   2.273   8.360  0.1977 -0.1314  0.6396
 3631TIP3    H135088   5.501   2.251   8.331  0.0407  0.8775 -0.7422
 3631TIP3    H235089   5.418   2.366   8.385 -0.4598 -0.0589  0.5450
 3632TIP3   OH235090   0.722   5.040   7.618  0.7125 -0.2038  0.1356
 3632TIP3    H135091   0.687   5.003   7.537  1.5866  1.4476 -1.0461
 3632TIP3    H235092   0.810   5.070   7.595  0.2766  2.0569  1.1493
 3633TIP3   OH235093   5.734   6.264   8.078  0.0883 -0.1347  0.5458
 3633TIP3    H135094   5.768   6.289   7.992  2.5119  0.7051  1.6365
 3633TIP3    H235095   5.812   6.240   8.128 -1.2754 -0.8860  2.4243
 3634TIP3   OH235096   1.922   6.950   8.227  0.4183  0.5018 -0.7195
 3634TIP3    H135097   1.912   6.861   8.193  1.3251  0.0592  0.1471
 3634TIP3    H235098   2.014   6.971   8.213  0.3700  1.0273 -0.2686
 3635TIP3   OH235099   6.938   5.464   9.443  0.3439 -0.2084  0.5154
 3635TIP3    H135100   6.987   5.535   9.399 -1.7402  1.0220  0.0346
 3635TIP3    H235101   6.932   5.492   9.534  0.8680 -0.5620  0.6609
 3636TIP3   OH235102   5.127   6.447   9.199 -0.4401 -0.1905 -0.4530
 3636TIP3    H135103   5.161   6.379   9.257  0.0938  0.7512  0.3715
 3636TIP3    H235104   5.176   6.526   9.224 -1.4900  0.6369 -0.9488
 3637TIP3   OH235105   6.379   1.783   7.791 -0.2404 -0.4280 -0.4150
 3637TIP3    H135106   6.325   1.773   7.713 -1.3414  1.1582  0.0881
 3637TIP3    H235107   6.431   1.861   7.773 -0.5342 -0.0279  0.4433
 3638TIP3   OH235108   6.672   4.855   8.487 -0.0797 -0.0924 -0.9403
 3638TIP3    H135109   6.613   4.791   8.525  0.2090 -0.5510 -1.2574
 3638TIP3    H235110   6.690   4.917   8.558 -0.2694 -0.4210 -0.6056
 3639TIP3   OH235111   2.184   4.141   9.548  0.4006  0.1409  0.3948
 3639TIP3    H135112   2.204   4.055   9.585  0.0220  0.1745  0.6900
 3639TIP3    H235113   2.196   4.129   9.453  2.0079  0.2341  0.5654
 3640TIP3   OH235114   6.091   1.695   8.202  0.3793  0.0937 -0.1863
 3640TIP3    H135115   6.130   1.659   8.123 -0.0386 -1.7098  0.3671
 3640TIP3    H235116   6.164   1.735   8.249  1.0254 -0.6377 -0.5380
 3641TIP3   OH235117   0.973   2.244   9.420  0.1186 -0.0582 -0.4468
 3641TIP3    H135118   1.007   2.319   9.469 -0.7048 -0.6968  1.1937
 3641TIP3    H235119   0.880   2.263   9.408  0.0316 -0.5348 -0.5401
 3642TIP3   OH235120   0.205   1.456   8.058 -0.0885  0.1455 -0.1793
 3642TIP3    H135121   0.244   1.416   7.981  1.6648  1.9288 -0.3194
 3642TIP3    H235122   0.262   1.531   8.078 -2.9446  2.4242  0.1863
 3643TIP3   OH235123   2.022   0.163   9.287 -0.0338 -0.1069  0.1869
 3643TIP3    H135124   2.083   0.195   9.221  1.2017 -0.1277  1.2802
 3643TIP3    H235125   1.966   0.239   9.306  1.0499  0.5839  0.7162
 3644TIP3   OH235126   3.358   0.343   7.961 -0.3010 -0.2386 -0.0558
 3644TIP3    H135127   3.405   0.415   7.918  0.0919  0.3598  1.3092
 3644TIP3    H235128   3.305   0.387   8.028  0.2544 -1.2402  1.0760
 3645TIP3   OH235129   5.969   0.753   8.706 -0.0914  0.0470  0.2917
 3645TIP3    H135130   5.946   0.703   8.784  0.1994 -0.3883  0.1090
 3645TIP3    H235131   6.056   0.788   8.724 -0.2466  0.3915  0.3723
 3646TIP3   OH235132   2.334   4.311   7.658 -0.3620 -0.5937 -0.3711
 3646TIP3    H135133   2.249   4.347   7.683 -1.8902 -3.1117 -1.5446
 3646TIP3    H235134   2.366   4.269   7.738 -1.2093 -1.3726 -0.4263
 3647TIP3   OH235135   1.902   2.875   7.688  0.3844  0.5426 -0.2369
 3647TIP3    H135136   1.870   2.837   7.770 -0.1070  0.1884 -0.5885
 3647TIP3    H235137   1.916   2.967   7.707 -1.1045  0.7686 -0.1465
 3648TIP3   OH235138   5.204   7.371   8.217 -0.6368  0.1620 -0.2442
 3648TIP3    H135139   5.280   7.313   8.208 -0.1907  0.8893 -1.3779
 3648TIP3    H235140   5.129   7.316   8.198 -0.2994 -0.3095 -0.2209
 3649TIP3   OH235141   1.884   3.530   8.021 -0.1979  0.7294  0.1178
 3649TIP3    H135142   1.925   3.519   8.106  0.7718 -0.1405 -0.4483
 3649TIP3    H235143   1.949   3.578   7.969  0.7026 -1.7344 -1.1631
 3650TIP3   OH235144   0.010   7.031   9.488 -0.5567  0.8699  0.2516
 3650TIP3    H135145   0.054   7.025   9.403 -3.3252 -1.9761 -1.2039
 3650TIP3    H235146   0.026   7.120   9.517  2.0980  1.3976 -2.3160
 3651TIP3   OH235147   6.913   2.495   8.797  0.1910  0.0401  0.0958
 3651TIP3    H135148   6.862   2.417   8.777 -0.5161  0.0127  1.8180
 3651TIP3    H235149   6.941   2.528   8.712 -1.3811 -0.8330 -0.8063
 3652TIP3   OH235150   1.651   5.534   8.630  0.1015 -0.0506  0.3887
 3652TIP3    H135151   1.713   5.607   8.632 -1.9054  1.9979 -2.8569
 3652TIP3    H235152   1.606   5.538   8.714  0.1601  2.4166  0.3682
 3653TIP3   OH235153   5.447   4.540   8.080 -0.4229 -0.6533 -0.3551
 3653TIP3    H135154   5.441   4.467   8.018  0.4893 -1.1424  0.1189
 3653TIP3    H235155   5.408   4.614   8.033  2.7748 -0.2553 -2.6689
 3654TIP3   OH235156   6.296   7.254   7.431  0.1914 -0.5198 -0.7337
 3654TIP3    H135157   6.336   7.170   7.451 -0.0809 -0.3968  0.4148
 3654TIP3    H235158   6.203   7.236   7.426 -0.0869  0.0095  1.4807
 3655TIP3   OH235159   5.435   0.840   7.766 -0.3996 -0.5016  0.2327
 3655TIP3    H135160   5.472   0.752   7.768 -0.2385 -0.4680 -0.7822
 3655TIP3    H235161   5.369   0.837   7.698 -0.1091  0.2714 -0.0962
 3656TIP3   OH235162   2.926   6.474   8.910 -0.4317  0.4721 -0.2355
 3656TIP3    H135163   3.017   6.474   8.941 -0.9351 -0.0231  1.3655
 3656TIP3    H235164   2.886   6.549   8.956 -1.0172  0.2121 -0.3203
 3657TIP3   OH235165   4.232   6.804   7.537 -0.5298  0.2684 -0.3447
 3657TIP3    H135166   4.188   6.851   7.466 -0.3086  0.6680 -0.2198
 3657TIP3    H235167   4.204   6.849   7.616 -0.5292  0.0171 -0.2019
 3658TIP3   OH235168   5.692   3.929   8.833 -0.2528  0.2367 -0.0356
 3658TIP3    H135169   5.627   3.908   8.767 -0.2999  1.2613 -0.3299
 3658TIP3    H235170   5.682   4.023   8.848  0.1714  0.1340  0.9810
 3659TIP3   OH235171   5.156   6.875   7.745 -0.6249  0.6663  0.0389
 3659TIP3    H135172   5.202   6.893   7.827 -0.4433  1.1475 -0.1630
 3659TIP3    H235173   5.170   6.782   7.729  0.0905  0.7590  0.1005
 3660TIP3   OH235174   5.699   7.007   8.746 -0.0603  0.1199 -0.2266
 3660TIP3    H135175   5.777   6.953   8.744 -0.4153 -0.3860 -1.2367
 3660TIP3    H235176   5.722   7.082   8.801  0.1651 -1.4572  1.9199
 3661TIP3   OH235177   1.704   2.529   7.296  0.1623 -0.0827  0.5684
 3661TIP3    H135178   1.779   2.500   7.243 -0.0432 -0.6494  0.5816
 3661TIP3    H235179   1.737   2.603   7.346  1.0191 -0.9762  1.3583
 3662TIP3   OH235180   4.113   1.231   8.864  0.2610 -0.1833 -0.2994
 3662TIP3    H135181   4.077   1.153   8.822 -1.7148  0.1298  0.7352
 3662TIP3    H235182   4.170   1.196   8.933 -0.5960 -0.7190  0.1485
 3663TIP3   OH235183   0.266   3.788   7.229  0.4425 -0.1297  0.2938
 3663TIP3    H135184   0.193   3.768   7.170  0.9707 -1.3282  0.0237
 3663TIP3    H235185   0.276   3.710   7.282  0.9704  0.3626  0.9395
 3664TIP3   OH235186   5.419   0.824   8.056 -0.0597 -0.0354  0.2916
 3664TIP3    H135187   5.333   0.827   8.099  0.2997  3.0335  1.0351
 3664TIP3    H235188   5.400   0.831   7.963 -0.6364  0.9089  0.4720
 3665TIP3   OH235189   4.510   1.406   8.993  0.4010 -0.6567 -0.3365
 3665TIP3    H135190   4.417   1.424   9.009 -0.0081 -2.0534 -1.0061
 3665TIP3    H235191   4.517   1.310   8.999  1.7703 -0.5823 -0.4779
 3666TIP3   OH235192   1.549   0.644   8.889 -0.0158  0.0919  0.2352
 3666TIP3    H135193   1.470   0.598   8.919 -0.8117  1.3958  0.2091
 3666TIP3    H235194   1.564   0.711   8.956  0.4243  0.5685 -0.3309
 3667TIP3   OH235195   7.456   0.939   9.348  0.0101 -0.9599  0.2825
 3667TIP3    H135196   7.498   0.853   9.336  1.1378 -0.2015 -1.6451
 3667TIP3    H235197   7.528   1.001   9.345 -0.6876  0.0485  2.6162
 3668TIP3   OH235198   6.016   0.163   9.747  1.0069  0.0827 -0.2546
 3668TIP3    H135199   5.949   0.113   9.700  0.8755 -0.0600  0.0792
 3668TIP3    H235200   6.012   0.250   9.709 -0.9230  0.7180  1.2448
 3669TIP3   OH235201   0.774   4.144   9.315 -0.0615 -0.0956  0.3086
 3669TIP3    H135202   0.706   4.159   9.381 -0.4256 -0.4523  0.0228
 3669TIP3    H235203   0.749   4.061   9.273  0.9019 -0.5710  0.6322
 3670TIP3   OH235204   3.452   3.755   7.055  0.1210  0.1060  0.3600
 3670TIP3    H135205   3.437   3.664   7.029  0.0506  0.0017  0.7576
 3670TIP3    H235206   3.544   3.770   7.036 -0.2912  0.5515 -1.5017
 3671TIP3   OH235207   4.641   1.407   8.173  0.8805 -0.3247  0.2758
 3671TIP3    H135208   4.725   1.432   8.212  0.0515 -0.1114  1.9895
 3671TIP3    H235209   4.602   1.490   8.145  0.9340 -0.3602  0.0928
 3672TIP3   OH235210   1.912   0.154   8.838 -0.2333  0.3150 -0.2735
 3672TIP3    H135211   1.843   0.148   8.904 -0.4800  1.5044 -0.4071
 3672TIP3    H235212   1.873   0.116   8.759 -0.1200 -0.6152  0.1039
 3673TIP3   OH235213   1.698   7.511   8.553  0.4105  0.1266 -0.7604
 3673TIP3    H135214   1.771   7.510   8.493  1.7944  1.1037  0.8146
 3673TIP3    H235215   1.683   7.419   8.575  1.6262 -0.0427 -0.5965
 3674TIP3   OH235216   7.090   1.373   9.454 -0.5879  0.3140  0.3941
 3674TIP3    H135217   7.043   1.306   9.405 -1.0901 -0.0361  1.3367
 3674TIP3    H235218   7.179   1.339   9.461 -0.5634  0.2677 -0.0723
 3675TIP3   OH235219   7.300   1.730   7.970  0.2179  0.6024  0.1951
 3675TIP3    H135220   7.354   1.671   8.023 -3.5930 -0.4898  3.3529
 3675TIP3    H235221   7.339   1.816   7.982  0.2389  0.2259  4.1360
 3676TIP3   OH235222   6.195   4.799   9.380  0.3482 -0.3167  0.1776
 3676TIP3    H135223   6.223   4.826   9.468  0.0186  1.0515 -0.1139
 3676TIP3    H235224   6.273   4.810   9.326  0.1761  0.1768  0.0305
 3677TIP3   OH235225   2.834   1.751   7.228  0.0870  0.4504  0.1826
 3677TIP3    H135226   2.921   1.774   7.194  0.0892 -0.6721 -0.6297
 3677TIP3    H235227   2.830   1.656   7.219 -1.7191  0.5998 -0.9774
 3678TIP3   OH235228   6.478   5.954   7.962 -0.7590 -0.0683 -0.1374
 3678TIP3    H135229   6.554   5.937   8.017 -0.4287  1.0730 -0.2262
 3678TIP3    H235230   6.474   5.879   7.903 -0.6045 -0.8750  0.8479
 3679TIP3   OH235231   7.256   0.001   7.612  0.0400 -0.3331  0.2267
 3679TIP3    H135232   7.236  -0.022   7.703 -0.6920 -2.7993 -0.4750
 3679TIP3    H235233   7.330   0.061   7.618  0.7112 -1.2827  2.4163
 3680TIP3   OH235234   0.810   4.846   9.163  0.9302 -0.6511 -0.2837
 3680TIP3    H135235   0.898   4.858   9.127  1.7364 -1.0715  1.4221
 3680TIP3    H235236   0.774   4.771   9.114  0.8868  0.4560 -2.0301
 3681TIP3   OH235237   5.682   1.874   7.651  0.1871 -0.0735  0.0034
 3681TIP3    H135238   5.705   1.930   7.577 -0.3416 -0.3714 -0.3915
 3681TIP3    H235239   5.753   1.810   7.656 -0.1593 -0.5213 -0.7318
 3682TIP3   OH235240   0.739   3.352   9.027 -0.3273 -0.4903  0.5554
 3682TIP3    H135241   0.689   3.409   9.085 -1.7026  0.2475 -1.2417
 3682TIP3    H235242   0.672   3.305   8.976  0.7612  0.3071 -1.7442
 3683TIP3   OH235243   3.918   7.491   7.537  0.6983 -0.0040  0.0983
 3683TIP3    H135244   3.924   7.407   7.491 -0.7801  0.3635 -0.8261
 3683TIP3    H235245   3.960   7.554   7.479 -0.6897  0.3657 -0.5457
 3684TIP3   OH235246   2.447   0.080   7.996 -0.4461 -0.0053  0.2245
 3684TIP3    H135247   2.439   0.055   8.088  0.6776 -0.5406  0.1965
 3684TIP3    H235248   2.531   0.044   7.968 -0.7191  0.2267 -0.9922
 3685TIP3   OH235249   5.428   2.777   9.271 -0.2256  0.3912  0.1838
 3685TIP3    H135250   5.440   2.690   9.308  0.3510 -0.1830 -1.2777
 3685TIP3    H235251   5.367   2.764   9.198  0.3617  1.0877 -0.4471
 3686TIP3   OH235252   4.788   6.242   8.970 -0.4046 -0.1863  0.3691
 3686TIP3    H135253   4.811   6.323   9.016 -2.9041 -0.0106  1.4288
 3686TIP3    H235254   4.809   6.172   9.032  0.7821 -0.3312 -0.1564
 3687TIP3   OH235255   6.890   5.048   9.792 -0.1252 -0.3076 -0.2533
 3687TIP3    H135256   6.961   5.112   9.791 -0.5160  0.1215 -0.3919
 3687TIP3    H235257   6.812   5.097   9.766 -1.0323 -0.1218  2.4635
 3688TIP3   OH235258   5.763   2.578   9.399  0.5198  0.2428 -0.0350
 3688TIP3    H135259   5.833   2.536   9.349  1.1312  0.7929  0.3335
 3688TIP3    H235260   5.787   2.671   9.399 -0.8923  0.6388 -0.9948
 3689TIP3   OH235261   7.248   1.309   7.949 -0.8041  0.8270  0.1746
 3689TIP3    H135262   7.196   1.243   7.996  0.6721 -0.1752  0.4800
 3689TIP3    H235263   7.185   1.352   7.891 -1.9812 -0.2831  0.5665
 3690TIP3   OH235264   6.599   5.139   7.147  0.2609  0.4675 -0.6039
 3690TIP3    H135265   6.584   5.045   7.137  1.7592  0.3920 -2.5750
 3690TIP3    H235266   6.533   5.179   7.091 -0.6498  0.6580  0.5560
 3691TIP3   OH235267   6.135   4.922   8.326  0.2052 -0.4949 -0.5724
 3691TIP3    H135268   6.044   4.892   8.325 -0.6301  1.8006  0.1787
 3691TIP3    H235269   6.165   4.904   8.415  0.3404 -0.8186 -0.6813
 3692TIP3   OH235270   5.894   4.879   8.527 -0.1838  0.3628  0.7920
 3692TIP3    H135271   5.979   4.851   8.562  0.1267 -0.2597 -0.3973
 3692TIP3    H235272   5.832   4.813   8.559  0.0978 -0.1974  0.2298
 3693TIP3   OH235273   5.370   0.423   9.483  0.0498  0.3239 -0.1207
 3693TIP3    H135274   5.343   0.424   9.392 -0.5949 -1.0352  0.0299
 3693TIP3    H235275   5.288   0.412   9.532  0.5841 -1.4343  0.4710
 3694TIP3   OH235276   7.344   7.345   6.791  0.2656 -0.1902  0.4225
 3694TIP3    H135277   7.295   7.262   6.790  2.5915 -1.6370 -0.8719
 3694TIP3    H235278   7.304   7.397   6.722  1.3653 -1.9279 -1.6379
 3695TIP3   OH235279   4.191   5.286   8.166  0.5964  0.3101 -0.2406
 3695TIP3    H135280   4.097   5.304   8.166  0.7304  1.0903  0.3774
 3695TIP3    H235281   4.212   5.267   8.258  1.3238  1.8460 -0.0432
 3696TIP3   OH235282   1.882   5.768   7.935 -0.1273 -0.3846 -0.1303
 3696TIP3    H135283   1.859   5.743   8.024  0.3035  1.4446  0.5367
 3696TIP3    H235284   1.883   5.685   7.886 -2.6688 -1.1813  1.0064
 3697TIP3   OH235285   6.500   6.888   7.822  0.0893  0.4828 -0.3642
 3697TIP3    H135286   6.557   6.820   7.785 -1.0228 -1.7301  1.7330
 3697TIP3    H235287   6.428   6.896   7.760  0.7123  0.4748 -1.1054
 3698TIP3   OH235288   0.591   6.382   9.015 -0.3572  0.2741 -0.0113
 3698TIP3    H135289   0.639   6.308   8.979 -2.1411 -0.0274 -1.9240
 3698TIP3    H235290   0.659   6.442   9.047  1.1907 -0.9318 -0.9282
 3699TIP3   OH235291   5.272   3.424   7.959  0.4230 -0.0319 -0.5888
 3699TIP3    H135292   5.357   3.466   7.946  1.2712 -1.1223  1.1010
 3699TIP3    H235293   5.216   3.493   7.995  1.6267 -0.0915  1.5939
 3700TIP3   OH235294   1.463   2.395   7.115  0.3979 -0.1810  0.1562
 3700TIP3    H135295   1.387   2.438   7.077  1.5787  1.8677 -0.0732
 3700TIP3    H235296   1.490   2.331   7.049  0.1851  0.6636 -0.7683
 3701TIP3   OH235297   4.400   2.988   9.327 -0.0845  0.5608 -0.0277
 3701TIP3    H135298   4.310   3.021   9.326 -1.1120 -1.9116 -1.5030
 3701TIP3    H235299   4.417   2.966   9.418 -1.2619  0.4642  0.1858
 3702TIP3   OH235300   2.915   6.381   8.047  0.0355 -0.7078  0.1592
 3702TIP3    H135301   2.838   6.326   8.034 -0.0725 -0.5334  0.0484
 3702TIP3    H235302   2.880   6.461   8.087 -0.2574  0.5164 -2.3982
 3703TIP3   OH235303   0.973   1.678   7.369 -0.0887  0.2715 -0.4018
 3703TIP3    H135304   0.965   1.596   7.320  0.7149 -0.4513  0.6267
 3703TIP3    H235305   0.990   1.651   7.459  1.2343  1.5655 -0.2144
 3704TIP3   OH235306   7.393   0.602   9.112  0.2723  0.0257 -0.4914
 3704TIP3    H135307   7.428   0.594   9.201 -0.0771  0.9450 -0.2522
 3704TIP3    H235308   7.376   0.696   9.102  0.6186 -0.0289 -1.6565
 3705TIP3   OH235309   6.564   6.761   8.505  0.7501  0.4316 -0.0229
 3705TIP3    H135310   6.503   6.687   8.511 -0.6657  1.5143 -0.6105
 3705TIP3    H235311   6.637   6.736   8.562  1.1135 -2.1544 -1.4278
 3706TIP3   OH235312   2.910   2.344   8.760 -0.2540 -0.2865  0.1058
 3706TIP3    H135313   2.885   2.309   8.845  0.4267 -1.2130 -0.0527
 3706TIP3    H235314   2.948   2.269   8.714 -0.8421  0.1314 -1.1084
 3707TIP3   OH235315   6.575   3.651   9.622 -0.0920  0.5165 -0.2590
 3707TIP3    H135316   6.480   3.649   9.611 -0.5103  1.6842  2.4143
 3707TIP3    H235317   6.600   3.558   9.628 -0.9811  0.1858 -1.3164
 3708TIP3   OH235318   6.449   6.690   9.006 -0.0789  0.1808 -0.0442
 3708TIP3    H135319   6.422   6.599   9.009 -0.5810  0.3000 -0.7501
 3708TIP3    H235320   6.430   6.724   9.094 -0.5622 -0.1998 -0.0019
 3709TIP3   OH235321   7.274   4.788   6.972 -0.0677  0.5576  0.1917
 3709TIP3    H135322   7.291   4.830   6.887 -0.6485  0.8088  0.1971
 3709TIP3    H235323   7.278   4.695   6.953 -1.2402  0.6000 -0.3370
 3710TIP3   OH235324   5.859   2.737   8.142 -0.5110 -0.0843  0.2911
 3710TIP3    H135325   5.914   2.746   8.220 -0.0798  0.8639 -0.1062
 3710TIP3    H235326   5.769   2.743   8.175 -0.3181  1.0176  0.6485
 3711TIP3   OH235327   1.390   1.408   7.949 -0.5343  0.2381 -0.1527
 3711TIP3    H135328   1.447   1.410   7.872  0.7975 -0.0097  0.7976
 3711TIP3    H235329   1.309   1.368   7.918  0.5821 -1.4361 -1.0524
 3712TIP3   OH235330   0.089   7.447   8.219  0.2547 -0.1557  0.6776
 3712TIP3    H135331   0.056   7.536   8.236 -1.3391 -0.3525 -1.0794
 3712TIP3    H235332   0.183   7.459   8.206  0.0448  1.3316  0.2702
 3713TIP3   OH235333   1.294   3.042   8.312 -0.2488  0.1073 -0.5046
 3713TIP3    H135334   1.294   3.040   8.408  0.6613 -0.7675 -0.5010
 3713TIP3    H235335   1.237   3.115   8.289 -0.7720  0.0981  0.6998
 3714TIP3   OH235336   1.153   0.520   9.506  0.3129 -0.1134 -0.0119
 3714TIP3    H135337   1.096   0.597   9.508  0.1648  0.0720 -3.9718
 3714TIP3    H235338   1.093   0.447   9.492  0.7598 -0.3191 -0.9328
 3715TIP3   OH235339   6.201   7.357   7.676 -0.3758  0.7795 -0.7046
 3715TIP3    H135340   6.182   7.298   7.749  1.3521  0.5006 -0.4431
 3715TIP3    H235341   6.251   7.303   7.615  0.6124  1.7717 -0.7921
 3716TIP3   OH235342   2.745   4.378   9.010  0.6515 -0.0544 -0.0471
 3716TIP3    H135343   2.709   4.308   9.064 -0.9324 -2.4323 -3.7553
 3716TIP3    H235344   2.840   4.364   9.014  0.4997 -0.9259  1.0764
 3717TIP3   OH235345   2.905   2.104   8.184 -0.1867 -0.1415  0.3610
 3717TIP3    H135346   2.985   2.132   8.139 -1.0237  0.7174 -0.6595
 3717TIP3    H235347   2.910   2.009   8.184  0.9175 -0.0996  0.4734
 3718TIP3   OH235348   3.717   0.599   7.388  0.2923 -0.4227  0.1439
 3718TIP3    H135349   3.795   0.549   7.364  1.0317  0.3294  0.8907
 3718TIP3    H235350   3.739   0.689   7.366  0.7371  0.2113  2.8148
 3719TIP3   OH235351   5.814   6.965   7.103  0.5580  0.5835  0.2137
 3719TIP3    H135352   5.736   7.010   7.070  0.7096 -0.2526 -1.3897
 3719TIP3    H235353   5.885   6.999   7.049  0.7660 -1.0798 -0.6194
 3720TIP3   OH235354   1.928   2.884   8.168  0.0850  0.2334  0.4216
 3720TIP3    H135355   1.982   2.961   8.152  0.9564 -0.2510  0.9336
 3720TIP3    H235356   1.880   2.904   8.248  2.2493 -0.7241  2.0449
 3721TIP3   OH235357   1.909   2.688  10.068  0.0687  0.0699  0.1240
 3721TIP3    H135358   1.993   2.651  10.094 -0.5658 -0.9746  0.7500
 3721TIP3    H235359   1.889   2.643   9.986 -0.0019  0.1234  0.1132
 3722TIP3   OH235360   1.081   2.857   8.327 -0.2072  0.0768  0.4352
 3722TIP3    H135361   1.071   2.857   8.232 -0.5998 -0.9124  0.4608
 3722TIP3    H235362   1.141   2.929   8.345 -0.4675  0.5496 -0.5206
 3723TIP3   OH235363   2.566   4.154   9.635  0.3624 -0.9290  0.7303
 3723TIP3    H135364   2.650   4.199   9.626 -0.7703  1.1524 -0.1477
 3723TIP3    H235365   2.573   4.078   9.577  0.1879  1.6058 -2.9564
 3724TIP3   OH235366   0.317   5.939   8.275  0.1068 -0.2469 -0.4078
 3724TIP3    H135367   0.401   5.896   8.288  0.4120  0.2641 -0.6810
 3724TIP3    H235368   0.256   5.868   8.257  0.2875 -0.7059  0.7464
 3725TIP3   OH235369   6.305   5.625   7.878 -0.2158  0.2054  0.1952
 3725TIP3    H135370   6.211   5.608   7.872 -0.2971 -0.0965  1.8751
 3725TIP3    H235371   6.338   5.607   7.790 -1.8220  1.0076 -0.6146
 3726TIP3   OH235372   7.060   3.955   7.348  0.7868  0.3026  0.5333
 3726TIP3    H135373   7.065   3.970   7.442 -0.9372  0.4369  0.6433
 3726TIP3    H235374   6.984   3.898   7.337  1.2975 -0.1790 -0.7420
 3727TIP3   OH235375   2.493   1.067   7.866 -0.2892 -0.5212 -0.8553
 3727TIP3    H135376   2.500   0.983   7.821  2.9562 -0.4487 -0.7243
 3727TIP3    H235377   2.523   1.131   7.803  1.4817 -0.0526  0.3853
 3728TIP3   OH235378   6.494   3.394   8.742 -0.0995 -0.1747  0.1061
 3728TIP3    H135379   6.466   3.473   8.788  1.0339  1.3484 -1.6457
 3728TIP3    H235380   6.586   3.383   8.765  0.3892  0.4086 -1.4025
 3729TIP3   OH235381   0.798   0.933   8.675 -0.0779 -0.5348 -0.5598
 3729TIP3    H135382   0.778   0.972   8.589 -1.4076 -0.1983 -0.1195
 3729TIP3    H235383   0.861   0.864   8.655  3.0185  2.2161 -1.3296
 3730TIP3   OH235384   7.424   5.608   8.151 -0.4923 -0.0568  0.7141
 3730TIP3    H135385   7.502   5.553   8.147 -1.7621 -1.9309 -2.7655
 3730TIP3    H235386   7.377   5.577   8.229  1.2071 -0.3455  1.6643
 3731TIP3   OH235387   4.615   6.718   9.483  0.4080  0.0250  0.4793
 3731TIP3    H135388   4.552   6.675   9.541  0.1736 -1.2951 -0.6966
 3731TIP3    H235389   4.591   6.810   9.486 -1.1848 -0.3593  0.5591
 3732TIP3   OH235390   1.695   6.339   6.937 -0.0329 -0.0289 -0.4628
 3732TIP3    H135391   1.724   6.416   6.887  0.4870  0.7134  0.9387
 3732TIP3    H235392   1.695   6.268   6.873  0.4539  0.9239 -1.5617
 3733TIP3   OH235393   0.677   2.342   8.190  0.2042 -0.0980 -0.3234
 3733TIP3    H135394   0.638   2.276   8.247  1.6173  0.9701  2.0167
 3733TIP3    H235395   0.715   2.291   8.118 -0.6000 -1.6195  0.2847
 3734TIP3   OH235396   2.832   4.076   9.834 -0.9276  0.5436  0.0174
 3734TIP3    H135397   2.750   4.044   9.797 -0.6950  0.2266 -0.2333
 3734TIP3    H235398   2.807   4.152   9.887 -1.4175  0.2604  0.1953
 3735TIP3   OH235399   3.500   3.069   8.215 -0.0925 -0.2252  0.7041
 3735TIP3    H135400   3.407   3.082   8.193 -0.0350  0.4544  0.8290
 3735TIP3    H235401   3.546   3.131   8.160  0.3309 -0.8621  0.3377
 3736TIP3   OH235402   5.713   6.983   8.007  0.6971 -0.4081  0.3401
 3736TIP3    H135403   5.718   7.054   7.942  2.5641 -0.1975  0.6548
 3736TIP3    H235404   5.680   6.908   7.957 -0.2367  0.3827 -0.2633
 3737TIP3   OH235405   5.621   0.549   9.508 -0.1998 -0.3401 -0.4211
 3737TIP3    H135406   5.648   0.482   9.571  1.5789  3.4101  3.3082
 3737TIP3    H235407   5.534   0.523   9.479 -0.0710 -3.5578  1.7035
 3738TIP3   OH235408   3.896   3.571   7.395  0.7453 -0.6216 -0.2012
 3738TIP3    H135409   3.987   3.566   7.422  0.7512  1.0134  0.1464
 3738TIP3    H235410   3.879   3.664   7.382 -0.8742 -0.8926 -0.2642
 3739TIP3   OH235411   0.168   3.260   7.901 -0.5814 -0.3745 -0.0813
 3739TIP3    H135412   0.134   3.310   7.975 -1.0786 -1.0712  0.1660
 3739TIP3    H235413   0.183   3.326   7.833 -0.9175  0.1564  0.3504
 3740TIP3   OH235414   1.516   3.859   7.941  0.5912  0.0088 -0.7294
 3740TIP3    H135415   1.539   3.885   7.851  0.6076 -0.3597 -0.8333
 3740TIP3    H235416   1.569   3.781   7.957  0.3138 -0.1391 -0.5323
 3741TIP3   OH235417   4.737   5.133   7.055  0.6627  0.8797 -0.2244
 3741TIP3    H135418   4.653   5.172   7.077  1.5664  2.3436  0.7893
 3741TIP3    H235419   4.802   5.196   7.086  2.1605 -0.6079 -0.1851
 3742TIP3   OH235420   5.125   0.808   7.142 -0.1341  0.2352 -0.2638
 3742TIP3    H135421   5.057   0.862   7.102 -0.2409 -0.9532 -1.7504
 3742TIP3    H235422   5.081   0.727   7.166  0.1670  0.5104  1.3798
 3743TIP3   OH235423   3.876   2.690   8.294 -0.0640  0.1060  0.0648
 3743TIP3    H135424   3.783   2.675   8.279 -0.3351  0.2098  1.4980
 3743TIP3    H235425   3.888   2.783   8.277 -0.2336  0.0997 -0.0931
 3744TIP3   OH235426   6.940   4.857   9.593 -0.1400 -0.7532  0.3041
 3744TIP3    H135427   6.860   4.875   9.543  0.0021  2.6403  1.0178
 3744TIP3    H235428   6.930   4.908   9.673  2.4750 -0.6956  0.6951
 3745TIP3   OH235429   6.748   4.310   9.324  0.9354 -0.1305  0.1208
 3745TIP3    H135430   6.746   4.350   9.237  1.2392  0.1812  0.2549
 3745TIP3    H235431   6.717   4.379   9.382  0.4612 -0.4293  0.2297
 3746TIP3   OH235432   2.868   1.067   7.937  0.0117  0.0812 -0.3496
 3746TIP3    H135433   2.942   1.020   7.899  0.7221  0.8477  0.0657
 3746TIP3    H235434   2.795   1.046   7.879  0.8147  0.2891 -1.4707
 3747TIP3   OH235435   4.479   5.499   9.358 -0.1999  0.2818 -0.6658
 3747TIP3    H135436   4.462   5.593   9.365  1.2545  0.5840 -0.9025
 3747TIP3    H235437   4.524   5.488   9.274 -1.0733 -0.7599 -1.0359
 3748TIP3   OH235438   1.411   6.559   7.964 -0.8066 -0.2547  0.3906
 3748TIP3    H135439   1.484   6.545   8.024  0.2415  0.5977 -0.6228
 3748TIP3    H235440   1.412   6.483   7.907 -1.6097 -0.9165  1.2356
 3749TIP3   OH235441   6.891   6.610   7.860 -0.3278  0.3407 -0.2310
 3749TIP3    H135442   6.985   6.630   7.855 -0.3080  0.2934 -0.0599
 3749TIP3    H235443   6.872   6.564   7.779 -0.3280  0.8614 -0.5276
 3750TIP3   OH235444   0.226   4.603   9.573  0.5967  0.1169  0.2568
 3750TIP3    H135445   0.291   4.631   9.637 -0.3465  0.9605  0.8754
 3750TIP3    H235446   0.261   4.633   9.489  0.7282  1.1220  0.6523
 3751TIP3   OH235447   2.959   6.514   9.476 -0.3193 -0.0265 -0.0866
 3751TIP3    H135448   3.024   6.444   9.479  0.1864  0.4253 -0.4650
 3751TIP3    H235449   2.987   6.576   9.543 -0.0959  0.3982 -0.5685
 3752TIP3   OH235450   1.573   4.875   9.413  0.4968  0.1103  0.6310
 3752TIP3    H135451   1.639   4.901   9.348  0.7764 -3.3671 -0.6917
 3752TIP3    H235452   1.625   4.847   9.489  0.5371 -1.1687  0.1614
 3753TIP3   OH235453   0.880   4.160   7.912  0.2419  0.2911 -0.2187
 3753TIP3    H135454   0.901   4.097   7.843 -0.1410  0.4441 -0.4758
 3753TIP3    H235455   0.914   4.120   7.992 -2.2969 -1.5308  0.0841
 3754TIP3   OH235456   2.317   2.893   7.847 -0.3532  0.4402 -0.8728
 3754TIP3    H135457   2.377   2.904   7.773  0.6619  0.4380 -0.0865
 3754TIP3    H235458   2.363   2.935   7.920 -1.4350  0.6419 -0.2982
 3755TIP3   OH235459   6.837   2.037   9.483 -0.2104 -0.5184  0.3808
 3755TIP3    H135460   6.862   2.103   9.417  1.7212 -1.0166  0.5649
 3755TIP3    H235461   6.889   2.059   9.560 -1.4369 -0.7727  1.3228
 3756TIP3   OH235462   6.171   5.163   6.901  0.1972 -0.4254 -0.1917
 3756TIP3    H135463   6.205   5.091   6.955  3.5230  1.1124  0.0269
 3756TIP3    H235464   6.207   5.147   6.814  1.5963  1.2784  0.0295
 3757TIP3   OH235465   5.672   7.208   8.967  0.1308  0.4471  0.3348
 3757TIP3    H135466   5.595   7.239   9.015  0.1797  1.0231  0.0547
 3757TIP3    H235467   5.701   7.285   8.917  0.1347 -0.1183 -0.5400
 3758TIP3   OH235468   3.190   2.134   8.481 -0.8179 -0.0868  0.4485
 3758TIP3    H135469   3.103   2.173   8.477 -1.4168 -1.4575 -0.6740
 3758TIP3    H235470   3.190   2.068   8.412  1.0822 -0.1985  0.4952
 3759TIP3   OH235471   1.185   7.416   7.086 -0.1846 -0.3157  0.0791
 3759TIP3    H135472   1.102   7.439   7.127 -0.3691  0.1898 -0.5708
 3759TIP3    H235473   1.182   7.320   7.078 -0.4495 -0.3560  0.5747
 3760TIP3   OH235474   1.644   3.632   8.021 -0.2731 -0.0547  0.0948
 3760TIP3    H135475   1.610   3.645   8.110  0.2870 -0.9707  0.4617
 3760TIP3    H235476   1.734   3.602   8.034  0.5619  1.8791 -0.8362
 3761TIP3   OH235477   4.778   2.052   8.144 -0.3369 -0.3524 -0.0490
 3761TIP3    H135478   4.739   2.118   8.202 -0.9958  0.2972 -1.1963
 3761TIP3    H235479   4.864   2.088   8.123 -0.6338  0.0813 -0.5488
 3762TIP3   OH235480   0.411   2.180   6.918  0.3039 -0.1593 -0.5923
 3762TIP3    H135481   0.415   2.109   6.853 -0.8593 -1.0376  0.2537
 3762TIP3    H235482   0.328   2.166   6.964  1.6651 -0.3734  1.9763
 3763TIP3   OH235483   0.760   1.261   7.960  0.4532  0.4657  0.1540
 3763TIP3    H135484   0.824   1.287   8.027 -0.9849  0.7301  1.5018
 3763TIP3    H235485   0.787   1.173   7.934  0.9808  0.2974  1.2109
 3764TIP3   OH235486   3.075   5.645   8.791 -0.7042  0.4456 -0.0655
 3764TIP3    H135487   3.096   5.722   8.844 -2.5250  0.2229  1.0670
 3764TIP3    H235488   3.151   5.588   8.801  0.2479  1.6618 -0.1180
 3765TIP3   OH235489   1.133   2.233   9.171  0.1432  0.0886 -0.3355
 3765TIP3    H135490   1.117   2.240   9.265  0.3441  0.1495 -0.3066
 3765TIP3    H235491   1.202   2.297   9.153  2.9013 -2.5241  0.1500
 3766TIP3   OH235492   6.275   4.031   9.024 -0.2891 -0.0326  0.5714
 3766TIP3    H135493   6.267   4.025   9.119 -1.6254  0.7976  0.5334
 3766TIP3    H235494   6.336   4.103   9.009  0.2011 -0.3991  0.8028
 3767TIP3   OH235495   5.612   4.894   9.558  0.1268 -0.0213 -0.0687
 3767TIP3    H135496   5.632   4.977   9.601  0.0597 -0.7886  1.5405
 3767TIP3    H235497   5.687   4.838   9.579 -0.5440 -0.8346  0.2202
 3768TIP3   OH235498   2.354   7.255   7.694  0.5105 -0.4708 -0.2236
 3768TIP3    H135499   2.292   7.218   7.630  0.2619  1.1392 -0.9616
 3768TIP3    H235500   2.300   7.274   7.771  0.2629  0.0376 -0.5154
 3769TIP3   OH235501   2.330   3.213   7.714 -0.0835 -0.2312 -0.7766
 3769TIP3    H135502   2.362   3.298   7.684  2.5589 -1.2136 -0.9545
 3769TIP3    H235503   2.367   3.150   7.653 -0.4768 -1.6804  0.4322
 3770TIP3   OH235504   5.328   4.316   9.503 -0.5513 -0.7009 -0.1219
 3770TIP3    H135505   5.242   4.292   9.536 -0.2683 -3.0794 -0.9706
 3770TIP3    H235506   5.387   4.299   9.576 -0.6693  0.1956  0.2015
 3771TIP3   OH235507   2.860   0.130   7.537 -0.1255 -0.2092 -0.5056
 3771TIP3    H135508   2.813   0.051   7.510  0.9252 -1.0685  0.1180
 3771TIP3    H235509   2.854   0.131   7.632  0.4565  0.0943 -0.4672
 3772TIP3   OH235510   0.179   5.747   7.486 -0.1152 -0.2783 -0.5962
 3772TIP3    H135511   0.247   5.814   7.479 -0.3264  0.0121  0.0549
 3772TIP3    H235512   0.223   5.673   7.527 -0.8701  1.0033  2.9097
 3773TIP3   OH235513   5.810   0.769   7.847 -0.1602  0.3680  0.3096
 3773TIP3    H135514   5.876   0.717   7.802  0.5856 -0.4205  2.2203
 3773TIP3    H235515   5.729   0.751   7.799  0.6820 -0.0371 -0.9994
 3774TIP3   OH235516   4.511   1.267   8.429  0.3247  0.1970  0.1330
 3774TIP3    H135517   4.586   1.310   8.470  0.6022  0.4933 -0.6616
 3774TIP3    H235518   4.501   1.312   8.345 -0.2613 -0.3637 -0.1037
 3775TIP3   OH235519   0.392   4.920   8.374  0.2487 -0.4787  0.5226
 3775TIP3    H135520   0.325   4.877   8.427  0.6210 -0.3878  1.0736
 3775TIP3    H235521   0.472   4.913   8.426  0.6332 -0.4447 -0.0572
 3776TIP3   OH235522   2.542   3.323   9.927 -0.3229 -0.2329 -0.2770
 3776TIP3    H135523   2.592   3.373   9.862 -0.0523  0.1892  0.2494
 3776TIP3    H235524   2.604   3.308   9.998 -0.6670 -0.5508 -0.0420
 3777TIP3   OH235525   3.990   3.509   8.430  0.5967 -0.1629  0.4104
 3777TIP3    H135526   3.940   3.496   8.350  2.6387  0.6684 -1.0821
 3777TIP3    H235527   3.998   3.604   8.438 -0.3019 -0.1806  2.1396
 3778TIP3   OH235528   1.210   1.808   8.547 -0.5591  0.0604 -0.6176
 3778TIP3    H135529   1.136   1.815   8.486 -0.3973 -1.2405 -0.9986
 3778TIP3    H235530   1.235   1.899   8.566 -4.7834  0.8980  2.6812
 3779TIP3   OH235531   7.161   5.458   8.777  0.1517  0.0397 -0.1313
 3779TIP3    H135532   7.110   5.525   8.822 -2.8045 -0.4670 -2.4272
 3779TIP3    H235533   7.124   5.375   8.807  0.1283 -0.3764 -1.2627
 3780TIP3   OH235534   6.189   0.151   8.591  0.0365 -0.6424  0.3810
 3780TIP3    H135535   6.186   0.153   8.496  0.4318  1.1384  0.3651
 3780TIP3    H235536   6.156   0.237   8.618 -0.1734 -1.1484  1.8594
 3781TIP3   OH235537   2.073   3.132   7.834 -0.4572  0.2795  0.4366
 3781TIP3    H135538   2.087   3.094   7.921 -0.5120 -1.1714 -0.1570
 3781TIP3    H235539   2.159   3.132   7.794 -0.7796 -1.2772 -0.3428
 3782TIP3   OH235540   5.483   1.691   7.611 -0.1391 -0.4176 -0.6695
 3782TIP3    H135541   5.564   1.738   7.631 -0.2228  0.5624 -2.4540
 3782TIP3    H235542   5.421   1.760   7.588 -1.5791 -1.1352  0.8695
 3783TIP3   OH235543   4.282   0.715   7.302  0.0476  0.2782 -0.3997
 3783TIP3    H135544   4.352   0.774   7.272  1.5830 -1.1824  0.1299
 3783TIP3    H235545   4.284   0.724   7.398  1.3942 -1.7116 -0.1775
 3784TIP3   OH235546   4.479   0.263   8.498  0.2934  0.3820  0.2714
 3784TIP3    H135547   4.561   0.213   8.490 -0.0611 -0.3142  0.9014
 3784TIP3    H235548   4.461   0.293   8.409 -0.1501 -1.7111 -0.3933
 3785TIP3   OH235549   2.463   7.221   9.232 -0.2897  0.1545 -0.3371
 3785TIP3    H135550   2.412   7.299   9.212  0.6209  0.2353 -2.5588
 3785TIP3    H235551   2.433   7.156   9.169  0.2090 -0.7613  0.3472
 3786TIP3   OH235552   5.838   0.030   9.555  0.3913 -0.5080  0.2485
 3786TIP3    H135553   5.778  -0.045   9.563  1.8295 -1.6640  0.7517
 3786TIP3    H235554   5.915  -0.007   9.512 -0.0232  1.4317 -2.3927
 3787TIP3   OH235555   0.463   4.618   9.212 -0.3344 -0.5670  0.2311
 3787TIP3    H135556   0.389   4.562   9.237 -0.8674 -0.1441 -0.3729
 3787TIP3    H235557   0.431   4.707   9.223  1.2026 -0.2762  3.2536
 3788TIP3   OH235558   3.490   6.675   7.079  0.0836 -0.0772  0.3524
 3788TIP3    H135559   3.533   6.761   7.079 -1.1888  0.5717  0.2051
 3788TIP3    H235560   3.516   6.635   6.996 -0.0300  0.5347  0.0183
 3789TIP3   OH235561   0.217   5.398   9.839 -0.6443  0.9746 -0.1644
 3789TIP3    H135562   0.281   5.327   9.846 -0.7793  0.9226  0.5315
 3789TIP3    H235563   0.271   5.477   9.836 -0.5522  0.9680  0.9249
 3790TIP3   OH235564   6.586   0.791   9.165  0.7040  0.3401  0.0741
 3790TIP3    H135565   6.530   0.865   9.143  0.9755  0.2889 -0.8450
 3790TIP3    H235566   6.675   0.827   9.165  0.7784  0.1599  0.3098
 3791TIP3   OH235567   6.423   6.106   7.741  0.1662  0.1277 -0.0577
 3791TIP3    H135568   6.393   6.173   7.801 -1.5720 -0.6581  0.0067
 3791TIP3    H235569   6.463   6.039   7.797  0.5602  0.4116  0.0050
 3792TIP3   OH235570   4.013   5.558   8.075 -0.3724 -0.2884 -0.0174
 3792TIP3    H135571   3.992   5.628   8.137  0.5784 -0.5078  0.5894
 3792TIP3    H235572   4.085   5.593   8.023 -0.8390 -0.2937 -0.6733
 3793TIP3   OH235573   3.040   1.188   9.267 -0.4550 -0.2496  0.1452
 3793TIP3    H135574   3.021   1.158   9.355  0.9699 -0.5472  0.3708
 3793TIP3    H235575   2.959   1.231   9.238 -1.1322 -0.6797  1.3566
 3794TIP3   OH235576   6.801   1.868   7.553 -0.3178 -0.3014  0.6619
 3794TIP3    H135577   6.887   1.860   7.596 -0.0417 -1.6473 -0.0760
 3794TIP3    H235578   6.822   1.889   7.462 -0.8482  0.9166  0.7980
 3795TIP3   OH235579   6.686   3.905   7.517  0.0317 -0.3785 -0.5796
 3795TIP3    H135580   6.692   3.992   7.555 -0.2301 -1.3356  1.8277
 3795TIP3    H235581   6.595   3.898   7.486 -0.6162 -0.5045  1.2185
 3796TIP3   OH235582   5.558   3.279   7.955 -0.0735  0.3126 -0.3496
 3796TIP3    H135583   5.509   3.286   7.873  0.0058  2.0097 -0.2958
 3796TIP3    H235584   5.645   3.312   7.934  1.0360 -2.3482 -0.3546
 3797TIP3   OH235585   4.860   1.692   9.184 -1.0114  0.2106  0.1277
 3797TIP3    H135586   4.941   1.644   9.201 -1.5724 -0.5256  0.8182
 3797TIP3    H235587   4.888   1.779   9.155  0.0189 -0.0958  0.2020
 3798TIP3   OH235588   6.596   6.344   8.964  0.5839  0.4561  0.0918
 3798TIP3    H135589   6.509   6.382   8.973  0.4468  0.3307 -0.6063
 3798TIP3    H235590   6.585   6.253   8.991  0.2544  0.1693 -0.9453
 3799TIP3   OH235591   5.631   7.246   7.905  0.4664  0.0153 -0.5693
 3799TIP3    H135592   5.686   7.296   7.965  0.3486 -1.3132  0.7046
 3799TIP3    H235593   5.570   7.199   7.962 -0.4934 -0.3064 -1.8188
 3800TIP3   OH235594   0.654   6.521   9.447 -0.0290 -0.1109  0.4382
 3800TIP3    H135595   0.577   6.577   9.462 -0.0124 -0.3319  1.4485
 3800TIP3    H235596   0.725   6.565   9.494  0.3403 -0.1816 -0.0528
 3801TIP3   OH235597   2.623   5.603   9.723  0.3819  0.4069  0.4179
 3801TIP3    H135598   2.643   5.539   9.791  2.1437  0.2735 -0.1877
 3801TIP3    H235599   2.705   5.649   9.707 -0.6542  2.3520  0.3246
 3802TIP3   OH235600   6.784   2.377   9.555  0.1358  0.1605 -0.0598
 3802TIP3    H135601   6.876   2.405   9.551  0.4271 -0.5525  1.1216
 3802TIP3    H235602   6.735   2.458   9.566  0.8910  0.3833  2.4690
 3803TIP3   OH235603   7.274   4.827   7.774  0.4199 -0.3706  0.4284
 3803TIP3    H135604   7.311   4.903   7.730 -0.1845 -1.2807 -1.7752
 3803TIP3    H235605   7.301   4.837   7.866  2.8474  0.9665 -0.3344
 3804TIP3   OH235606   5.981   0.009   7.648 -0.1024 -0.2659  0.0513
 3804TIP3    H135607   6.041  -0.064   7.659  3.5152  2.4324  0.1779
 3804TIP3    H235608   5.987   0.033   7.556  1.2928  1.6921  0.5809
 3805TIP3   OH235609   2.657   2.945   7.840 -0.1348 -0.3205  0.9313
 3805TIP3    H135610   2.747   2.918   7.821  0.1306 -0.3505  2.1569
 3805TIP3    H235611   2.607   2.917   7.763  1.3084  2.0179 -1.0073
 3806TIP3   OH235612   4.754   7.479   7.131  0.4773  0.4146  0.2747
 3806TIP3    H135613   4.677   7.435   7.094  0.4173 -1.8405  2.7566
 3806TIP3    H235614   4.718   7.556   7.176  0.0722  0.9718 -0.9695
 3807TIP3   OH235615   0.887   7.450   7.683 -0.0469  0.0695 -0.0525
 3807TIP3    H135616   0.924   7.451   7.594 -0.6251 -0.6614 -0.3111
 3807TIP3    H235617   0.821   7.519   7.682  1.1444  1.2401  0.3476
 3808TIP3   OH235618   1.248   0.847   8.849 -0.8146  0.1215  0.0454
 3808TIP3    H135619   1.205   0.806   8.774 -0.7006 -0.0682  0.0828
 3808TIP3    H235620   1.258   0.939   8.824 -0.5422  0.0066 -0.2815
 3809TIP3   OH235621   0.615   4.877   7.151  0.8331 -0.1839 -0.2816
 3809TIP3    H135622   0.582   4.950   7.204 -1.5889 -1.0240 -0.5239
 3809TIP3    H235623   0.599   4.904   7.061  0.2464 -0.8429 -0.3835
 3810TIP3   OH235624   7.056   6.953   7.420 -0.0419  0.2707 -0.0489
 3810TIP3    H135625   7.103   7.035   7.410  1.8076 -0.9249 -1.7081
 3810TIP3    H235626   7.051   6.917   7.332 -0.6583 -1.4864  0.6639
 3811TIP3   OH235627   1.483   2.656   9.305 -0.1014  0.3078  0.2414
 3811TIP3    H135628   1.401   2.699   9.282 -0.9362 -0.6322  1.3625
 3811TIP3    H235629   1.458   2.583   9.361  1.2782 -1.6803 -1.5808
 3812TIP3   OH235630   0.920   1.312   8.713  0.0723 -0.2327 -0.6100
 3812TIP3    H135631   0.948   1.261   8.789 -0.3690 -1.5029 -1.2808
 3812TIP3    H235632   0.824   1.307   8.715  0.0183  0.6175 -0.6645
 3813TIP3   OH235633   1.581   4.737   7.161 -0.1696 -0.0500  0.0396
 3813TIP3    H135634   1.532   4.694   7.231  1.2494 -3.3033 -0.7803
 3813TIP3    H235635   1.518   4.745   7.089 -0.4983 -0.6837  0.2494
 3814TIP3   OH235636   0.127   7.186   8.448 -0.0179  0.3500  0.0154
 3814TIP3    H135637   0.037   7.174   8.416 -0.5834  0.5203  1.4925
 3814TIP3    H235638   0.139   7.118   8.514  1.5769 -0.8003 -1.3747
 3815TIP3   OH235639   1.951   6.551   7.903 -0.4418  0.6919 -0.2380
 3815TIP3    H135640   2.046   6.558   7.915 -0.4036  0.2732 -0.2758
 3815TIP3    H235641   1.927   6.471   7.950 -0.7176  0.5841 -0.5627
 3816TIP3   OH235642   2.176   5.862   8.763  0.3834  0.2558  0.0354
 3816TIP3    H135643   2.085   5.836   8.778  0.2266 -1.1035 -2.5407
 3816TIP3    H235644   2.227   5.795   8.808  0.0401 -0.4853 -0.6401
 3817TIP3   OH235645   1.340   0.760   9.108 -0.0811 -0.0211  0.1968
 3817TIP3    H135646   1.328   0.668   9.087  2.9815 -0.2731 -0.9042
 3817TIP3    H235647   1.305   0.807   9.032  0.0192 -0.3734 -0.0654
 3818TIP3   OH235648   6.335   0.407   9.036 -0.3361 -0.7002  0.0753
 3818TIP3    H135649   6.246   0.436   9.018 -0.3822  0.4211  1.8723
 3818TIP3    H235650   6.324   0.333   9.096 -0.0679  0.4094  1.5456
 3819TIP3   OH235651   6.186   3.531   8.249  0.0624  0.1512  0.4107
 3819TIP3    H135652   6.166   3.438   8.244  0.3177  0.1038  0.2813
 3819TIP3    H235653   6.237   3.541   8.329  0.5601  0.0854  0.1011
 3820TIP3   OH235654   1.614   6.524   8.125 -0.0557  0.5957  0.0981
 3820TIP3    H135655   1.627   6.432   8.149 -1.7353  0.7640  1.8882
 3820TIP3    H235656   1.547   6.556   8.186 -1.0277  2.4481 -1.7894
 3821TIP3   OH235657   6.620   0.797   8.307  0.1825 -0.1179 -0.0573
 3821TIP3    H135658   6.611   0.711   8.348 -0.6290  0.0095  0.0363
 3821TIP3    H235659   6.591   0.783   8.217 -0.4812  0.1739  0.1047
 3822TIP3   OH235660   2.033   5.318   9.537  0.4335 -0.0876  0.0152
 3822TIP3    H135661   2.060   5.247   9.479  0.3357  0.1585 -0.3344
 3822TIP3    H235662   1.967   5.366   9.487  1.3423  0.9601 -0.2249
 3823TIP3   OH235663   1.233   0.420   8.620 -0.1526 -0.0241 -0.2197
 3823TIP3    H135664   1.187   0.411   8.537  0.0668  1.0319 -0.4765
 3823TIP3    H235665   1.289   0.343   8.625 -0.6036 -0.3952 -0.7643
 3824TIP3   OH235666   1.875   2.797   9.413  0.0661  0.1608 -0.8373
 3824TIP3    H135667   1.852   2.840   9.330 -0.3209  0.2841 -0.6661
 3824TIP3    H235668   1.948   2.850   9.446  0.5326 -0.1615 -1.3186
 3825TIP3   OH235669   4.456   1.759   9.469  0.0665 -0.4881 -0.1649
 3825TIP3    H135670   4.459   1.855   9.468 -2.1966 -0.3599  0.4352
 3825TIP3    H235671   4.510   1.733   9.395 -1.7595  1.3978 -2.3350
 3826TIP3   OH235672   4.866   6.852   8.403  0.1818 -0.0107 -0.3160
 3826TIP3    H135673   4.932   6.790   8.374  2.1528  0.9859  1.6935
 3826TIP3    H235674   4.876   6.927   8.345 -0.3521 -0.5019 -1.0551
 3827TIP3   OH235675   1.737   1.042   8.286 -0.5344 -0.5091  0.3712
 3827TIP3    H135676   1.757   1.036   8.380  0.4035 -2.2746  0.0875
 3827TIP3    H235677   1.693   0.960   8.266 -1.4775  0.2134 -0.5865
 3828TIP3   OH235678   0.193   5.227   9.289  0.2749 -0.5447 -0.0091
 3828TIP3    H135679   0.123   5.289   9.310  0.2938 -0.2293 -0.8635
 3828TIP3    H235680   0.189   5.218   9.194  3.4748  2.0143 -0.5570
 3829TIP3   OH235681   1.090   7.046   8.538 -0.6061 -0.0220  0.3042
 3829TIP3    H135682   1.040   7.075   8.461  0.3509  1.7075  0.2793
 3829TIP3    H235683   1.170   7.009   8.501 -0.1504  0.8005  0.4322
 3830TIP3   OH235684   5.751   5.035   8.941 -0.2053 -0.1487  0.5467
 3830TIP3    H135685   5.686   5.053   8.873 -0.8001  0.5364  1.2662
 3830TIP3    H235686   5.814   4.977   8.900 -0.4695  0.3725 -0.6312
 3831TIP3   OH235687   5.134   1.777   8.124 -0.6587 -0.1793 -0.2481
 3831TIP3    H135688   5.114   1.689   8.091 -1.0057  0.4507 -1.8178
 3831TIP3    H235689   5.168   1.824   8.048  2.4677  0.2009  1.2223
 3832TIP3   OH235690   5.392   1.158   8.549  0.0445  0.8511  0.3382
 3832TIP3    H135691   5.445   1.097   8.600  0.5816  2.0003  1.1744
 3832TIP3    H235692   5.401   1.126   8.459  1.0661  0.2248  0.6375
 3833TIP3   OH235693   7.111   6.323   6.544  0.0194  0.1846  0.1205
 3833TIP3    H135694   7.184   6.342   6.486  1.2625 -0.0979  1.5175
 3833TIP3    H235695   7.146   6.258   6.606 -1.0416  0.9165  1.5409
 3834TIP3   OH235696   5.136   0.210   7.806 -0.4793  0.0347  0.6259
 3834TIP3    H135697   5.210   0.231   7.864  0.8629 -0.9877 -0.6356
 3834TIP3    H235698   5.073   0.281   7.821  1.0497  1.3223  1.2715
 3835TIP3   OH235699   7.479   1.198   6.764 -0.2093 -0.2108 -0.0564
 3835TIP3    H135700   7.476   1.102   6.755  1.3193 -0.3109  0.2637
 3835TIP3    H235701   7.395   1.220   6.804  0.1129 -1.6187  1.4982
 3836TIP3   OH235702   5.354   2.800   7.667 -0.7678  0.4744  0.1541
 3836TIP3    H135703   5.301   2.878   7.679 -1.4592  0.1325 -0.5492
 3836TIP3    H235704   5.339   2.774   7.576 -0.1675 -0.1952  0.2308
 3837TIP3   OH235705   2.915   1.814   8.215  0.1913  0.0130  0.3806
 3837TIP3    H135706   2.923   1.761   8.294 -1.3041 -1.5805 -0.4753
 3837TIP3    H235707   2.955   1.761   8.146 -0.1324  0.5848 -0.2618
 3838TIP3   OH235708   1.648   3.053   7.607  0.7844 -0.4817 -0.0806
 3838TIP3    H135709   1.740   3.075   7.618  0.8482 -1.1777  0.9446
 3838TIP3    H235710   1.611   3.064   7.695 -0.3122  0.6656 -0.6565
 3839TIP3   OH235711   2.384   1.275   8.430  0.0918 -0.5187  0.5110
 3839TIP3    H135712   2.420   1.197   8.472 -1.5128  0.2650  3.6233
 3839TIP3    H235713   2.453   1.340   8.439  1.2133 -1.3139 -1.5932
 3840TIP3   OH235714   4.959   1.601   7.298  0.0643 -0.0721  0.0225
 3840TIP3    H135715   5.017   1.649   7.240  0.2446  0.8354  0.9374
 3840TIP3    H235716   4.899   1.555   7.239  0.4653  0.5356 -0.8773
 3841TIP3   OH235717   3.081   1.233   8.256  0.5017 -0.5642  0.7234
 3841TIP3    H135718   3.077   1.138   8.240  1.9329 -0.9966  2.5453
 3841TIP3    H235719   3.174   1.254   8.246  0.2228  0.6158  0.5619
 3842TIP3   OH235720   1.584   5.755   8.178  0.0707  0.0277 -0.1447
 3842TIP3    H135721   1.612   5.670   8.145  0.1261  0.4377 -1.1987
 3842TIP3    H235722   1.488   5.752   8.172 -0.0168 -0.4790  1.1832
 3843TIP3   OH235723   2.644   5.931   9.071  0.0858  0.0223 -0.2406
 3843TIP3    H135724   2.652   5.919   9.165  0.4563  0.1232 -0.2545
 3843TIP3    H235725   2.566   5.881   9.046 -0.2432  0.3289  0.1740
 3844TIP3   OH235726   2.467   6.233   7.020  0.3809 -0.4465  0.0347
 3844TIP3    H135727   2.407   6.263   6.952  0.9389 -1.4105 -0.9101
 3844TIP3    H235728   2.553   6.237   6.978  0.7724 -0.7121  0.8104
 3845TIP3   OH235729   2.160   6.238   9.535  0.4106  0.3174 -0.3348
 3845TIP3    H135730   2.198   6.213   9.451  1.3089 -1.2239  0.5037
 3845TIP3    H235731   2.188   6.329   9.547  3.5102 -0.5593 -0.0058
 3846TIP3   OH235732   0.943   2.640   9.718 -0.4110  0.1274 -0.5152
 3846TIP3    H135733   0.927   2.589   9.797  2.3514  0.1512  0.1597
 3846TIP3    H235734   0.885   2.716   9.727 -0.1815  0.1221  1.4864
 3847TIP3   OH235735   3.756   3.154   9.003 -0.3469 -0.2113  0.2113
 3847TIP3    H135736   3.836   3.119   8.964 -0.5812 -0.7513  0.1998
 3847TIP3    H235737   3.784   3.196   9.084 -0.1872 -1.4126  0.8019
 3848TIP3   OH235738   4.970   6.839   8.672  0.5445 -0.0931  0.3967
 3848TIP3    H135739   5.061   6.816   8.653  0.8205  0.5261  0.9297
 3848TIP3    H235740   4.928   6.843   8.586  1.4232  1.2609 -0.0194
 3849TIP3   OH235741   2.532   6.730   9.432  0.1342  0.0311 -0.1599
 3849TIP3    H135742   2.599   6.789   9.468 -1.8227  2.4639 -0.1856
 3849TIP3    H235743   2.454   6.749   9.483 -1.3859 -0.2231 -2.2427
 3850TIP3   OH235744   6.183   7.224   9.057 -0.1534  0.0779 -0.4525
 3850TIP3    H135745   6.258   7.254   9.005  0.2637  0.1448  0.1768
 3850TIP3    H235746   6.140   7.304   9.086 -0.2754  0.0440 -0.5407
 3851TIP3   OH235747   1.642   4.594   7.785 -0.2846 -0.3131 -0.3388
 3851TIP3    H135748   1.552   4.584   7.756 -0.2649 -3.3572  0.3193
 3851TIP3    H235749   1.694   4.594   7.704 -0.6677 -2.2313 -0.6244
 3852TIP3   OH235750   2.761   5.404   7.612  0.2124 -0.2589  0.0763
 3852TIP3    H135751   2.818   5.429   7.539  0.6247  0.9460  0.7951
 3852TIP3    H235752   2.770   5.475   7.676 -2.6439  0.3696 -0.0768
 3853TIP3   OH235753   1.880   0.992   7.175  0.1989 -0.2679  0.2591
 3853TIP3    H135754   1.839   1.007   7.090  0.7463  0.6083  0.1413
 3853TIP3    H235755   1.970   0.967   7.154 -0.3064 -2.5597  0.5014
 3854TIP3   OH235756   4.898   0.995   7.610  0.3785 -0.5543 -0.6640
 3854TIP3    H135757   4.805   0.991   7.633  0.9136  1.1758  2.1977
 3854TIP3    H235758   4.937   0.919   7.654  0.5854 -0.2623 -0.3383
 3855TIP3   OH235759   3.431   1.410   7.598  0.5179  0.3540  0.1958
 3855TIP3    H135760   3.408   1.347   7.666  4.3558 -0.8458  0.6306
 3855TIP3    H235761   3.468   1.484   7.646 -0.6999  1.4424 -0.4797
 3856TIP3   OH235762   6.166   5.904   8.515  0.9275 -0.3106  0.1248
 3856TIP3    H135763   6.143   5.947   8.433 -0.5018  0.6662  0.9857
 3856TIP3    H235764   6.245   5.949   8.545  0.8032  0.0967 -0.1556
 3857TIP3   OH235765   5.768   2.453   9.631 -0.8878 -0.1320  0.5042
 3857TIP3    H135766   5.746   2.502   9.552  1.3175  2.5825  1.3816
 3857TIP3    H235767   5.689   2.456   9.685 -1.3592  0.9483 -0.2231
 3858TIP3   OH235768   0.285   2.094   8.516 -0.0424  0.1013  0.2172
 3858TIP3    H135769   0.251   2.180   8.488 -2.1599 -0.6053  0.4222
 3858TIP3    H235770   0.208   2.037   8.516  0.9187 -1.2966  2.1373
 3859TIP3   OH235771   5.243   2.252   7.918 -0.0265  0.2165  0.6431
 3859TIP3    H135772   5.261   2.307   7.994  0.4128  0.1763  0.5694
 3859TIP3    H235773   5.220   2.167   7.955  1.8296 -0.2920  0.7064
 3860TIP3   OH235774   4.172   2.344   8.381 -0.6599 -0.0379 -0.7598
 3860TIP3    H135775   4.106   2.353   8.450  0.4025 -2.8822  0.8031
 3860TIP3    H235776   4.125   2.302   8.309 -0.8430 -1.0281 -0.0817
 3861TIP3   OH235777   1.625   0.209   8.738 -0.0543 -0.2139  0.0630
 3861TIP3    H135778   1.534   0.237   8.729  0.1459 -0.1782 -3.3731
 3861TIP3    H235779   1.627   0.122   8.699  1.5365  0.2079 -0.8881
 3862TIP3   OH235780   5.478   2.831   8.574 -0.4600 -0.4721 -0.4919
 3862TIP3    H135781   5.483   2.748   8.623  1.0582  0.4008  0.9484
 3862TIP3    H235782   5.462   2.897   8.641  2.2057  0.8318 -1.0210
 3863TIP3   OH235783   7.239   2.862   7.472 -0.7948 -0.1872  0.1634
 3863TIP3    H135784   7.239   2.861   7.376 -0.6156 -1.3182  0.1635
 3863TIP3    H235785   7.311   2.805   7.497  0.5948  1.8007  1.0092
 3864TIP3   OH235786   4.501   6.301   9.193  0.4920 -0.0093  0.4434
 3864TIP3    H135787   4.440   6.236   9.158 -0.0878  1.3415 -1.1713
 3864TIP3    H235788   4.445   6.368   9.233  1.0432  0.0021  1.2223
 3865TIP3   OH235789   5.259   2.100   8.244 -0.0496  0.4277  0.3076
 3865TIP3    H135790   5.307   2.153   8.307 -2.0717 -1.4321  3.7332
 3865TIP3    H235791   5.327   2.050   8.198  1.4905  1.1503  1.6946
 3866TIP3   OH235792   1.994   3.183   8.391 -0.0846 -0.4013  0.1850
 3866TIP3    H135793   2.000   3.233   8.473 -0.5125  0.2411 -0.1677
 3866TIP3    H235794   1.903   3.153   8.389 -0.6376  1.2004 -0.9671
 3867TIP3   OH235795   0.360   6.354   7.679 -0.0400 -0.4915  0.6070
 3867TIP3    H135796   0.274   6.361   7.721 -0.3632 -0.5619 -0.0319
 3867TIP3    H235797   0.340   6.351   7.585  0.6584 -0.5611  0.4608
 3868TIP3   OH235798   6.457   0.272   8.797 -0.2249 -0.0215  0.0932
 3868TIP3    H135799   6.441   0.183   8.828  2.8818 -0.8953 -0.4856
 3868TIP3    H235800   6.445   0.327   8.875 -0.5172 -1.1529  0.8775
 3869TIP3   OH235801   6.343   2.876   6.855  0.1299 -0.1114 -0.5497
 3869TIP3    H135802   6.327   2.782   6.861  0.6093 -0.2239 -0.9418
 3869TIP3    H235803   6.325   2.898   6.763 -3.6460  0.9008  0.2696
 3870TIP3   OH235804   7.409   2.117   7.460 -0.2902 -0.5686 -0.0699
 3870TIP3    H135805   7.435   2.138   7.370  1.4712 -1.3098  0.2311
 3870TIP3    H235806   7.452   2.034   7.478  0.0851 -0.0146  1.7471
 3871TIP3   OH235807   2.807   6.117   7.623 -0.2845  0.1384  0.6326
 3871TIP3    H135808   2.859   6.192   7.652  1.1748 -0.7512  0.4392
 3871TIP3    H235809   2.741   6.105   7.692  1.0904  0.0369  2.0009
 3872TIP3   OH235810   5.308   7.013   9.578 -0.0359  0.2186  0.0654
 3872TIP3    H135811   5.228   7.050   9.540 -0.8225 -0.7330  0.7356
 3872TIP3    H235812   5.278   6.970   9.659  1.0942 -0.4824  0.1314
 3873TIP3   OH235813   7.123   6.214   9.081 -0.8469 -0.3042  0.5910
 3873TIP3    H135814   7.186   6.163   9.031  0.3898 -0.9806  2.7210
 3873TIP3    H235815   7.157   6.304   9.078 -0.1066 -0.5615  1.2336
 3874TIP3   OH235816   3.501   2.931   7.574 -1.1208  0.3148 -0.3322
 3874TIP3    H135817   3.514   3.000   7.509  1.2226 -1.4783 -1.9593
 3874TIP3    H235818   3.505   2.849   7.524 -2.7563 -1.0908  1.6452
 3875TIP3   OH235819   7.200   7.215   7.441  0.1573  0.0527 -0.3965
 3875TIP3    H135820   7.178   7.308   7.451  0.4662  0.2537 -1.4535
 3875TIP3    H235821   7.202   7.181   7.530 -3.7397  0.1372 -0.1000
 3876TIP3   OH235822   3.368   1.090   9.096 -0.5187  0.2999 -0.2371
 3876TIP3    H135823   3.435   1.092   9.028 -0.9648  0.5979 -0.6783
 3876TIP3    H235824   3.316   1.169   9.081  0.0344  0.9428  1.1292
 3877TIP3   OH235825   5.779   2.258   7.223 -0.1996 -0.2012  0.2129
 3877TIP3    H135826   5.822   2.339   7.247  0.3287 -0.2638 -0.4998
 3877TIP3    H235827   5.850   2.195   7.209 -0.6272 -1.0966  1.7990
 3878TIP3   OH235828   7.135   5.921   8.406 -0.4623 -0.1457  0.4660
 3878TIP3    H135829   7.065   5.978   8.436 -0.1792 -0.0929  1.0418
 3878TIP3    H235830   7.213   5.951   8.453  0.7026  1.8324 -2.3910
 3879TIP3   OH235831   0.368   4.389   8.558  0.0979 -0.3965 -0.0506
 3879TIP3    H135832   0.400   4.299   8.563 -0.0864 -0.4388  0.3669
 3879TIP3    H235833   0.272   4.381   8.561  0.0478 -0.2442 -0.9035
 3880TIP3   OH235834   1.604   3.048   8.248 -0.0269 -0.2794  0.5314
 3880TIP3    H135835   1.621   3.101   8.171  0.3456 -1.6195 -0.3371
 3880TIP3    H235836   1.515   3.071   8.274  0.5190  1.6316  0.9288
 3881TIP3   OH235837   6.560   2.380   7.649  0.3952 -0.1890  1.1575
 3881TIP3    H135838   6.628   2.318   7.676  1.5812  0.8052  0.5915
 3881TIP3    H235839   6.536   2.427   7.728 -1.4047 -2.1317  1.8513
 3882TIP3   OH235840   5.675   2.449   8.038 -0.1688  0.1276  0.4755
 3882TIP3    H135841   5.769   2.448   8.055 -0.2445 -1.4803  1.0031
 3882TIP3    H235842   5.664   2.391   7.963 -0.7927 -0.3571  0.9270
 3883TIP3   OH235843   4.184   1.736   7.844  0.7353 -0.2006  0.4372
 3883TIP3    H135844   4.198   1.791   7.767  0.3884  1.2968  1.3976
 3883TIP3    H235845   4.240   1.660   7.830  0.5798 -0.0277 -1.3408
 3884TIP3   OH235846   0.697   1.456   6.941 -0.4140 -0.7983 -0.2683
 3884TIP3    H135847   0.674   1.547   6.958 -1.1268 -1.1493  0.7900
 3884TIP3    H235848   0.791   1.456   6.928  0.1343 -0.2956  2.9540
 3885TIP3   OH235849   3.020   1.474   9.855 -0.2468  0.0235  0.4756
 3885TIP3    H135850   2.932   1.486   9.891 -0.1926 -1.5756  1.2780
 3885TIP3    H235851   3.025   1.535   9.782 -2.4707 -0.6647 -0.3602
 3886TIP3   OH235852   1.156   1.056   8.286 -0.1876  0.0004  0.0128
 3886TIP3    H135853   1.210   1.105   8.224 -0.6981 -0.3978 -0.7663
 3886TIP3    H235854   1.092   1.121   8.318  1.1695  0.6728  1.5197
 3887TIP3   OH235855   6.674   5.509   8.470  0.2032 -0.6411 -0.2439
 3887TIP3    H135856   6.763   5.544   8.474  1.0159 -2.6646  0.8486
 3887TIP3    H235857   6.679   5.426   8.516 -2.0025 -1.3798 -1.2059
 3888TIP3   OH235858   0.774   4.031   8.789  0.0594  0.0489  0.0644
 3888TIP3    H135859   0.763   4.083   8.869  0.5376  0.1171  0.0908
 3888TIP3    H235860   0.747   3.942   8.814  4.0206 -0.9427  1.5499
 3889TIP3   OH235861   4.729   0.137   8.274 -0.1500 -0.7633  1.1464
 3889TIP3    H135862   4.645   0.145   8.229 -0.7869  0.7368  2.4658
 3889TIP3    H235863   4.723   0.055   8.322 -0.6115 -0.9806  0.7193
 3890TIP3   OH235864   4.859   4.649   9.276  0.4502  0.1130 -0.1424
 3890TIP3    H135865   4.898   4.563   9.263  0.7948  0.4079 -1.1326
 3890TIP3    H235866   4.818   4.671   9.192 -2.6555 -0.5338  1.0600
 3891TIP3   OH235867   7.338   0.784   6.951 -0.6997  0.0692 -0.0216
 3891TIP3    H135868   7.424   0.745   6.935 -0.8188 -0.3083  0.2387
 3891TIP3    H235869   7.356   0.860   7.007 -0.5900 -0.3259  0.4857
 3892TIP3   OH235870   4.782   5.251   8.242 -0.2145  0.4296 -0.4053
 3892TIP3    H135871   4.838   5.303   8.184  0.3952  1.2356  0.8607
 3892TIP3    H235872   4.760   5.173   8.191  1.3353  0.5080 -1.2549
 3893TIP3   OH235873   5.879   1.804   9.481  0.0430 -0.2726  0.2354
 3893TIP3    H135874   5.818   1.731   9.473  0.9969 -0.8916 -2.7204
 3893TIP3    H235875   5.824   1.882   9.487 -1.0102 -0.9916  0.0748
 3894TIP3   OH235876   5.946   5.227   8.640  0.0833  0.4969 -0.2805
 3894TIP3    H135877   5.916   5.199   8.553 -1.3070  0.6366  0.1242
 3894TIP3    H235878   6.015   5.164   8.663  0.2265  0.2478 -1.3303
 3895TIP3   OH235879   6.662   6.826   9.205 -0.3029 -0.0607  0.0498
 3895TIP3    H135880   6.754   6.802   9.215 -0.8712 -2.5074  0.2102
 3895TIP3    H235881   6.630   6.767   9.137 -2.1636 -0.6615  1.3659
 3896TIP3   OH235882   3.741   6.340   7.357  1.1232 -0.6714 -0.1065
 3896TIP3    H135883   3.698   6.309   7.436  1.3750  0.4295  0.4738
 3896TIP3    H235884   3.686   6.411   7.325  0.9799 -1.1483 -0.9821
 3897TIP3   OH235885   4.606   4.481   9.388  0.0117 -0.3093  0.0894
 3897TIP3    H135886   4.514   4.473   9.365  0.0997 -0.3544 -0.2569
 3897TIP3    H235887   4.622   4.575   9.391 -0.2539 -0.2930  1.0090
 3898TIP3   OH235888   1.708   0.320   8.526 -0.3091 -0.0929 -0.0361
 3898TIP3    H135889   1.693   0.278   8.610  0.8768 -1.1954 -0.3199
 3898TIP3    H235890   1.662   0.403   8.530 -1.3875 -0.7327  1.1813
 3899TIP3   OH235891   5.709   4.389   8.968 -0.4663 -0.6433  0.4305
 3899TIP3    H135892   5.619   4.401   9.000 -0.1198 -0.4790  1.3776
 3899TIP3    H235893   5.723   4.462   8.907 -0.7486 -0.2778  0.7986
 3900TIP3   OH235894   6.103   3.153   7.769 -0.5205  0.2733  0.0674
 3900TIP3    H135895   6.192   3.150   7.732  0.1969 -2.0456  1.7187
 3900TIP3    H235896   6.045   3.141   7.694  0.7111 -0.9985 -0.7301
 3901TIP3   OH235897   0.382   1.010   8.572  0.5951  0.0391 -0.0031
 3901TIP3    H135898   0.391   1.004   8.477 -0.9351  1.5158 -0.2879
 3901TIP3    H235899   0.411   0.924   8.604 -1.3679 -1.5020 -2.0019
 3902TIP3   OH235900   6.807   3.825   9.662  0.3574  0.5067  0.2528
 3902TIP3    H135901   6.877   3.774   9.703 -0.4619  0.9754  2.3428
 3902TIP3    H235902   6.736   3.762   9.649  0.1902  0.6159  0.6453
 3903TIP3   OH235903   2.007   5.476   7.599 -0.2482 -0.3464  0.5375
 3903TIP3    H135904   1.981   5.393   7.560 -0.4760  0.3625 -0.8807
 3903TIP3    H235905   2.084   5.503   7.548 -0.6672  0.6978  0.4474
 3904TIP3   OH235906   4.569   6.371   7.709  0.1350 -0.5122  0.5972
 3904TIP3    H135907   4.593   6.452   7.665 -0.3089  0.0120  1.2880
 3904TIP3    H235908   4.640   6.355   7.772 -0.6041  0.2966  1.6767
 3905TIP3   OH235909   1.633   5.947   8.654  0.5700  0.2084 -0.1028
 3905TIP3    H135910   1.638   5.883   8.583 -0.0850  0.8117 -0.7050
 3905TIP3    H235911   1.545   5.937   8.689  0.7510  0.2051  0.3510
 3906TIP3   OH235912   0.128   0.883   8.964 -0.0480  0.7896  0.4850
 3906TIP3    H135913   0.156   0.974   8.969 -0.0803  0.7614  1.2484
 3906TIP3    H235914   0.178   0.839   9.034 -0.5820  0.3661  0.6023
 3907TIP3   OH235915   5.908   7.338   7.340  0.2944 -0.1446 -0.0114
 3907TIP3    H135916   5.822   7.359   7.304  0.1668  1.4175  1.1246
 3907TIP3    H235917   5.949   7.423   7.355  1.3336 -0.8248  1.1292
 3908TIP3   OH235918   7.243   4.109   7.230  0.0796  0.0054 -0.0595
 3908TIP3    H135919   7.199   4.028   7.256  0.6028 -0.0433  0.6815
 3908TIP3    H235920   7.244   4.162   7.309  1.9348 -0.2529  0.1297
 3909TIP3   OH235921   1.552   1.540   7.728  0.3142 -0.4653 -0.1085
 3909TIP3    H135922   1.569   1.451   7.697  2.0288  0.7290 -2.9984
 3909TIP3    H235923   1.565   1.595   7.651 -2.9759  2.1566  0.9408
 3910TIP3   OH235924   2.887   1.864   9.588  0.0663  0.2146 -0.8389
 3910TIP3    H135925   2.872   1.943   9.640  1.8098  0.7539 -1.0994
 3910TIP3    H235926   2.930   1.896   9.509  0.5129 -0.9735 -1.0901
 3911TIP3   OH235927   5.886   4.831   7.809 -0.6405 -0.2171 -0.2806
 3911TIP3    H135928   5.855   4.761   7.867  0.2717  0.2951  0.8603
 3911TIP3    H235929   5.979   4.840   7.830 -0.2165 -0.1735 -2.0166
 3912TIP3   OH235930   0.924   6.034   8.425 -0.1444 -0.0636  0.6599
 3912TIP3    H135931   0.841   5.993   8.447 -0.6211  0.5785  0.1086
 3912TIP3    H235932   0.900   6.107   8.368  0.7885  0.1953  0.5837
 3913TIP3   OH235933   5.074   4.782   7.930  0.2040  0.7901  0.0289
 3913TIP3    H135934   5.166   4.757   7.915 -0.1778 -0.8959  0.3147
 3913TIP3    H235935   5.034   4.780   7.843  0.3968  1.4139 -0.0806
 3914TIP3   OH235936   5.622   5.900   8.555 -0.0446 -0.0748 -0.3953
 3914TIP3    H135937   5.620   5.969   8.621 -0.5018 -0.2132 -0.2603
 3914TIP3    H235938   5.546   5.846   8.575 -1.0400  0.6938 -1.9115
 3915TIP3   OH235939   6.644   1.902   8.505  0.7332 -1.1701 -0.3492
 3915TIP3    H135940   6.713   1.920   8.568  1.2794 -1.9239 -0.7134
 3915TIP3    H235941   6.683   1.840   8.443  0.4589  0.1199 -1.8623
 3916TIP3   OH235942   3.998   0.029   9.118  0.0123 -0.0742  0.2961
 3916TIP3    H135943   3.994  -0.066   9.131 -0.0957 -0.3583 -1.4708
 3916TIP3    H235944   4.061   0.040   9.047  0.3053  1.2156  0.7423
 3917TIP3   OH235945   6.114   1.660   9.395 -0.2607 -0.3309 -0.2243
 3917TIP3    H135946   6.186   1.707   9.354  0.8171  0.1130  2.0571
 3917TIP3    H235947   6.054   1.728   9.424 -0.8302 -0.6216 -0.6927
 3918TIP3   OH235948   5.064   5.770   8.626  0.2024 -0.5432  0.1413
 3918TIP3    H135949   5.115   5.743   8.702 -0.8032 -2.7095  0.1471
 3918TIP3    H235950   4.973   5.752   8.651 -0.5663  2.4732 -0.1465
 3919TIP3   OH235951   7.145   0.822   7.506 -0.1384 -0.2909  0.1430
 3919TIP3    H135952   7.089   0.753   7.469 -1.4207  0.6714  0.2424
 3919TIP3    H235953   7.199   0.850   7.432  0.9394 -1.8760  0.2654
 3920TIP3   OH235954   3.040   1.754   9.083 -0.4614 -0.4770  0.4363
 3920TIP3    H135955   2.963   1.804   9.109  0.6154  0.9455  0.9848
 3920TIP3    H235956   3.016   1.715   9.000 -1.1978  1.3372 -0.2495
 3921TIP3   OH235957   0.585   6.909   7.168 -0.3005  0.1771 -0.1284
 3921TIP3    H135958   0.499   6.870   7.180 -0.0551 -0.5398 -0.6601
 3921TIP3    H235959   0.615   6.878   7.083  1.1026 -0.7802  0.6629
 3922TIP3   OH235960   0.550   2.175   8.352  0.1756  0.0835 -0.4178
 3922TIP3    H135961   0.457   2.160   8.369 -0.0562  2.5513  0.9815
 3922TIP3    H235962   0.593   2.146   8.433  0.3015  1.4236  0.0151
 3923TIP3   OH235963   0.462   1.118   7.425 -0.0105 -0.6054 -0.5543
 3923TIP3    H135964   0.434   1.166   7.348  2.0323  0.2826 -0.8115
 3923TIP3    H235965   0.462   1.026   7.398 -1.6365 -0.5657 -0.8011
 3924TIP3   OH235966   0.635   2.153   7.460  0.0457  0.4737 -0.1772
 3924TIP3    H135967   0.676   2.217   7.520 -1.4664  0.8606  0.4829
 3924TIP3    H235968   0.546   2.186   7.447 -0.6440 -1.3004 -0.1497
 3925TIP3   OH235969   6.243   5.092   7.274 -0.3089 -0.2797  0.8170
 3925TIP3    H135970   6.209   5.181   7.267  0.0071 -0.1693  0.6551
 3925TIP3    H235971   6.266   5.068   7.184 -0.8204 -0.6953  0.7935
 3926TIP3   OH235972   6.129   2.814   8.371  0.2216  0.1056  0.4952
 3926TIP3    H135973   6.195   2.847   8.311 -0.2169  0.7199  0.3300
 3926TIP3    H235974   6.171   2.742   8.417  1.2177  0.8764  0.8403
 3927TIP3   OH235975   6.342   1.083   8.494 -0.1118 -0.1309 -0.5684
 3927TIP3    H135976   6.429   1.047   8.476 -0.3883  0.4845 -3.4753
 3927TIP3    H235977   6.323   1.140   8.420 -2.2966  1.1230  0.8481
 3928TIP3   OH235978   0.186   0.455   9.490  0.2137 -0.4233 -0.2588
 3928TIP3    H135979   0.261   0.398   9.510  2.6036  2.3509 -0.5634
 3928TIP3    H235980   0.154   0.482   9.576  2.6369  1.9558  0.0006
 3929TIP3   OH235981   3.965   6.048   9.246  0.3487  0.3745 -0.8007
 3929TIP3    H135982   3.936   6.055   9.155  1.3481 -2.6765 -1.4688
 3929TIP3    H235983   3.892   6.007   9.292 -0.4246  2.5118  0.0362
 3930TIP3   OH235984   0.840   4.551   6.958  0.1036 -0.5031  0.6218
 3930TIP3    H135985   0.825   4.534   6.865 -1.0497  2.6303  0.1145
 3930TIP3    H235986   0.790   4.482   7.003 -1.7889 -0.3710 -1.1175
 3931TIP3   OH235987   4.699   4.741   9.050  0.4812 -0.2346 -0.1216
 3931TIP3    H135988   4.783   4.764   9.010  0.8960 -0.7105  0.4726
 3931TIP3    H235989   4.641   4.725   8.975  0.8143  0.4318 -0.5386
 3932TIP3   OH235990   7.176   5.965   8.863 -0.4086 -0.6055 -0.0902
 3932TIP3    H135991   7.213   5.892   8.912  0.2384 -0.0450  0.2827
 3932TIP3    H235992   7.250   5.999   8.813 -0.5243  0.2458  0.3037
 3933TIP3   OH235993   4.915   5.950   9.378 -0.2493 -0.1432  0.1313
 3933TIP3    H135994   4.890   5.858   9.366  0.0053 -0.4972  1.9777
 3933TIP3    H235995   4.854   5.982   9.445  0.1324  0.8295  0.0232
 3934TIP3   OH235996   6.096   7.150   7.849  0.2457  0.3929  0.2303
 3934TIP3    H135997   6.008   7.152   7.810 -0.2768 -1.2177  1.2409
 3934TIP3    H235998   6.102   7.063   7.890  2.1029  0.6935  0.6678
 3935TIP3   OH235999   1.732   0.107   9.071  0.0721 -0.2188 -0.1960
 3935TIP3    H136000   1.679   0.027   9.073  0.2402 -0.3704 -1.3561
 3935TIP3    H236001   1.680   0.171   9.119 -1.4293 -0.2229 -1.7512
 3936TIP3   OH236002   2.826   0.158   7.799  0.1375  0.6677 -0.3702
 3936TIP3    H136003   2.786   0.087   7.850  2.2281 -0.2391  0.1191
 3936TIP3    H236004   2.808   0.237   7.850  0.0741  0.1039  0.5124
 3937TIP3   OH236005   3.627   5.371   8.746 -0.2680  0.0676 -0.0612
 3937TIP3    H136006   3.570   5.298   8.769 -1.0795  0.8678  0.5762
 3937TIP3    H236007   3.679   5.339   8.672  0.2732 -1.5523  0.9629
 3938TIP3   OH236008   5.544   6.828   8.332 -0.2963 -0.6440 -0.6986
 3938TIP3    H136009   5.613   6.809   8.395 -1.1923 -1.0320  0.1837
 3938TIP3    H236010   5.525   6.921   8.343 -0.7168 -0.7970 -0.1215
 3939TIP3   OH236011   4.569   0.532   7.249  0.0477 -0.1192  0.2118
 3939TIP3    H136012   4.487   0.482   7.253 -0.1496  0.1782 -0.0461
 3939TIP3    H236013   4.541   0.622   7.234  0.4312 -0.0374 -0.0248
 3940TIP3   OH236014   4.640   5.857   7.511  0.7058  0.0994 -0.1097
 3940TIP3    H136015   4.631   5.908   7.591 -1.2048 -1.9171  1.0998
 3940TIP3    H236016   4.675   5.773   7.541  0.7224 -0.4134 -1.5010
 3941TIP3   OH236017   6.368   6.025   7.494 -0.4615 -0.2267  0.5570
 3941TIP3    H136018   6.385   6.047   7.585 -0.7236 -1.5765  0.9446
 3941TIP3    H236019   6.280   6.057   7.478 -0.1391  0.6893  0.5370
 3942TIP3   OH236020   0.164   5.737   7.868  0.3917 -0.4044 -0.1829
 3942TIP3    H136021   0.093   5.787   7.829  0.6856  0.1960  0.0363
 3942TIP3    H236022   0.238   5.751   7.809 -0.0043 -2.1127 -1.1416
 3943TIP3   OH236023   2.036   7.395   6.515  0.0873  0.0218  0.2382
 3943TIP3    H136024   2.074   7.471   6.558  0.0151  0.6615 -0.8026
 3943TIP3    H236025   1.942   7.413   6.512 -0.1666 -0.9124  1.5323
 3944TIP3   OH236026   3.951   5.015   8.452  0.1040 -0.4815 -0.3399
 3944TIP3    H136027   4.035   5.028   8.407  0.1253 -1.5088 -0.6206
 3944TIP3    H236028   3.909   4.944   8.404 -1.1841  0.3736 -0.5508
 3945TIP3   OH236029   0.984   0.873   9.203  0.2881  0.2368  0.6852
 3945TIP3    H136030   0.921   0.912   9.263  0.2591  0.4158  0.5379
 3945TIP3    H236031   1.069   0.885   9.247  0.6214  2.7378 -0.4657
 3946TIP3   OH236032   5.483   6.320   8.466  0.3251  0.3875  0.5879
 3946TIP3    H136033   5.406   6.324   8.523 -2.2934 -2.4198 -2.3156
 3946TIP3    H236034   5.448   6.337   8.379  2.5844 -2.7666 -1.1164
 3947TIP3   OH236035   6.144   1.717   7.618 -0.1823 -0.4043 -0.0016
 3947TIP3    H136036   6.072   1.680   7.668  0.2572 -1.4018 -0.0866
 3947TIP3    H236037   6.206   1.645   7.609  1.3239  0.7059  0.9923
 3948TIP3   OH236038   0.741   2.461   9.091 -0.0059  0.5330  0.2606
 3948TIP3    H136039   0.736   2.427   9.002 -0.2554  1.0727  0.0656
 3948TIP3    H236040   0.656   2.502   9.106 -0.6404 -1.0680  1.3748
 3949TIP3   OH236041   2.335   2.339   9.280  0.3294  0.0476  0.9023
 3949TIP3    H136042   2.245   2.369   9.287  0.6447  0.6718  2.7363
 3949TIP3    H236043   2.350   2.286   9.359  0.3967 -3.4611 -1.2464
 3950TIP3   OH236044   5.951   5.554   9.644 -0.4193 -0.0122  0.7939
 3950TIP3    H136045   5.964   5.481   9.705  0.6890 -1.0251 -0.5631
 3950TIP3    H236046   6.000   5.528   9.566 -1.4568  1.4095 -0.3863
 3951TIP3   OH236047   4.424   0.062   9.678  0.2105 -0.1434 -0.3283
 3951TIP3    H136048   4.382   0.087   9.761 -0.4926  1.8588 -1.2214
 3951TIP3    H236049   4.454  -0.028   9.692 -0.6408 -0.1473  1.7996
 3952TIP3   OH236050   4.191   6.224   8.894  0.2508 -0.2998 -0.0878
 3952TIP3    H136051   4.205   6.302   8.947  0.2064 -0.6315  0.4111
 3952TIP3    H236052   4.118   6.179   8.936 -0.6255  0.0719 -1.1592
 3953TIP3   OH236053   2.625   5.574   8.273 -0.3366  0.3607 -0.1595
 3953TIP3    H136054   2.574   5.511   8.324 -0.0099  0.2800  0.0686
 3953TIP3    H236055   2.561   5.617   8.217 -0.6605  0.2881  0.1563
 3954TIP3   OH236056   5.418   1.094   7.850  0.1478 -0.4927  0.0487
 3954TIP3    H136057   5.427   1.005   7.815  0.5621 -0.7209  0.7243
 3954TIP3    H236058   5.462   1.091   7.935  0.7270  0.5229 -0.2019
 3955TIP3   OH236059   4.655   1.856   7.972 -0.6365 -0.0468  0.1352
 3955TIP3    H136060   4.721   1.905   8.022  1.1018  0.1919 -2.2209
 3955TIP3    H236061   4.644   1.907   7.891 -0.0102 -2.6481 -1.6875
 3956TIP3   OH236062   6.588   3.903   9.139  0.0083 -1.0084  0.4565
 3956TIP3    H136063   6.498   3.919   9.170 -0.8005  0.3142 -2.2524
 3956TIP3    H236064   6.600   3.808   9.149 -2.2066 -1.4345 -0.2649
 3957TIP3   OH236065   2.063   2.308   8.011 -0.0564  0.1378  0.6709
 3957TIP3    H136066   2.001   2.340   7.946 -0.4866 -0.3274  0.8471
 3957TIP3    H236067   2.096   2.226   7.975  0.5843  0.4650  0.5016
 3958TIP3   OH236068   0.106   4.441   8.443 -0.4554  0.0631 -0.1200
 3958TIP3    H136069   0.059   4.358   8.434 -0.7021  0.2325 -0.4101
 3958TIP3    H236070   0.052   4.504   8.397 -1.7798  1.0118  2.5416
 3959TIP3   OH236071   6.828   0.880   7.394 -0.2358  0.0020 -0.7205
 3959TIP3    H136072   6.739   0.915   7.392 -0.2442 -0.0363 -2.4549
 3959TIP3    H236073   6.882   0.950   7.356  0.9175  1.0157  2.4394
 3960TIP3   OH236074   5.267   5.277   7.985  0.3802  0.0368 -0.3592
 3960TIP3    H136075   5.281   5.291   7.891  0.5756  0.7334 -0.2342
 3960TIP3    H236076   5.245   5.184   7.993  2.7333 -0.6424 -0.8458
 3961TIP3   OH236077   4.499   2.079   9.163  0.0434 -0.0149  0.0891
 3961TIP3    H136078   4.412   2.042   9.161  0.1944 -0.4417  0.8697
 3961TIP3    H236079   4.488   2.169   9.130 -0.5441 -0.3136 -0.5415
 3962TIP3   OH236080   6.669   4.468   9.543 -0.4228 -0.2320  0.6989
 3962TIP3    H136081   6.686   4.558   9.571  0.7796 -0.5169  0.9538
 3962TIP3    H236082   6.576   4.466   9.522  0.0068  1.7278 -1.7771
 3963TIP3   OH236083   2.428   5.442   8.063 -0.2806  1.3207  0.5181
 3963TIP3    H136084   2.510   5.485   8.090 -1.5602  3.6616  1.0095
 3963TIP3    H236085   2.422   5.459   7.969  0.4409 -0.1063  0.1856
 3964TIP3   OH236086   0.818   5.409   9.542  0.0472 -0.5397  0.2470
 3964TIP3    H136087   0.907   5.376   9.539 -0.0786 -1.0280 -3.8177
 3964TIP3    H236088   0.827   5.504   9.541  0.5129 -0.5799  0.4567
 3965TIP3   OH236089   0.379   5.948   7.518 -1.1958  0.4221 -0.1874
 3965TIP3    H136090   0.361   5.941   7.612 -0.7514  0.0716 -0.1309
 3965TIP3    H236091   0.474   5.946   7.511 -1.2282  0.4030 -0.6515
 3966TIP3   OH236092   4.910   0.104   7.917  0.3002 -0.3055 -0.0968
 3966TIP3    H136093   4.928   0.170   7.983 -0.0949  1.3099 -1.5194
 3966TIP3    H236094   4.996   0.070   7.893  0.7484  1.2087 -0.7897
 3967TIP3   OH236095   4.318   0.703   7.565 -0.2638 -0.2363  0.0892
 3967TIP3    H136096   4.247   0.708   7.629 -0.3795  0.0792 -0.0586
 3967TIP3    H236097   4.379   0.639   7.601  0.1315  0.6107  0.9874
 3968TIP3   OH236098   2.142   4.380   7.836 -0.4654 -0.4756 -0.0115
 3968TIP3    H136099   2.100   4.454   7.792 -1.8951 -2.1673 -1.6746
 3968TIP3    H236100   2.114   4.388   7.927 -0.7322  0.9171 -0.1894
 3969TIP3   OH236101   1.633   0.760   7.544  0.0544  0.1252 -0.5042
 3969TIP3    H136102   1.657   0.824   7.610 -1.1618 -1.0833  1.1924
 3969TIP3    H236103   1.539   0.747   7.555  0.5964 -3.9425  1.2313
 3970TIP3   OH236104   2.491   3.361   8.830  0.1239  0.3000 -0.4503
 3970TIP3    H136105   2.397   3.345   8.838 -0.0221  1.0991 -0.4773
 3970TIP3    H236106   2.521   3.375   8.920 -0.1436  1.9272 -0.5927
 3971TIP3   OH236107   2.072   2.719   7.200 -0.9175 -0.0145 -0.1812
 3971TIP3    H136108   2.020   2.791   7.234 -0.5040 -0.0708  0.6096
 3971TIP3    H236109   2.150   2.761   7.164 -0.7450 -0.0510  0.1457
 3972TIP3   OH236110   5.823   3.116   9.310 -0.0892  0.0586  0.1472
 3972TIP3    H136111   5.729   3.126   9.292 -0.7257 -2.8245  1.2521
 3972TIP3    H236112   5.828   3.101   9.405  1.5621  0.5706  0.1780
 3973TIP3   OH236113   3.991   7.277   7.362  0.1764  0.1845 -0.9534
 3973TIP3    H136114   3.900   7.251   7.379  0.4667  0.1277  0.6688
 3973TIP3    H236115   4.023   7.212   7.300 -0.4334 -0.7489 -0.3225
 3974TIP3   OH236116   0.716   0.139   6.968  0.4157 -0.2261 -0.2570
 3974TIP3    H136117   0.764   0.216   6.997  0.0263  0.3806 -1.1798
 3974TIP3    H236118   0.762   0.110   6.890 -0.0353 -0.3173 -0.4936
 3975TIP3   OH236119   4.699   1.464   9.381  0.1302 -0.0881 -0.3003
 3975TIP3    H136120   4.712   1.510   9.464 -2.4411 -0.5467  0.4387
 3975TIP3    H236121   4.690   1.533   9.316  1.5571  0.2809 -0.1542
 3976TIP3   OH236122   5.805   1.658   8.666 -0.0218 -0.0603 -0.6343
 3976TIP3    H136123   5.811   1.679   8.759  0.0150 -0.5480 -0.5229
 3976TIP3    H236124   5.891   1.622   8.644 -0.3786 -0.9785 -0.5868
 3977TIP3   OH236125   5.238   7.315   8.564 -0.8315  0.2795  0.0216
 3977TIP3    H136126   5.225   7.410   8.560 -1.9678  0.1066 -0.9711
 3977TIP3    H236127   5.253   7.289   8.473 -2.7148 -0.7508 -0.0419
 3978TIP3   OH236128   2.031   0.804   7.879 -0.9279  0.7899 -0.1425
 3978TIP3    H136129   2.120   0.772   7.893  0.1724  0.1763 -5.9825
 3978TIP3    H236130   2.042   0.895   7.851 -2.3027  1.0480  0.0756
 3979TIP3   OH236131   2.024   1.479   7.332 -0.0867  0.2992 -0.1749
 3979TIP3    H136132   1.994   1.390   7.312 -0.4547  0.2736  0.4697
 3979TIP3    H236133   2.119   1.476   7.319 -0.0670 -0.2464  0.0589
 3980TIP3   OH236134   1.606   7.262   8.596 -0.4616  0.6406 -0.7838
 3980TIP3    H136135   1.636   7.171   8.585 -0.0880  0.6701 -0.0996
 3980TIP3    H236136   1.511   7.257   8.589 -0.4296  0.2265 -0.9576
 3981TIP3   OH236137   4.496   7.494   7.301  0.1260  0.6680 -0.0390
 3981TIP3    H136138   4.504   7.426   7.234 -3.1382  1.9647 -2.0072
 3981TIP3    H236139   4.429   7.461   7.360  0.5770  0.9659  0.6464
 3982TIP3   OH236140   2.751   6.348   8.746  0.3342 -0.2600  0.9252
 3982TIP3    H136141   2.833   6.381   8.782  0.7532 -0.9124  0.5902
 3982TIP3    H236142   2.759   6.253   8.753 -0.3750 -0.3271  0.8483
 3983TIP3   OH236143   3.584   6.537   6.856  0.0333 -0.5765 -0.3918
 3983TIP3    H136144   3.544   6.469   6.801 -0.5607  0.4568 -1.2591
 3983TIP3    H236145   3.555   6.619   6.818 -0.4498  0.1868  1.5331
 3984TIP3   OH236146   1.662   4.751   8.906  0.1915  0.3640 -0.3231
 3984TIP3    H136147   1.653   4.656   8.909  0.5346  0.3463  0.3292
 3984TIP3    H236148   1.755   4.766   8.888  0.2972  0.5743  0.3675
 3985TIP3   OH236149   6.444   7.181   7.029  0.0951 -0.6208  0.0365
 3985TIP3    H136150   6.405   7.194   6.942 -0.2772 -0.2185  0.2572
 3985TIP3    H236151   6.536   7.161   7.011  0.6088  1.7985 -0.3940
 3986TIP3   OH236152   0.441   3.710   9.682  0.2833  0.4497 -0.1883
 3986TIP3    H136153   0.501   3.675   9.748  0.3244 -2.4530 -1.6254
 3986TIP3    H236154   0.378   3.763   9.732  1.2071 -0.3780  1.9565
 3987TIP3   OH236155   6.803   6.076   8.133 -0.3501  0.1401  0.1213
 3987TIP3    H136156   6.831   6.151   8.185 -1.9300  0.2615  0.8504
 3987TIP3    H236157   6.780   6.009   8.197 -0.7328 -0.3025 -0.4658
 3988TIP3   OH236158   3.008   1.667   8.826 -0.0714 -0.4719  0.0096
 3988TIP3    H136159   3.079   1.718   8.787 -0.2950  0.7309  1.1293
 3988TIP3    H236160   2.961   1.631   8.751  1.4000 -0.8863 -0.7711
 3989TIP3   OH236161   1.533   7.131   7.526  0.5315 -0.2731  0.4119
 3989TIP3    H136162   1.567   7.058   7.475  1.2318 -0.1062  0.6382
 3989TIP3    H236163   1.576   7.209   7.490  1.7484 -0.2417  1.8457
 3990TIP3   OH236164   0.688   4.826   7.439  0.3031  0.0381 -0.0128
 3990TIP3    H136165   0.685   4.771   7.518 -0.1578 -0.0932 -0.1175
 3990TIP3    H236166   0.780   4.829   7.416  0.7569  1.8835  1.7898
 3991TIP3   OH236167   2.445   5.515   7.802 -0.7046 -0.6188  0.0418
 3991TIP3    H136168   2.451   5.443   7.738 -0.4811 -1.1278  0.6257
 3991TIP3    H236169   2.462   5.594   7.751  0.8287 -1.1286 -0.2777
 3992TIP3   OH236170   3.062   1.679   8.439  0.4755  0.3885 -0.0480
 3992TIP3    H136171   3.106   1.696   8.522 -1.0751 -0.7560  1.0602
 3992TIP3    H236172   3.134   1.659   8.378  1.6101  0.6068  1.1678
 3993TIP3   OH236173   6.337   2.473   8.793  0.3094  0.0478  0.4442
 3993TIP3    H136174   6.301   2.562   8.795  0.7928  0.2879 -0.6312
 3993TIP3    H236175   6.276   2.423   8.740 -0.2122 -0.4001  1.4351
 3994TIP3   OH236176   5.758   0.712   7.090 -0.5410 -0.0460  0.3012
 3994TIP3    H136177   5.816   0.661   7.147 -1.3648  0.9046  2.0667
 3994TIP3    H236178   5.808   0.791   7.070 -0.2489 -0.3832 -0.3132
 3995TIP3   OH236179   2.459   5.030   6.369  0.4320 -0.0534 -0.0710
 3995TIP3    H136180   2.534   5.088   6.359  0.2103  0.8302  2.6358
 3995TIP3    H236181   2.489   4.960   6.427 -0.6835  0.0638  0.6867
 3996TIP3   OH236182   3.528   4.546   9.106  0.2000  0.0210 -0.1660
 3996TIP3    H136183   3.598   4.572   9.166  0.0782  0.9511 -0.4072
 3996TIP3    H236184   3.526   4.450   9.112  0.1558  0.0931  1.3454
 3997TIP3   OH236185   5.625   1.453   8.447 -0.1735 -1.1352  0.2129
 3997TIP3    H136186   5.705   1.505   8.456  0.7493 -2.5647  0.7325
 3997TIP3    H236187   5.586   1.452   8.534 -1.2437  0.2620 -0.2282
 3998TIP3   OH236188   2.716   6.635   9.922 -0.2767  0.3786  0.2401
 3998TIP3    H136189   2.795   6.689   9.923  0.7986 -0.9946 -2.2553
 3998TIP3    H236190   2.718   6.588  10.006  1.5146  0.4844  0.2896
 3999TIP3   OH236191   1.285   6.760   8.137 -0.5919 -0.2957 -0.1385
 3999TIP3    H136192   1.310   6.753   8.045 -1.1224  1.4229 -0.4628
 3999TIP3    H236193   1.208   6.818   8.136  0.0830  0.6909  1.4612
 4000TIP3   OH236194   3.490   4.443   7.823 -0.0396  0.3638 -0.1884
 4000TIP3    H136195   3.426   4.384   7.863  0.2123 -1.0336 -1.7210
 4000TIP3    H236196   3.441   4.523   7.806 -0.7975  0.0884  0.6434
 4001TIP3   OH236197   5.819   3.983   8.104  0.4796  0.4052  0.4216
 4001TIP3    H136198   5.831   4.000   8.197  2.0739 -0.0986  0.3414
 4001TIP3    H236199   5.799   3.890   8.099  1.2114  0.2491  0.2260
 4002TIP3   OH236200   5.968   5.699   8.759 -0.1521 -0.4725 -0.3019
 4002TIP3    H136201   5.999   5.668   8.844 -0.8846  2.4104  1.1657
 4002TIP3    H236202   6.002   5.789   8.752 -1.8290  0.1066 -2.1071
 4003TIP3   OH236203   0.666   1.022   7.687  0.4992  0.1658  0.2738
 4003TIP3    H136204   0.605   0.964   7.641 -0.0122 -0.1859  1.3380
 4003TIP3    H236205   0.703   0.967   7.757  0.2102  1.0281  1.1335
 4004TIP3   OH236206   4.795   4.921   8.468 -0.2089  0.0894  0.3065
 4004TIP3    H136207   4.791   4.913   8.372 -0.5547  0.1992  0.3093
 4004TIP3    H236208   4.771   4.835   8.501  0.2861 -0.0576  0.2934
 4005TIP3   OH236209   1.506   6.446   9.316 -0.1245 -0.0661  0.8733
 4005TIP3    H136210   1.526   6.353   9.326 -0.2584 -0.5206 -2.2598
 4005TIP3    H236211   1.562   6.475   9.244 -1.2036  1.9173  0.7569
 4006TIP3   OH236212   4.500   0.443   7.629 -0.0382 -0.0552 -0.2034
 4006TIP3    H136213   4.426   0.421   7.686 -0.0287 -0.5678 -0.3851
 4006TIP3    H236214   4.532   0.358   7.597  0.6722  0.1552 -0.0717
 4007TIP3   OH236215   7.413   4.905   7.996  0.8392  0.4509  0.1038
 4007TIP3    H136216   7.352   4.969   8.033  0.4312  0.0419  0.1476
 4007TIP3    H236217   7.407   4.831   8.056  0.6117  0.0125 -0.4602
 4008TIP3   OH236218   5.721   7.344   9.443  0.2561  0.5754  0.2999
 4008TIP3    H136219   5.743   7.299   9.361  0.1273 -0.5710  0.8832
 4008TIP3    H236220   5.703   7.274   9.506  0.9580  1.4208  1.4874
 4009TIP3   OH236221   3.637   7.132   7.816  0.1108  0.0417  0.4453
 4009TIP3    H136222   3.635   7.224   7.842  2.1802 -0.2127  1.6920
 4009TIP3    H236223   3.618   7.084   7.897  1.0810 -0.6560  0.2731
 4010TIP3   OH236224   2.822   4.809   8.892  0.3291 -0.0088 -0.0027
 4010TIP3    H136225   2.860   4.722   8.875 -1.6850 -0.7240 -1.1869
 4010TIP3    H236226   2.888   4.854   8.946  1.9043 -1.8686 -0.2631
 4011TIP3   OH236227   0.409   2.620   8.493 -0.3483 -0.6954  0.1364
 4011TIP3    H136228   0.363   2.702   8.506  0.6312  0.0519 -0.9209
 4011TIP3    H236229   0.386   2.567   8.569  0.0941  1.0634  1.5456
 4012TIP3   OH236230   0.602   5.263   9.637  0.2242  0.5479 -0.5398
 4012TIP3    H136231   0.592   5.280   9.730 -1.6424 -1.2241 -0.3315
 4012TIP3    H236232   0.694   5.281   9.618  0.6260  0.9806  1.6142
 4013TIP3   OH236233   0.651   2.687   7.964 -0.9195  0.2135 -0.1385
 4013TIP3    H136234   0.564   2.652   7.986 -1.1541  0.4248 -0.7207
 4013TIP3    H236235   0.660   2.765   8.019 -0.9406 -0.0110  0.1917
 4014TIP3   OH236236   3.120   0.185   9.459  0.2180 -0.1395  0.3024
 4014TIP3    H136237   3.187   0.164   9.394 -0.6508  0.1316 -0.7095
 4014TIP3    H236238   3.120   0.110   9.519 -0.9502 -1.8425 -1.6821
 4015TIP3   OH236239   3.123   6.519   9.120 -0.4402 -0.1842  0.4321
 4015TIP3    H136240   3.067   6.593   9.143 -0.2455 -0.6124  2.5276
 4015TIP3    H236241   3.103   6.452   9.186  1.0861 -1.1107  0.0213
 4016TIP3   OH236242   3.185   2.587   8.969  0.4597 -0.1921  0.2190
 4016TIP3    H136243   3.191   2.661   9.030 -0.1188  0.1309 -0.1004
 4016TIP3    H236244   3.168   2.511   9.024 -1.7774  0.3481  0.3778
 4017TIP3   OH236245   2.053   3.177   9.188  0.3815 -0.3762  0.3926
 4017TIP3    H136246   2.078   3.217   9.105  1.7700 -1.8625  0.0488
 4017TIP3    H236247   1.983   3.233   9.221 -0.0804  0.3686 -1.6711
 4018TIP3   OH236248   0.066   5.152   8.126  0.2950  0.1268 -0.4307
 4018TIP3    H136249  -0.001   5.097   8.085  0.5383 -0.8225  0.3927
 4018TIP3    H236250   0.145   5.097   8.125  0.9706  1.0873 -1.0570
 4019TIP3   OH236251   3.650   5.659   8.202  0.2496 -0.0832  0.0428
 4019TIP3    H136252   3.586   5.612   8.150 -0.1032  0.4955 -0.0510
 4019TIP3    H236253   3.677   5.597   8.269 -0.9578 -0.0889  0.5421
 4020TIP3   OH236254   4.960   2.199   7.455  0.2694 -0.4595  0.0902
 4020TIP3    H136255   4.997   2.266   7.398  0.3574 -0.5838  0.0028
 4020TIP3    H236256   4.887   2.243   7.499  1.0041  0.0223  0.8549
 4021TIP3   OH236257   0.895   2.121   9.163 -0.5957  0.5776 -0.0050
 4021TIP3    H136258   0.979   2.167   9.170 -0.7533  1.2635 -1.9300
 4021TIP3    H236259   0.832   2.183   9.199 -0.1198 -0.8135  3.5750
 4022TIP3   OH236260   2.718   1.984   8.563  0.5863  0.3819  0.3793
 4022TIP3    H136261   2.683   1.974   8.474 -0.1518 -1.1371  0.8087
 4022TIP3    H236262   2.676   2.063   8.596  0.5592  0.7366 -0.4662
 4023TIP3   OH236263   4.264   6.842   6.852  0.3061 -0.1726  0.3019
 4023TIP3    H136264   4.208   6.778   6.808  0.0500 -0.2699  0.7672
 4023TIP3    H236265   4.236   6.926   6.816  0.9957 -0.3493 -0.6991
 4024TIP3   OH236266   6.401   0.039   8.940  0.2272 -0.0781  0.5001
 4024TIP3    H136267   6.394  -0.047   8.900  1.2305  0.9259 -1.9902
 4024TIP3    H236268   6.310   0.065   8.956 -0.2289 -0.5083 -1.2349
 4025TIP3   OH236269   1.576   5.016   7.337  0.0966 -0.1596  0.1136
 4025TIP3    H136270   1.669   4.998   7.325 -0.3340 -1.4212 -1.8079
 4025TIP3    H236271   1.571   5.064   7.420  2.3853 -0.4697  0.4926
 4026TIP3   OH236272   7.027   7.206   9.203 -0.6463 -0.2671  0.7769
 4026TIP3    H136273   7.023   7.278   9.140 -0.6420 -0.6207  0.3662
 4026TIP3    H236274   6.973   7.137   9.164  1.3444 -1.4397 -0.0961
 4027TIP3   OH236275   0.702   2.390   7.243  0.4283 -0.3115 -0.0334
 4027TIP3    H136276   0.669   2.347   7.322  0.4930 -1.3127 -0.5366
 4027TIP3    H236277   0.692   2.324   7.174  1.1900  0.2411 -0.6867
 4028TIP3   OH236278   3.225   3.523   9.646  0.2928 -0.8640  0.2260
 4028TIP3    H136279   3.197   3.446   9.596 -0.4367 -0.7990  0.5208
 4028TIP3    H236280   3.320   3.514   9.653  0.2087 -1.7495  0.2907
 4029TIP3   OH236281   4.845   4.364   9.334  0.1215  0.0315  0.4091
 4029TIP3    H136282   4.768   4.413   9.363 -0.7630 -0.7102 -0.6072
 4029TIP3    H236283   4.810   4.295   9.277  1.4950 -0.6389  0.3289
 4030TIP3   OH236284   0.144   1.928   8.871  0.4685  0.0658 -0.0403
 4030TIP3    H136285   0.189   1.856   8.827  0.6951 -0.1718  0.5717
 4030TIP3    H236286   0.210   1.967   8.929  0.9363  2.0138 -1.7458
 4031TIP3   OH236287   4.243   1.320   9.514  0.6320 -0.1766 -0.1735
 4031TIP3    H136288   4.251   1.408   9.549 -0.5863  0.8044 -2.1677
 4031TIP3    H236289   4.333   1.294   9.493  1.0006  0.5659  0.4342
 4032TIP3   OH236290   1.769   4.606   7.537 -0.0108 -0.1738 -0.1269
 4032TIP3    H136291   1.802   4.637   7.453 -0.5411  0.9347  0.0498
 4032TIP3    H236292   1.709   4.535   7.514 -3.3779  2.7033 -1.1301
 4033TIP3   OH236293   4.862   6.686   7.938 -1.0076 -0.8148 -0.4798
 4033TIP3    H136294   4.845   6.780   7.935 -1.2824 -0.8825 -1.3923
 4033TIP3    H236295   4.876   6.661   7.846  2.4001 -1.0997 -0.0110
 4034TIP3   OH236296   1.410   7.412   8.820 -0.5034 -0.3398 -0.1624
 4034TIP3    H136297   1.353   7.390   8.893  0.5897 -2.2816  0.1667
 4034TIP3    H236298   1.375   7.362   8.746 -0.3172 -0.0918 -0.4209
 4035TIP3   OH236299   4.293   6.520   8.542 -0.0691 -0.0368  0.4371
 4035TIP3    H136300   4.289   6.499   8.635 -2.7130 -2.4372 -0.0762
 4035TIP3    H236301   4.202   6.520   8.513  0.6016  1.4601 -2.0409
 4036TIP3   OH236302   4.275   1.379   9.160  0.3436 -0.1226 -0.0923
 4036TIP3    H136303   4.329   1.403   9.235  1.4074  2.0317 -1.4637
 4036TIP3    H236304   4.259   1.285   9.171 -0.1894  0.2441  3.1772
 4037TIP3   OH236305   4.782   7.167   9.807  0.3848 -0.0686 -0.1194
 4037TIP3    H136306   4.860   7.112   9.810  0.1571 -0.4050 -0.3922
 4037TIP3    H236307   4.729   7.138   9.881  0.3660 -0.0616 -0.1302
 4038TIP3   OH236308   3.529   6.192   8.019 -0.4154 -0.1809 -0.8269
 4038TIP3    H136309   3.451   6.246   8.025 -0.8656 -0.6971 -1.7848
 4038TIP3    H236310   3.510   6.130   7.948  1.1154  0.1291 -1.5549
 4039TIP3   OH236311   3.516   5.641   7.199  0.5649 -0.1855  0.0711
 4039TIP3    H136312   3.554   5.570   7.147  1.0069  0.0877  0.0156
 4039TIP3    H236313   3.507   5.713   7.137  1.8094  0.3920  0.5512
 4040TIP3   OH236314   7.494   3.188   7.167  0.3719  0.8564  0.0815
 4040TIP3    H136315   7.432   3.163   7.235 -0.8800 -1.6058 -1.7811
 4040TIP3    H236316   7.456   3.266   7.128  1.1793  2.3859  2.1666
 4041TIP3   OH236317   1.786   3.438   8.468 -0.1726 -0.0204 -0.1120
 4041TIP3    H136318   1.846   3.409   8.536 -1.1435 -0.4825  0.5570
 4041TIP3    H236319   1.838   3.433   8.387  0.9317  0.3747  0.5489
 4042TIP3   OH236320   4.158   5.514   7.011 -0.6620 -0.6294 -0.4633
 4042TIP3    H136321   4.224   5.490   6.947  0.2454  1.1035 -0.2308
 4042TIP3    H236322   4.207   5.534   7.091 -1.1229  2.7981 -0.8723
 4043TIP3   OH236323   2.130   6.816   9.573  0.2373 -0.0626 -0.1351
 4043TIP3    H136324   2.043   6.781   9.553 -0.1263 -0.5047  1.9765
 4043TIP3    H236325   2.121   6.911   9.565 -0.7275 -0.0404  0.9277
 4044TIP3   OH236326   6.577   7.412   7.634 -0.2445  0.3474 -0.2490
 4044TIP3    H136327   6.652   7.369   7.593 -0.6379  0.1774 -0.8050
 4044TIP3    H236328   6.507   7.406   7.568 -1.0828 -0.5050  0.6828
 4045TIP3   OH236329   7.125   0.147   8.805  0.4360  0.1259 -0.0130
 4045TIP3    H136330   7.031   0.135   8.816  0.0708  1.1187 -1.6974
 4045TIP3    H236331   7.141   0.138   8.711  1.8173  1.1744  0.0706
 4046TIP3   OH236332   7.198   7.106   8.923  0.1483 -0.5911  0.2546
 4046TIP3    H136333   7.213   7.067   8.837  1.6235 -0.0572  0.2463
 4046TIP3    H236334   7.152   7.038   8.973  1.7973 -1.9896 -0.0570
 4047TIP3   OH236335   0.984   1.434   6.872 -0.1829  0.0967  0.1838
 4047TIP3    H136336   1.031   1.473   6.799 -2.0730 -0.1426 -1.2293
 4047TIP3    H236337   1.049   1.380   6.917  1.5707  1.9745  0.0448
 4048TIP3   OH236338   7.226   0.996   8.514  0.0659  0.9337 -0.0092
 4048TIP3    H136339   7.320   1.011   8.507  0.1712  0.3431  0.1126
 4048TIP3    H236340   7.200   0.968   8.426  0.0220  0.9784 -0.0106
 4049TIP3   OH236341   3.374   4.049   8.713  0.7631 -0.1588 -0.5794
 4049TIP3    H136342   3.425   4.016   8.639  3.2125  0.9221  0.5126
 4049TIP3    H236343   3.429   4.031   8.789 -1.3945 -0.6447  0.9441
 4050TIP3   OH236344   7.036   2.473   7.650 -0.0686  0.1016  0.9996
 4050TIP3    H136345   7.063   2.383   7.628  0.1029  0.4878 -0.4572
 4050TIP3    H236346   6.943   2.475   7.631  0.4760  1.0490 -1.9943
 4051TIP3   OH236347   2.650   6.335   8.000  0.0726 -0.2522 -0.3661
 4051TIP3    H136348   2.634   6.346   8.094 -0.6493 -3.9085  0.0860
 4051TIP3    H236349   2.631   6.242   7.983  2.0640 -0.2048 -3.7551
 4052TIP3   OH236350   1.498   7.068   9.106 -0.4323 -0.4785  0.1578
 4052TIP3    H136351   1.576   7.100   9.150 -1.1098  0.6505  0.5983
 4052TIP3    H236352   1.442   7.034   9.177 -0.4674 -0.9974 -0.1156
 4053TIP3   OH236353   4.885   5.179   8.545 -0.2343  0.2396 -0.1665
 4053TIP3    H136354   4.874   5.113   8.476  1.3488  1.3389 -1.5634
 4053TIP3    H236355   4.962   5.228   8.518 -1.8831  3.2952  0.2715
 4054TIP3   OH236356   5.408   1.774   9.213 -0.0282 -0.0017  0.1423
 4054TIP3    H136357   5.357   1.854   9.227 -0.4809 -0.1499 -0.5981
 4054TIP3    H236358   5.448   1.785   9.127  0.3135 -0.3596  0.2517
 4055TIP3   OH236359   6.665   1.158   8.794  0.8386  0.5432  0.2238
 4055TIP3    H136360   6.586   1.202   8.826  0.5910  0.5513 -0.3920
 4055TIP3    H236361   6.671   1.183   8.702  0.0052 -1.6632 -0.4965
 4056TIP3   OH236362   0.481   7.221   7.086  0.3220 -0.8301 -0.6435
 4056TIP3    H136363   0.392   7.208   7.119  0.2192 -0.0663 -0.6008
 4056TIP3    H236364   0.476   7.197   6.993  0.1691 -1.1972 -0.5396
 4057TIP3   OH236365   5.696   3.537   8.152 -0.6581  0.2185 -0.3478
 4057TIP3    H136366   5.764   3.473   8.172 -0.0737  1.2518  1.0660
 4057TIP3    H236367   5.743   3.612   8.115 -0.9940  0.9726  0.7168
 4058TIP3   OH236368   7.044   6.558   8.201 -0.7086  0.0319  0.4897
 4058TIP3    H136369   7.136   6.575   8.179 -0.1424 -2.3761  0.6890
 4058TIP3    H236370   7.005   6.645   8.210  1.3729  1.1240 -0.2801
 4059TIP3   OH236371   7.196   4.440   7.718  0.2618  0.3909  0.0317
 4059TIP3    H136372   7.166   4.469   7.804 -2.6212 -0.2979 -0.6381
 4059TIP3    H236373   7.192   4.344   7.722 -0.4365  0.3692 -1.0404
 4060TIP3   OH236374   4.046   1.911   7.328  0.0548  0.0720 -0.0837
 4060TIP3    H136375   4.035   1.820   7.355  2.2202 -0.9222 -2.1693
 4060TIP3    H236376   4.079   1.905   7.238 -0.4448  2.9561 -0.5512
 4061TIP3   OH236377   1.190   0.680   7.914 -0.6311  0.5458  0.0834
 4061TIP3    H136378   1.142   0.608   7.956  2.4267 -1.3904  0.6111
 4061TIP3    H236379   1.248   0.713   7.983  3.0727 -1.3719 -1.7861
 4062TIP3   OH236380   4.387   4.304   9.629 -0.0629  0.3921 -0.6782
 4062TIP3    H136381   4.370   4.393   9.660 -0.2126  0.4535 -0.9347
 4062TIP3    H236382   4.304   4.258   9.642  0.3832 -0.0703  0.6716
 4063TIP3   OH236383   2.889   3.043   9.560 -0.3512 -0.1237  0.1125
 4063TIP3    H136384   2.983   3.033   9.569 -0.6121 -1.3451  1.9412
 4063TIP3    H236385   2.856   2.955   9.542 -1.2026  0.2158 -0.0869
 4064TIP3   OH236386   3.334   1.743   8.082 -0.1984 -0.8366  0.3584
 4064TIP3    H136387   3.339   1.739   8.177  0.1355 -0.4809  0.3575
 4064TIP3    H236388   3.386   1.667   8.052  1.0963 -0.0102  0.4400
 4065TIP3   OH236389   5.490   2.700   9.767 -0.2344  0.1004  0.0930
 4065TIP3    H136390   5.408   2.720   9.722 -1.5385  0.1087  2.3111
 4065TIP3    H236391   5.465   2.637   9.835  1.8974 -1.0509 -0.1005
 4066TIP3   OH236392   0.798   0.517   9.076 -0.6025 -0.6675  0.0932
 4066TIP3    H136393   0.820   0.509   9.169 -0.8817  0.2646  0.2515
 4066TIP3    H236394   0.880   0.542   9.034 -0.5733 -0.6640  0.1524
 4067TIP3   OH236395   2.287   1.843   7.956  0.0670  0.1117 -0.1033
 4067TIP3    H136396   2.371   1.798   7.948 -0.8577 -1.8870  0.5153
 4067TIP3    H236397   2.223   1.776   7.932 -1.5059  0.5290  2.5048
 4068TIP3   OH236398   1.091   1.940   9.324  0.1344  0.4538  0.3168
 4068TIP3    H136399   1.128   1.959   9.237 -1.9837 -1.0743 -1.0050
 4068TIP3    H236400   1.022   2.005   9.335  0.0215  0.2856  0.5985
 4069TIP3   OH236401   7.148   4.138   7.665  0.0864 -0.4685  0.1681
 4069TIP3    H136402   7.196   4.070   7.617 -0.6691 -0.7109 -0.2639
 4069TIP3    H236403   7.072   4.092   7.701 -0.8842  0.2991 -0.8351
 4070TIP3   OH236404   0.220   1.706   9.111 -0.3838  0.0754  0.0464
 4070TIP3    H136405   0.313   1.685   9.116  0.0008  1.6942  0.2539
 4070TIP3    H236406   0.208   1.776   9.175 -2.0420 -1.0399  1.0316
 4071TIP3   OH236407   3.490   4.320   9.916  0.4887  0.5141  0.1284
 4071TIP3    H136408   3.472   4.288   9.827 -0.1499  1.4884 -0.1072
 4071TIP3    H236409   3.450   4.255   9.973  0.0181  0.3988 -0.3241
 4072TIP3   OH236410   1.345   5.986   9.415 -0.4826  0.5876 -0.3960
 4072TIP3    H136411   1.424   6.025   9.378  0.5628  0.4932  1.6512
 4072TIP3    H236412   1.277   6.006   9.351  0.5257  3.5464 -0.6809
 4073TIP3   OH236413   3.741   3.837   9.021 -0.5907 -0.1129  0.2959
 4073TIP3    H136414   3.793   3.796   8.952  0.2340 -0.0267  0.8563
 4073TIP3    H236415   3.802   3.847   9.094 -1.0229  1.2415  0.4974
 4074TIP3   OH236416   1.742   0.460   8.151 -0.8092  0.9086  0.5349
 4074TIP3    H136417   1.649   0.454   8.173 -0.8645  0.4576  0.1928
 4074TIP3    H236418   1.760   0.382   8.099  0.0495  0.3586  1.6064
 4075TIP3   OH236419   4.510   5.073   8.370  0.4691  0.8831 -0.7586
 4075TIP3    H136420   4.543   4.983   8.379 -0.4958  0.6278  0.5410
 4075TIP3    H236421   4.537   5.100   8.282 -1.6742 -1.7311 -2.3828
 4076TIP3   OH236422   3.577   5.321   9.811  0.0925  0.3389 -0.0635
 4076TIP3    H136423   3.653   5.263   9.808 -1.5867 -2.0066  0.1141
 4076TIP3    H236424   3.556   5.328   9.904  1.0927  2.4582  0.0505
 4077TIP3   OH236425   4.628   4.505   7.912 -0.4122 -0.7753  0.3359
 4077TIP3    H136426   4.637   4.437   7.845 -1.7272 -1.9742  1.3010
 4077TIP3    H236427   4.612   4.456   7.993  1.3930  0.6201  1.5977
 4078TIP3   OH236428   6.512   4.804   9.863  0.1777  0.3422  0.0937
 4078TIP3    H136429   6.567   4.800   9.941  1.0948 -0.9255 -0.5795
 4078TIP3    H236430   6.445   4.737   9.878  0.8793 -0.5330 -0.5546
 4079TIP3   OH236431   3.016   1.096   7.178 -0.3487  0.7735  1.0303
 4079TIP3    H136432   3.065   1.016   7.161  1.8916  1.9555  1.5551
 4079TIP3    H236433   2.989   1.127   7.091  0.0569  0.2219  0.7055
 4080TIP3   OH236434   7.139   3.662   8.713  0.6660 -0.1537 -0.3641
 4080TIP3    H136435   7.205   3.728   8.692  0.9123 -0.6443 -1.1601
 4080TIP3    H236436   7.065   3.682   8.657  1.0467 -1.0223 -1.2053
 4081TIP3   OH236437   6.257   0.451   7.304 -0.0492 -0.0973 -0.2782
 4081TIP3    H136438   6.233   0.543   7.291 -0.1537 -0.0650  0.1291
 4081TIP3    H236439   6.174   0.404   7.306 -0.0323 -0.1160  0.1365
 4082TIP3   OH236440   6.562   5.439   9.606  0.9148 -0.1243 -0.1304
 4082TIP3    H136441   6.504   5.499   9.652  0.5199 -0.1638 -0.5581
 4082TIP3    H236442   6.650   5.474   9.619  0.8683 -0.3847  1.0197
 4083TIP3   OH236443   5.186   0.066   8.574  0.4275  0.0984  0.6647
 4083TIP3    H136444   5.231   0.124   8.513 -1.0315  1.8417  1.1421
 4083TIP3    H236445   5.097   0.058   8.538  0.5264 -1.7577  0.7111
 4084TIP3   OH236446   4.873   5.999   8.119  0.4589 -0.2957  0.5518
 4084TIP3    H136447   4.901   6.087   8.140  0.6674 -0.4591  0.9712
 4084TIP3    H236448   4.877   5.952   8.202  1.4316 -0.9908  0.1349
 4085TIP3   OH236449   2.650   2.023   7.703  0.5629 -0.0733 -0.0107
 4085TIP3    H136450   2.655   2.056   7.614 -0.0038  0.6344  0.1983
 4085TIP3    H236451   2.731   2.053   7.745  0.7423 -0.2446 -0.2386
 4086TIP3   OH236452   2.681   4.425   7.303  0.4388 -0.4243 -0.6887
 4086TIP3    H136453   2.669   4.481   7.226  1.3315  0.9725  0.1471
 4086TIP3    H236454   2.630   4.467   7.372  1.4432 -0.3839  0.0606
 4087TIP3   OH236455   0.769   3.189   6.984 -0.7237  0.2793  0.0550
 4087TIP3    H136456   0.809   3.275   6.972  0.3514 -0.1597  0.3475
 4087TIP3    H236457   0.830   3.141   7.040 -0.8446 -0.9974 -0.8459
 4088TIP3   OH236458   5.237   5.269   9.675  0.1207 -0.0039  0.2468
 4088TIP3    H136459   5.327   5.302   9.665  0.2457  0.2176  1.8600
 4088TIP3    H236460   5.241   5.180   9.641  0.9310  0.0408  0.1829
 4089TIP3   OH236461   6.178   4.683   7.573  0.1538  0.0047  0.2631
 4089TIP3    H136462   6.214   4.726   7.495  0.6841 -0.5844  0.1731
 4089TIP3    H236463   6.196   4.744   7.645 -0.3717  0.5660 -0.0812
 4090TIP3   OH236464   3.531   2.413   9.118 -0.5470 -0.1191 -0.1034
 4090TIP3    H136465   3.565   2.424   9.029 -1.9135  0.5250 -0.5658
 4090TIP3    H236466   3.484   2.494   9.137  1.1994  0.5114  1.9231
 4091TIP3   OH236467   4.808   5.932   8.412  0.0737  0.4018  0.0499
 4091TIP3    H136468   4.718   5.926   8.380 -0.1236  1.3273  0.4093
 4091TIP3    H236469   4.804   5.899   8.502  0.0213  0.7711  0.1850
 4092TIP3   OH236470   7.316   1.570   9.198  0.2402  0.1054  0.0167
 4092TIP3    H136471   7.278   1.485   9.223  0.6604 -0.2681 -0.6065
 4092TIP3    H236472   7.240   1.623   9.174 -0.2846  0.7435  2.7590
 4093TIP3   OH236473   7.406   6.006   9.350 -0.4249  0.3050  0.3817
 4093TIP3    H136474   7.444   6.092   9.332 -0.4802  0.0052 -1.2637
 4093TIP3    H236475   7.475   5.943   9.330 -0.8721 -0.1088  0.1135
 4094TIP3   OH236476   6.614   5.235   8.565  0.3751 -0.5562 -0.0882
 4094TIP3    H136477   6.669   5.216   8.642  0.0125 -0.6762  0.1444
 4094TIP3    H236478   6.560   5.157   8.555  0.5295 -0.6038 -0.5647
 4095TIP3   OH236479   5.264   2.759   8.314  0.3261 -0.5821  0.3262
 4095TIP3    H136480   5.292   2.757   8.222 -1.4974 -2.4590 -0.2708
 4095TIP3    H236481   5.179   2.803   8.312 -0.3431 -1.7967  0.8665
 4096TIP3   OH236482   1.369   2.603   7.368 -0.0098  0.2261 -0.2905
 4096TIP3    H136483   1.317   2.669   7.322 -0.9791  0.1607  0.6692
 4096TIP3    H236484   1.317   2.582   7.446  0.5592 -1.2341 -0.2746
 4097TIP3   OH236485   3.082   2.930   7.477  0.6120  0.0625  0.4963
 4097TIP3    H136486   3.042   2.906   7.561  1.8739 -0.0451  1.0871
 4097TIP3    H236487   3.134   2.854   7.453  2.1903  0.9796  0.8478
 4098TIP3   OH236488   2.863   1.233   6.977 -0.6997  0.1229 -0.3024
 4098TIP3    H136489   2.801   1.169   6.940 -0.8227 -0.0816  0.2392
 4098TIP3    H236490   2.841   1.315   6.934 -0.2842 -0.2752 -1.3018
 4099TIP3   OH236491   0.148   7.275   9.538  0.1591  0.2886 -0.0489
 4099TIP3    H136492   0.224   7.220   9.559 -0.8491 -1.5306 -0.9030
 4099TIP3    H236493   0.109   7.295   9.623  0.5756 -0.3107  0.2908
 4100TIP3   OH236494   3.652   5.820   7.870  0.2590 -0.1975 -0.0210
 4100TIP3    H136495   3.647   5.816   7.966  0.0906 -2.0358 -0.0740
 4100TIP3    H236496   3.578   5.875   7.845 -0.9699 -1.4096  0.8148
 4101TIP3   OH236497   2.343   3.522   9.908 -0.2700 -0.0661  0.6690
 4101TIP3    H136498   2.380   3.460   9.971  1.3295 -0.9983 -1.0724
 4101TIP3    H236499   2.419   3.559   9.864 -1.2862 -1.3369 -2.4256
 4102TIP3   OH236500   4.799   2.434   9.134 -0.1145 -0.0323 -0.0001
 4102TIP3    H136501   4.865   2.387   9.185  0.1703 -0.1823 -0.4974
 4102TIP3    H236502   4.825   2.526   9.140 -0.3216 -0.0046  0.4682
 4103TIP3   OH236503   4.866   5.249   7.682  0.4040 -0.1087 -1.2572
 4103TIP3    H136504   4.807   5.307   7.634  1.1011  2.6902  0.9915
 4103TIP3    H236505   4.939   5.305   7.707 -0.3735 -0.9509  3.8665
 4104TIP3   OH236506   3.068   3.548   9.096 -0.4219  0.0331 -0.1036
 4104TIP3    H136507   3.108   3.512   9.017  0.5236 -0.8662  0.7636
 4104TIP3    H236508   3.139   3.550   9.161 -0.9274  1.6868  0.4428
 4105TIP3   OH236509   6.575   5.766   7.769  0.7716 -0.1926  0.1776
 4105TIP3    H136510   6.607   5.786   7.680 -0.6936 -1.5951 -0.7180
 4105TIP3    H236511   6.543   5.676   7.763 -1.9671  0.6107  1.3625
 4106TIP3   OH236512   7.190   0.457   8.064 -0.2700  0.0653  0.5502
 4106TIP3    H136513   7.170   0.540   8.107 -0.4909  0.2301  0.1383
 4106TIP3    H236514   7.163   0.390   8.126  1.1458  0.2857  1.4670
 4107TIP3   OH236515   4.433   6.646   9.252 -0.3002 -0.3109  0.2175
 4107TIP3    H136516   4.420   6.651   9.157 -1.0506 -0.5421  0.3054
 4107TIP3    H236517   4.527   6.664   9.264 -0.6621  2.3819 -0.3545
 4108TIP3   OH236518   1.746   6.225   7.733  0.0368 -0.6074  0.4892
 4108TIP3    H136519   1.667   6.266   7.768  0.2001 -0.7835  1.0757
 4108TIP3    H236520   1.773   6.162   7.801 -1.8725 -3.9293 -1.5480
 4109TIP3   OH236521   4.308   0.436   7.295  0.3592  0.6222 -0.5211
 4109TIP3    H136522   4.290   0.530   7.298 -0.4722  0.4905 -1.1937
 4109TIP3    H236523   4.228   0.397   7.263  0.5384 -0.3807  0.1984
 4110TIP3   OH236524   5.624   1.356   9.355 -0.1985  0.0135  0.5662
 4110TIP3    H136525   5.596   1.266   9.339  0.1842 -0.0549  0.2711
 4110TIP3    H236526   5.553   1.409   9.319 -0.3794 -0.1670  0.6513
 4111TIP3   OH236527   7.295   5.330   9.270 -0.2873  0.5727  0.0318
 4111TIP3    H136528   7.259   5.257   9.219  0.9621 -0.3508  0.4096
 4111TIP3    H236529   7.289   5.300   9.361 -0.6254  1.3499  0.2720
 4112TIP3   OH236530   5.697   6.840   7.294 -0.1670  0.2468  0.6165
 4112TIP3    H136531   5.612   6.824   7.253  0.8586 -1.6104 -0.9772
 4112TIP3    H236532   5.750   6.876   7.223  0.9079 -0.5333  0.9992
 4113TIP3   OH236533   3.836   2.945   7.114 -0.0264 -0.9960 -0.3980
 4113TIP3    H136534   3.790   2.915   7.036  1.2759 -1.7060 -0.9347
 4113TIP3    H236535   3.841   3.040   7.104 -3.1762 -0.6035  0.7395
 4114TIP3   OH236536   5.600   5.715   7.889 -0.2723 -0.0136  0.0637
 4114TIP3    H136537   5.638   5.799   7.913 -0.6615 -0.1383  1.1718
 4114TIP3    H236538   5.547   5.690   7.965  0.0155 -1.3592 -0.1602
 4115TIP3   OH236539   5.864   4.956   8.158  0.1038 -0.4718 -0.1499
 4115TIP3    H136540   5.773   4.934   8.136 -0.1628 -0.4530  0.8932
 4115TIP3    H236541   5.901   4.989   8.076 -0.7504 -0.7382 -0.6553
 4116TIP3   OH236542   0.560   6.349   9.783  0.0723 -0.0033 -0.6923
 4116TIP3    H136543   0.492   6.313   9.840 -0.4269  0.7547 -0.8026
 4116TIP3    H236544   0.583   6.276   9.725 -0.5020 -0.3286 -0.5200
 4117TIP3   OH236545   4.583   0.649   9.443  0.3954  0.1185 -0.0586
 4117TIP3    H136546   4.619   0.638   9.355 -0.2345  0.4041 -0.3514
 4117TIP3    H236547   4.499   0.603   9.441  0.6237 -0.3423  0.5539
 4118TIP3   OH236548   4.721   4.936   9.258  0.2885 -0.4916  0.4415
 4118TIP3    H136549   4.656   5.001   9.230  1.2023 -0.1592 -1.0387
 4118TIP3    H236550   4.712   4.865   9.195  2.6884  0.4607 -1.1334
 4119TIP3   OH236551   3.502   7.415   7.754  0.2117  0.1641  0.2646
 4119TIP3    H136552   3.427   7.366   7.721 -0.4341  0.2462  1.5356
 4119TIP3    H236553   3.481   7.432   7.846  0.1461  3.2474 -0.2014
 4120TIP3   OH236554   3.984   5.357   9.738 -0.3426  0.4232  0.3246
 4120TIP3    H136555   3.899   5.315   9.756 -0.0053 -0.5672 -0.2796
 4120TIP3    H236556   4.047   5.285   9.743  0.3192  0.9483 -0.3151
 4121TIP3   OH236557   2.414   1.675   8.997 -0.1200  0.1554  0.2852
 4121TIP3    H136558   2.394   1.747   9.058 -0.6285  0.2908 -0.0390
 4121TIP3    H236559   2.431   1.600   9.054 -0.8578  0.2149  0.6005
 4122TIP3   OH236560   7.025   4.106   9.395 -0.6241  0.0040 -0.1554
 4122TIP3    H136561   7.057   4.016   9.390 -0.8290 -0.0572 -0.3985
 4122TIP3    H236562   6.949   4.101   9.454 -1.5520 -0.2551 -1.3377
 4123TIP3   OH236563   7.490   2.903   9.222 -0.4357  0.4109 -0.2757
 4123TIP3    H136564   7.515   2.994   9.202  3.1220 -0.5524 -0.8655
 4123TIP3    H236565   7.469   2.865   9.137  1.5346 -0.1927 -0.5193
 4124TIP3   OH236566   1.202   7.447   8.178  0.3404 -0.3434 -0.5571
 4124TIP3    H136567   1.264   7.520   8.191 -0.5648  0.6742 -1.6893
 4124TIP3    H236568   1.118   7.483   8.206 -0.2669 -0.6445 -1.9189
 4125TIP3   OH236569   2.193   6.323   7.500 -0.5146 -0.3588 -0.0226
 4125TIP3    H136570   2.205   6.405   7.547  1.8053 -0.8099  0.2700
 4125TIP3    H236571   2.118   6.282   7.543  0.3711  0.0977  2.0869
 4126TIP3   OH236572   4.860   0.052   7.477 -0.2616  0.0942  0.7841
 4126TIP3    H136573   4.937   0.043   7.422 -1.8772 -1.4652 -1.3973
 4126TIP3    H236574   4.847  -0.035   7.515 -1.0748  0.2687  0.9242
 4127TIP3   OH236575   3.412   0.987   8.128  0.5166 -0.9472 -0.2622
 4127TIP3    H136576   3.396   1.077   8.154  1.3770 -0.4079 -1.5441
 4127TIP3    H236577   3.340   0.938   8.168  0.3864  0.1941  0.9780
 4128TIP3   OH236578   2.446   5.743   9.039 -0.9577 -0.3301  0.2160
 4128TIP3    H136579   2.513   5.676   9.053  0.1446 -0.4361 -4.2355
 4128TIP3    H236580   2.372   5.696   9.001 -2.0836  0.3810  1.4406
 4129TIP3   OH236581   1.660   2.780   8.561  0.2819 -0.2307 -0.3759
 4129TIP3    H136582   1.693   2.692   8.581  1.1951  0.6759  2.5094
 4129TIP3    H236583   1.568   2.777   8.588  0.9630  0.3466  2.3583
 4130TIP3   OH236584   4.762   7.102   8.494 -0.0624  0.4828 -0.0019
 4130TIP3    H136585   4.710   7.096   8.574  3.2709 -0.5841  2.3299
 4130TIP3    H236586   4.736   7.026   8.442 -1.7537  0.7531  0.4090
 4131TIP3   OH236587   5.554   0.558   8.064  0.5484 -0.0728 -0.4940
 4131TIP3    H136588   5.639   0.597   8.081  0.1650  0.3537  0.4987
 4131TIP3    H236589   5.496   0.632   8.045  0.5957 -0.4218 -2.1871
 4132TIP3   OH236590   6.258   4.139   9.657 -0.1024  0.1882  0.2163
 4132TIP3    H136591   6.185   4.103   9.606 -1.0292 -0.9562  2.2331
 4132TIP3    H236592   6.330   4.077   9.642 -0.5647 -0.5004  0.7591
 4133TIP3   OH236593   4.047   0.633   8.255 -0.4162 -0.3978 -0.1717
 4133TIP3    H136594   4.006   0.603   8.336 -0.3341  1.6593  0.6911
 4133TIP3    H236595   4.133   0.665   8.282 -0.3720  0.2853 -1.0712
 4134TIP3   OH236596   3.279   4.419   8.397  0.6701 -0.2856  0.1126
 4134TIP3    H136597   3.210   4.362   8.430  0.6897 -0.5206 -0.2456
 4134TIP3    H236598   3.300   4.476   8.470  1.0959 -1.1614  0.6918
 4135TIP3   OH236599   5.382   1.052   7.517  0.6662 -0.3266  0.5796
 4135TIP3    H136600   5.303   1.078   7.566  0.5993 -0.2500  0.4312
 4135TIP3    H236601   5.362   0.963   7.486 -0.0365  0.2882 -0.8519
 4136TIP3   OH236602   4.239   5.047   8.026 -0.0217 -0.1674 -0.3226
 4136TIP3    H136603   4.292   5.092   7.960  0.6933 -1.0000 -0.3355
 4136TIP3    H236604   4.232   5.110   8.098  2.7131 -0.7255  0.5441
 4137TIP3   OH236605   1.870   2.634   6.895 -0.2134  0.3504  0.1289
 4137TIP3    H136606   1.929   2.569   6.933 -0.4044 -0.3226 -0.7022
 4137TIP3    H236607   1.885   2.629   6.800  1.9437  3.5954  0.1286
 4138TIP3   OH236608   1.766   5.738   8.814  0.1229  0.3938 -0.3186
 4138TIP3    H136609   1.740   5.829   8.801 -0.2058  0.0196 -2.6683
 4138TIP3    H236610   1.710   5.707   8.886 -1.4563  1.4029 -1.0584
 4139TIP3   OH236611   3.778   3.219   7.076 -0.4011  0.1227  0.0417
 4139TIP3    H136612   3.718   3.261   7.015 -1.1424  0.4869  0.9893
 4139TIP3    H236613   3.747   3.246   7.163  0.7842 -0.1569  0.5744
 4140TIP3   OH236614   7.460   4.467   7.698 -0.2626 -0.4344  0.4127
 4140TIP3    H136615   7.502   4.553   7.704 -0.9651 -0.1020  0.6186
 4140TIP3    H236616   7.367   4.486   7.687 -0.1977 -1.1428 -1.8534
 4141TIP3   OH236617   5.797   5.439   7.052 -0.2995  0.5103 -0.2985
 4141TIP3    H136618   5.718   5.483   7.082 -1.0871  0.1170 -1.6719
 4141TIP3    H236619   5.867   5.502   7.066 -1.1793  1.6539 -0.8978
 4142TIP3   OH236620   4.885   4.069   9.660  0.4305 -0.2357  0.9049
 4142TIP3    H136621   4.803   4.099   9.701  0.6431  2.5689 -0.4724
 4142TIP3    H236622   4.857   4.025   9.581  0.1985  0.5197  0.5523
 4143TIP3   OH236623   0.667   4.047   7.487  0.2072 -0.1850  0.4506
 4143TIP3    H136624   0.730   3.981   7.458 -2.1692 -2.0741 -0.7605
 4143TIP3    H236625   0.612   4.062   7.411 -1.3013  0.7989  1.6821
 4144TIP3   OH236626   2.137   7.281   7.897  0.3453  0.5931  0.1552
 4144TIP3    H136627   2.086   7.304   7.819 -0.6529 -0.5308  0.4287
 4144TIP3    H236628   2.085   7.211   7.939  2.4641 -1.1062  0.0911
 4145TIP3   OH236629   0.869   4.978   9.627  0.5692 -0.0227 -0.2057
 4145TIP3    H136630   0.825   4.971   9.542 -0.2721 -2.0186  0.3377
 4145TIP3    H236631   0.799   4.968   9.691  1.6634 -3.0812  0.7011
 4146TIP3   OH236632   4.431   3.577   8.174  0.1795  0.6877 -0.0387
 4146TIP3    H136633   4.411   3.518   8.247  0.8507  1.5834  0.8894
 4146TIP3    H236634   4.402   3.529   8.097  1.9526 -1.4703  0.5350
 4147TIP3   OH236635   2.440   5.269   9.101  0.2574  0.6581  0.4605
 4147TIP3    H136636   2.482   5.352   9.080  2.3390 -0.8419 -2.0174
 4147TIP3    H236637   2.486   5.205   9.046 -2.5602 -1.8240  0.7325
 4148TIP3   OH236638   7.300   1.189   9.387 -0.0035  0.2218 -0.2335
 4148TIP3    H136639   7.240   1.122   9.354  0.1943  0.0302 -0.2120
 4148TIP3    H236640   7.374   1.139   9.423  0.9892  0.4597 -1.8223
 4149TIP3   OH236641   5.080   0.432   9.539 -0.8158  0.1386  0.0172
 4149TIP3    H136642   4.994   0.467   9.563 -1.1430  2.0586 -3.3946
 4149TIP3    H236643   5.073   0.338   9.554 -3.0955  0.3934  0.8654
 4150TIP3   OH236644   6.404   4.601   8.298 -0.0133  0.1445  0.3197
 4150TIP3    H136645   6.486   4.568   8.260 -0.2786  1.1699 -1.2038
 4150TIP3    H236646   6.336   4.575   8.236 -0.6879  0.4067  0.9356
 4151TIP3   OH236647   0.513   5.654   8.153 -0.3271  0.3071 -0.1483
 4151TIP3    H136648   0.512   5.558   8.151 -0.0616  0.2920  0.2764
 4151TIP3    H236649   0.422   5.678   8.172 -0.2079  0.1037  0.7366
 4152TIP3   OH236650   2.671   7.139   6.846 -0.0721 -0.6406 -0.5224
 4152TIP3    H136651   2.614   7.158   6.771 -3.0073  0.5357  1.7997
 4152TIP3    H236652   2.731   7.213   6.851  0.7235 -1.1291 -2.0971
 4153TIP3   OH236653   1.570   6.353   8.347  0.0133  0.4726  0.6892
 4153TIP3    H136654   1.550   6.444   8.368 -0.2435  0.3879  0.8231
 4153TIP3    H236655   1.613   6.318   8.425 -1.9607 -0.1586  1.5603
 4154TIP3   OH236656   6.079   4.227   7.961  0.2301  0.3514  0.4812
 4154TIP3    H136657   6.165   4.214   7.922 -0.7593 -1.3622 -1.3571
 4154TIP3    H236658   6.038   4.294   7.907 -0.0706  0.1524  0.4582
 4155TIP3   OH236659   6.301   0.626   7.934  0.2784  0.5330  0.0293
 4155TIP3    H136660   6.249   0.571   7.993  2.4162 -0.3904  1.1578
 4155TIP3    H236661   6.343   0.564   7.875 -0.1162  1.2989 -1.0940
 4156TIP3   OH236662   5.796   5.306   7.409 -0.1246 -0.0923  0.2931
 4156TIP3    H136663   5.717   5.255   7.428  0.6516 -1.5119 -0.2056
 4156TIP3    H236664   5.763   5.390   7.376 -1.4554 -1.3262 -1.6984
 4157TIP3   OH236665   1.387   3.462   8.008 -0.0672 -0.3767 -0.1488
 4157TIP3    H136666   1.455   3.528   8.014 -0.3484  0.1556 -2.0677
 4157TIP3    H236667   1.325   3.485   8.077  0.1054  1.0527 -0.4369
 4158TIP3   OH236668   2.419   2.721   8.657  0.3939  0.7874  0.0598
 4158TIP3    H136669   2.350   2.654   8.662  1.9512 -0.9374 -0.5882
 4158TIP3    H236670   2.417   2.751   8.567  0.8054  0.3476 -0.1030
 4159TIP3   OH236671   2.366   6.028   9.643 -0.0694  0.0163 -0.9373
 4159TIP3    H136672   2.379   5.952   9.700  0.6176 -0.1923 -1.3585
 4159TIP3    H236673   2.454   6.056   9.620 -0.3385 -0.2123 -2.3100
 4160TIP3   OH236674   2.104   2.990   9.411  0.2001 -0.5165  0.1308
 4160TIP3    H136675   2.187   2.958   9.376  0.3199 -2.0424  1.6897
 4160TIP3    H236676   2.058   3.024   9.334  1.2201 -1.9404 -1.1838
 4161TIP3   OH236677   2.509   3.337   7.203  0.0159 -0.4456  0.1127
 4161TIP3    H136678   2.432   3.309   7.253 -0.6518  1.5527  0.2812
 4161TIP3    H236679   2.484   3.327   7.111  0.1650 -1.3034  0.1541
 4162TIP3   OH236680   5.897   6.804   9.339  0.9405 -0.4476 -0.2665
 4162TIP3    H136681   5.890   6.786   9.245  0.9966  0.3060 -0.4196
 4162TIP3    H236682   5.987   6.779   9.361  1.6596  1.3746 -0.8837
 4163TIP3   OH236683   6.765   6.816   8.039  0.3142 -0.0628  0.1386
 4163TIP3    H136684   6.808   6.766   7.970 -0.3227 -0.2333 -0.1362
 4163TIP3    H236685   6.681   6.842   8.002 -0.3947 -0.8663  1.1476
 4164TIP3   OH236686   5.454   5.842   9.326  0.4108 -0.0679  0.2226
 4164TIP3    H136687   5.360   5.836   9.346  0.5881 -0.9282  0.9122
 4164TIP3    H236688   5.458   5.866   9.234 -0.5015 -0.5291  0.0473
 4165TIP3   OH236689   0.007   5.395   8.568  0.5590  0.2994 -0.1914
 4165TIP3    H136690   0.069   5.431   8.505  1.2033 -0.2487  0.1160
 4165TIP3    H236691   0.014   5.300   8.557  0.9689  0.1783  0.9615
 4166TIP3   OH236692   0.147   5.443   7.335  0.6712 -0.1210 -0.2567
 4166TIP3    H136693   0.236   5.459   7.369 -0.5515  3.0640  1.9540
 4166TIP3    H236694   0.149   5.478   7.246  1.6180 -0.0405 -0.2133
 4167TIP3   OH236695   4.035   6.342   7.030 -0.1142  0.0414 -0.5136
 4167TIP3    H136696   3.976   6.416   7.018 -0.8243 -0.5909 -0.9712
 4167TIP3    H236697   3.978   6.265   7.029  0.2990 -0.4139  2.1149
 4168TIP3   OH236698   6.646   3.052   8.347  0.2753  0.9574  0.0248
 4168TIP3    H136699   6.616   3.012   8.429  0.1530 -0.7988 -0.8414
 4168TIP3    H236700   6.730   3.009   8.329 -0.5734 -0.0839 -1.7085
 4169TIP3   OH236701   2.574   1.562   6.790 -0.2036 -0.3003 -0.0446
 4169TIP3    H136702   2.563   1.539   6.883 -0.6613 -0.6395 -0.1771
 4169TIP3    H236703   2.502   1.622   6.772 -0.8840 -1.2233 -0.4983
 4170TIP3   OH236704   3.414   2.270   8.385 -0.2291 -0.2676 -0.0500
 4170TIP3    H136705   3.341   2.237   8.438 -1.1875  0.5749 -0.8038
 4170TIP3    H236706   3.477   2.301   8.450 -0.4621 -1.1309  0.6248
 4171TIP3   OH236707   4.377   6.488   8.791  0.5695 -0.5475  0.2202
 4171TIP3    H136708   4.308   6.494   8.857  0.5878 -0.5442  0.2393
 4171TIP3    H236709   4.426   6.409   8.814  0.2206 -0.8722 -0.1305
 4172TIP3   OH236710   4.940   6.553   8.440 -0.0840  0.1651 -0.1854
 4172TIP3    H136711   4.852   6.520   8.429  0.1218 -0.2461 -0.6182
 4172TIP3    H236712   4.963   6.532   8.530 -0.4157  0.2506 -0.0805
 4173TIP3   OH236713   5.015   2.826   9.095  0.2753 -0.2379 -0.1014
 4173TIP3    H136714   4.961   2.867   9.162 -0.1083  0.3749 -0.7739
 4173TIP3    H236715   4.969   2.842   9.013  1.2380 -0.0889 -0.6404
 4174TIP3   OH236716   5.660   2.000   9.515  0.0512  0.0681 -0.1156
 4174TIP3    H136717   5.596   2.066   9.488  0.2012  0.7597  1.1244
 4174TIP3    H236718   5.617   1.953   9.587  0.5393 -0.1521  0.0403
 4175TIP3   OH236719   3.128   2.601   9.710  0.2641 -0.1956 -0.1393
 4175TIP3    H136720   3.123   2.663   9.782 -0.5280 -1.1626  0.6763
 4175TIP3    H236721   3.121   2.654   9.631 -2.6934  0.5895  0.5500
 4176TIP3   OH236722   1.001   2.216   7.123  0.0794 -0.3118 -0.4652
 4176TIP3    H136723   0.942   2.169   7.182  0.1557  1.6378  1.2447
 4176TIP3    H236724   1.087   2.179   7.142  0.1222  0.3704  0.7725
 4177TIP3   OH236725   1.974   3.315   8.643  0.1504  0.5298  0.1994
 4177TIP3    H136726   1.922   3.305   8.723  0.8623 -1.4349  0.4679
 4177TIP3    H236727   2.065   3.309   8.673  0.4216 -1.8271 -0.8857
 4178TIP3   OH236728   2.173   5.518   8.093  0.1978  0.0215  1.2081
 4178TIP3    H136729   2.138   5.516   8.004  0.0747  2.0419  1.1657
 4178TIP3    H236730   2.266   5.499   8.082  0.2522  0.6126  0.5880
 4179TIP3   OH236731   2.351   1.690   7.656  0.4127 -0.2856  0.7526
 4179TIP3    H136732   2.387   1.701   7.568 -0.4547  1.4449  0.5718
 4179TIP3    H236733   2.422   1.719   7.714  1.1212 -1.7827  0.6797
 4180TIP3   OH236734   7.483   3.406   7.373 -0.1537  0.1392 -0.8266
 4180TIP3    H136735   7.499   3.414   7.279  0.1360 -0.8454 -0.8769
 4180TIP3    H236736   7.429   3.327   7.381  1.7312 -1.1377  0.0015
 4181TIP3   OH236737   2.188   4.522   7.394 -0.3156 -0.0912 -0.3590
 4181TIP3    H136738   2.153   4.453   7.337 -1.7492  0.1047  0.2349
 4181TIP3    H236739   2.149   4.503   7.480  3.4410 -1.6855  1.2404
 4182TIP3   OH236740   1.286   5.692   8.179  0.1852 -0.6527  0.1731
 4182TIP3    H136741   1.310   5.623   8.241 -0.6151 -3.1207 -2.0877
 4182TIP3    H236742   1.202   5.663   8.142 -0.9574  2.3241  0.1346
 4183TIP3   OH236743   3.939   5.755   8.284  0.0548 -0.1776  0.5551
 4183TIP3    H136744   3.956   5.847   8.267 -2.6794  0.2860 -0.1204
 4183TIP3    H236745   3.844   5.748   8.284  0.1542 -2.7690  1.9633
 4184TIP3   OH236746   1.399   1.375   7.103 -0.3253  0.1994  0.2108
 4184TIP3    H136747   1.367   1.286   7.117  2.0211 -0.4904  1.7065
 4184TIP3    H236748   1.451   1.370   7.023 -1.9540  0.8158 -0.9607
 4185TIP3   OH236749   3.215   5.504   9.499 -0.5578  0.2476 -0.0510
 4185TIP3    H136750   3.300   5.547   9.499 -0.8270  0.7921  0.6590
 4185TIP3    H236751   3.156   5.568   9.459 -1.0794  0.8051  1.5585
 4186TIP3   OH236752   2.734   3.283   9.538 -0.2148 -0.1323  0.3561
 4186TIP3    H136753   2.771   3.196   9.555 -0.6119 -0.3465  0.1503
 4186TIP3    H236754   2.807   3.333   9.501  0.7275  0.4125  2.7707
 4187TIP3   OH236755   7.275   6.448   8.729  0.3694 -0.2444  0.1210
 4187TIP3    H136756   7.356   6.397   8.722  1.2093  0.8857  1.1634
 4187TIP3    H236757   7.274   6.480   8.820 -1.2886 -0.2806  0.1529
 4188TIP3   OH236758   2.928   2.614   9.363  0.7108  0.2761 -0.1149
 4188TIP3    H136759   2.887   2.646   9.282  0.0974  0.7665  0.3789
 4188TIP3    H236760   2.909   2.520   9.363 -1.0431  0.5781  0.4139
 4189TIP3   OH236761   5.321   5.724   7.357  0.0553 -0.0584 -0.4934
 4189TIP3    H136762   5.295   5.815   7.371 -1.4539 -0.7846  1.9707
 4189TIP3    H236763   5.395   5.710   7.417  0.0119 -0.5611 -0.5496
 4190TIP3   OH236764   5.559   0.732   8.342  0.5928 -0.1796 -0.0455
 4190TIP3    H136765   5.644   0.754   8.380 -0.0821 -0.4470  1.7477
 4190TIP3    H236766   5.562   0.768   8.254  2.7866 -0.7491 -0.2600
 4191TIP3   OH236767   4.005   7.326   9.718  0.7309  0.2305 -0.0145
 4191TIP3    H136768   3.934   7.384   9.690 -0.9075 -1.0448  1.2669
 4191TIP3    H236769   3.999   7.251   9.659  2.6189  1.1312 -1.4415
 4192TIP3   OH236770   5.347   2.521   8.907  0.3021 -0.3335  0.1388
 4192TIP3    H136771   5.417   2.497   8.969 -0.3017 -0.0056  0.9683
 4192TIP3    H236772   5.273   2.544   8.963 -1.6653 -3.9483 -0.7117
 4193TIP3   OH236773   3.506   6.804   7.776  0.0860  0.3155 -0.3337
 4193TIP3    H136774   3.469   6.888   7.748  0.9511  0.2289 -1.8068
 4193TIP3    H236775   3.433   6.743   7.774 -0.4525  0.9285  0.3137
 4194TIP3   OH236776   7.419   2.542   8.768 -0.9990  0.1341  0.1383
 4194TIP3    H136777   7.378   2.628   8.758 -1.9533 -0.1830  1.1391
 4194TIP3    H236778   7.354   2.490   8.815  0.3398 -0.5464  1.3136
 4195TIP3   OH236779   2.586   0.216   9.394 -0.0805  0.2824  0.2319
 4195TIP3    H136780   2.613   0.307   9.380 -0.9010  0.4510 -0.3166
 4195TIP3    H236781   2.590   0.204   9.489  0.5825  0.7140  0.2636
 4196TIP3   OH236782   6.350   0.862   8.729 -0.7118  0.0792 -0.5256
 4196TIP3    H136783   6.412   0.794   8.702 -0.5597  0.2504 -0.6095
 4196TIP3    H236784   6.382   0.941   8.687 -1.4480  0.0210 -1.2299
 4197TIP3   OH236785   6.299   7.294   9.756 -0.2330  0.1063 -0.4354
 4197TIP3    H136786   6.245   7.314   9.680  0.4235 -0.2962 -1.0230
 4197TIP3    H236787   6.326   7.379   9.791 -2.0972  0.3570  0.5193
 4198TIP3   OH236788   2.907   5.666   9.709 -0.0587  0.4567 -0.5653
 4198TIP3    H136789   2.886   5.720   9.632  0.3458  1.1141 -0.2284
 4198TIP3    H236790   2.969   5.720   9.759 -3.0142  1.7095  2.1059
 4199TIP3   OH236791   1.119   2.112   8.828 -0.2707 -0.2010 -0.1744
 4199TIP3    H136792   1.199   2.160   8.806  0.0022 -0.5080  0.1398
 4199TIP3    H236793   1.051   2.179   8.831  0.4900  0.5861  2.4991
 4200TIP3   OH236794   1.830   6.507   8.564  0.3522 -0.5820  0.0418
 4200TIP3    H136795   1.849   6.454   8.486  2.2204  0.3480 -0.1942
 4200TIP3    H236796   1.831   6.443   8.636 -0.7395 -1.3448 -0.5790
 4201TIP3   OH236797   2.447   4.679   8.289 -0.0637 -0.2603 -0.1528
 4201TIP3    H136798   2.376   4.615   8.282  0.4478 -0.8196 -0.2579
 4201TIP3    H236799   2.403   4.760   8.315 -0.8235 -0.4427 -0.8382
 4202TIP3   OH236800   1.431   2.817   8.374  0.3573  0.2073  0.5457
 4202TIP3    H136801   1.408   2.900   8.333  0.3568 -0.8611 -1.7613
 4202TIP3    H236802   1.527   2.816   8.377  0.3974 -0.1721 -0.5115
 4203TIP3   OH236803   3.080   4.494   8.048  0.2182  0.0651  0.7868
 4203TIP3    H136804   3.095   4.586   8.071  0.2754  0.2068  0.2107
 4203TIP3    H236805   3.167   4.460   8.027  0.0192  0.3603 -0.6725
 4204TIP3   OH236806   3.122   3.359   8.550 -0.3838  0.1571 -0.2885
 4204TIP3    H136807   3.032   3.390   8.539 -0.5006 -0.1797 -0.2721
 4204TIP3    H236808   3.130   3.284   8.491 -0.5587 -0.7133  0.7611
 4205TIP3   OH236809   2.954   4.603   7.339 -0.1994  0.2115  0.0728
 4205TIP3    H136810   2.949   4.546   7.263  0.3599  0.6499 -0.3015
 4205TIP3    H236811   2.982   4.546   7.411 -1.3039 -0.3276  0.0994
 4206TIP3   OH236812   0.486   1.197   7.964 -0.0776 -0.6371 -0.0534
 4206TIP3    H136813   0.467   1.109   7.931 -0.9389 -0.1994 -0.8036
 4206TIP3    H236814   0.578   1.211   7.942  0.3095 -1.6591  0.8390
 4207TIP3   OH236815   1.615   4.495   8.980 -0.1627 -0.1973  0.2039
 4207TIP3    H136816   1.565   4.439   9.040  0.5609 -0.0673  0.9512
 4207TIP3    H236817   1.576   4.480   8.894  0.4968 -2.4469  0.2285
 4208TIP3   OH236818   7.032   2.532   9.420  0.5092  0.0829 -0.0563
 4208TIP3    H136819   7.011   2.612   9.373  0.7371 -0.1214 -0.5144
 4208TIP3    H236820   6.990   2.462   9.369  0.9698 -0.1653 -0.0994
 4209TIP3   OH236821   4.518   4.774   8.838  0.3255  0.6857  0.2777
 4209TIP3    H136822   4.485   4.825   8.764 -0.6239 -0.4835 -0.1344
 4209TIP3    H236823   4.564   4.700   8.797 -0.5482 -0.1867  0.8245
 4210TIP3   OH236824   5.203   6.044   8.192  0.3591  0.1880  0.5600
 4210TIP3    H136825   5.176   6.011   8.278  0.1750  0.9160  0.7916
 4210TIP3    H236826   5.243   6.129   8.211  0.9497  0.0475 -0.0045
 4211TIP3   OH236827   4.921   6.904   6.789 -0.5404 -0.1302  0.2200
 4211TIP3    H136828   4.886   6.934   6.704  0.0879  1.2868  0.4346
 4211TIP3    H236829   4.973   6.827   6.767 -0.7781 -0.0737 -0.6147
 4212TIP3   OH236830   2.419   7.036   9.045 -0.1878  0.2330  0.0331
 4212TIP3    H136831   2.381   6.950   9.061  1.4441 -0.6056 -0.4086
 4212TIP3    H236832   2.384   7.063   8.960 -1.9945  0.7836  0.9073
 4213TIP3   OH236833   6.098   2.227   9.144 -0.4527 -0.5717 -0.7032
 4213TIP3    H136834   6.102   2.157   9.209  0.1687  0.3428  0.2749
 4213TIP3    H236835   6.117   2.183   9.061  2.3096 -1.2194  0.1624
 4214TIP3   OH236836   2.606   1.161   7.307 -0.2515  0.1094 -0.1958
 4214TIP3    H136837   2.575   1.246   7.277  1.9274  0.3685 -1.9719
 4214TIP3    H236838   2.583   1.101   7.237  2.2337  0.1525 -1.1453
 4215TIP3   OH236839   1.950   3.805   7.448 -0.3697  0.1257 -0.0470
 4215TIP3    H136840   1.855   3.802   7.454 -0.5850  3.9108  1.6627
 4215TIP3    H236841   1.968   3.853   7.367  0.1157 -0.6132 -0.3902
 4216TIP3   OH236842   2.877   4.644   7.731  0.4897 -0.2332 -0.4661
 4216TIP3    H136843   2.826   4.707   7.681  1.7593  0.4882 -0.8977
 4216TIP3    H236844   2.814   4.601   7.788 -0.1397  2.7650  1.2765
 4217TIP3   OH236845   5.713   5.780   7.297  0.5241 -0.3325 -0.2634
 4217TIP3    H136846   5.652   5.754   7.227 -0.1723 -1.9360  0.8811
 4217TIP3    H236847   5.699   5.715   7.366  1.9604  0.5871  0.9434
 4218TIP3   OH236848   4.812   6.206   8.443  0.2506  0.0737 -0.6290
 4218TIP3    H136849   4.799   6.205   8.538 -0.3725  0.3856 -0.7027
 4218TIP3    H236850   4.810   6.114   8.417 -2.7918  0.0601 -0.7246
 4219TIP3   OH236851   0.984   4.116   8.156 -0.2704  0.4323 -0.4799
 4219TIP3    H136852   1.057   4.064   8.190  0.5092  1.6446 -0.2423
 4219TIP3    H236853   0.906   4.081   8.201  0.4393  0.4784  0.8405
 4220TIP3   OH236854   2.784   1.419   8.867 -0.1837  0.0502 -0.5883
 4220TIP3    H136855   2.703   1.426   8.815  0.0411 -0.6516 -1.0465
 4220TIP3    H236856   2.756   1.439   8.956 -0.4281  2.0719 -1.0676
 4221TIP3   OH236857   5.300   0.019   8.028  0.2436 -0.0195 -0.5788
 4221TIP3    H136858   5.384   0.060   8.045  0.4876 -1.0580  0.9627
 4221TIP3    H236859   5.271  -0.013   8.114 -2.1937  1.1472 -0.8755
 4222TIP3   OH236860   1.971   2.535   7.635  0.5055  0.1408 -0.2218
 4222TIP3    H136861   1.931   2.594   7.571  0.9331 -1.1617 -1.7642
 4222TIP3    H236862   2.029   2.591   7.686  0.2015  1.2272 -1.0330
 4223TIP3   OH236863   3.625   3.708   7.662  0.3500 -0.4650  0.0781
 4223TIP3    H136864   3.641   3.646   7.591 -0.0101 -0.9288  0.3955
 4223TIP3    H236865   3.533   3.733   7.652  0.3420 -0.4113  0.2871
 4224TIP3   OH236866   2.779   6.547   8.443  0.4596  0.1471 -0.0298
 4224TIP3    H136867   2.712   6.582   8.502 -1.0981 -1.1900 -0.9126
 4224TIP3    H236868   2.862   6.566   8.487 -0.5480  0.6869  1.7523
 4225TIP3   OH236869   0.233   4.101   8.614 -0.2640 -0.2500 -0.1161
 4225TIP3    H136870   0.255   4.054   8.534 -1.7205 -2.1557  0.5101
 4225TIP3    H236871   0.250   4.038   8.684  1.3765  1.5028  1.1768
 4226TIP3   OH236872   1.770   0.931   7.727 -0.1647  0.1236 -0.2699
 4226TIP3    H136873   1.848   0.983   7.744 -0.2629  1.0720 -2.4408
 4226TIP3    H236874   1.731   0.917   7.814  1.2462  1.4699  0.6221
 4227TIP3   OH236875   2.639   4.753   7.522 -0.2737  0.1734  0.0747
 4227TIP3    H136876   2.603   4.665   7.511 -0.9141  0.5044 -0.5662
 4227TIP3    H236877   2.576   4.810   7.479  0.3016  0.9186  0.1977
 4228TIP3   OH236878   6.074   0.054   9.365 -0.2100  0.2322  0.7380
 4228TIP3    H136879   6.008   0.110   9.323 -0.1319 -0.0648  0.2207
 4228TIP3    H236880   6.157   0.097   9.347  0.0426 -0.9920 -1.2373
 4229TIP3   OH236881   1.521   7.199   6.557 -0.0758 -0.2334 -0.1517
 4229TIP3    H136882   1.528   7.111   6.594  0.7465 -0.5578 -1.0392
 4229TIP3    H236883   1.562   7.255   6.623 -1.3836 -0.3707  0.8215
 4230TIP3   OH236884   6.361   5.294   7.593 -0.5816  0.1713  0.0794
 4230TIP3    H136885   6.408   5.330   7.518  0.0200 -0.8467 -0.0528
 4230TIP3    H236886   6.410   5.325   7.669  1.1962 -1.9343 -0.0810
 4231TIP3   OH236887   5.770   4.149   7.069 -0.1231  0.3277  0.0205
 4231TIP3    H136888   5.852   4.170   7.023  0.7814  0.0728  1.4675
 4231TIP3    H236889   5.785   4.063   7.107 -1.5814 -0.3234 -0.7966
 4232TIP3   OH236890   5.430   5.742   8.676  0.0129 -0.0183 -0.1786
 4232TIP3    H136891   5.350   5.690   8.680 -0.4805  0.7690  0.5175
 4232TIP3    H236892   5.475   5.723   8.758  0.8583 -0.9450 -0.8492
 4233TIP3   OH236893   7.418   1.529   7.110 -0.7877 -0.7467 -0.3712
 4233TIP3    H136894   7.396   1.536   7.017  0.1423 -2.8837 -0.8068
 4233TIP3    H236895   7.428   1.435   7.126 -0.3345 -0.3998  1.7594
 4234TIP3   OH236896   3.983   7.281   9.403 -0.0079 -0.1593 -0.9393
 4234TIP3    H136897   4.068   7.325   9.409 -0.8108  1.3659 -0.3457
 4234TIP3    H236898   3.923   7.348   9.372 -1.1083 -1.0856 -0.8782
 4235TIP3   OH236899   1.647   4.235   7.680  0.5400  0.1292 -0.2631
 4235TIP3    H136900   1.597   4.253   7.760  0.2069  0.3608 -0.5217
 4235TIP3    H236901   1.598   4.279   7.611  0.4999 -0.5674 -0.6912
 4236TIP3   OH236902   6.627   6.449   8.723 -1.1299 -0.2392  0.1726
 4236TIP3    H136903   6.614   6.418   8.812  0.7057  0.8219  0.8698
 4236TIP3    H236904   6.715   6.487   8.723 -1.5273  0.8488 -1.7791
 4237TIP3   OH236905   3.736   2.164   7.755 -0.3781 -0.2487 -0.8063
 4237TIP3    H136906   3.763   2.078   7.722  0.7827 -0.5797  0.8503
 4237TIP3    H236907   3.671   2.145   7.823 -0.3532  0.1991 -0.6506
 4238TIP3   OH236908   6.375   4.869   8.212  0.0194 -0.1192 -0.1808
 4238TIP3    H136909   6.387   4.780   8.246  0.0283 -0.0677 -0.0443
 4238TIP3    H236910   6.302   4.904   8.263  0.6422  0.2862  0.4552
 4239TIP3   OH236911   0.428   0.220   7.606  0.1438  0.2878 -0.0978
 4239TIP3    H136912   0.512   0.257   7.578 -0.8077  1.5828 -1.3812
 4239TIP3    H236913   0.403   0.272   7.682  0.3245  0.1332  0.0693
 4240TIP3   OH236914   1.399   0.720   6.647 -0.2110 -0.5192  0.0962
 4240TIP3    H136915   1.322   0.754   6.602  0.9484 -0.3457 -1.8809
 4240TIP3    H236916   1.426   0.644   6.595  0.6790 -0.8599  1.0241
 4241TIP3   OH236917   0.371   1.503   9.710  0.1661 -0.2982 -0.4784
 4241TIP3    H136918   0.334   1.591   9.700 -1.8334 -0.6654  2.2856
 4241TIP3    H236919   0.298   1.444   9.690  0.1255 -1.1596  1.9057
 4242TIP3   OH236920   1.483   4.168   8.713  0.1755 -0.2707 -0.0455
 4242TIP3    H136921   1.528   4.240   8.669  0.0587 -0.6735 -0.8354
 4242TIP3    H236922   1.390   4.183   8.694  0.0224  0.1262  0.9328
 4243TIP3   OH236923   3.816   5.035   8.749 -0.1280  0.0371  0.2943
 4243TIP3    H136924   3.859   5.120   8.742  0.8515 -0.5115 -1.0992
 4243TIP3    H236925   3.864   4.989   8.818  0.2959  0.1076  0.0506
 4244TIP3   OH236926   3.492   3.516   8.995  0.5788  0.0500 -0.2682
 4244TIP3    H136927   3.467   3.429   9.026  0.3481  0.1459 -0.1813
 4244TIP3    H236928   3.511   3.505   8.902  1.6985 -0.3290 -0.0026
 4245TIP3   OH236929   1.343   4.353   8.261 -0.1816 -0.0272  0.7670
 4245TIP3    H136930   1.335   4.261   8.233 -0.7473 -0.6408  2.8255
 4245TIP3    H236931   1.420   4.385   8.214 -0.3246 -1.3575 -0.4602
 4246TIP3   OH236932   0.767   4.267   8.967  0.1967 -0.4396 -0.3885
 4246TIP3    H136933   0.718   4.343   8.935  0.5989  0.4169  0.9797
 4246TIP3    H236934   0.704   4.220   9.023  0.6381  0.1766  0.6488
 4247TIP3   OH236935   2.317   4.332   7.157 -0.0249  0.2568 -0.0042
 4247TIP3    H136936   2.227   4.338   7.189 -0.5349  0.4410 -1.4055
 4247TIP3    H236937   2.331   4.413   7.109  0.7529  0.0345 -0.1680
 4248TIP3   OH236938   5.251   5.778   7.697 -0.2891  0.3398  0.2775
 4248TIP3    H136939   5.250   5.858   7.644  1.3797 -1.1627 -2.2495
 4248TIP3    H236940   5.158   5.757   7.709 -0.7603  1.2642 -1.3364
 4249TIP3   OH236941   3.454   5.820   7.016 -0.2750 -0.0744  0.0962
 4249TIP3    H136942   3.388   5.887   7.032  0.4425  0.4518  0.9584
 4249TIP3    H236943   3.466   5.820   6.921 -1.7362 -0.4155 -0.1126
 4250TIP3   OH236944   4.707   5.297   9.308 -0.0426  0.1895  0.3709
 4250TIP3    H136945   4.724   5.283   9.215 -0.2368  1.3322  0.1465
 4250TIP3    H236946   4.722   5.390   9.321 -0.0582  0.0506  1.4836
 4251TIP3   OH236947   4.724   6.620  10.050 -0.3459 -0.6897 -0.4784
 4251TIP3    H136948   4.766   6.692  10.002 -1.7481  0.8441  0.4795
 4251TIP3    H236949   4.797   6.567  10.083  0.8817  1.5705  0.6779
 4252TIP3   OH236950   2.710   0.017   8.012 -0.8069 -0.3985 -0.0136
 4252TIP3    H136951   2.697   0.039   8.104  0.8416  2.1684 -0.3103
 4252TIP3    H236952   2.774  -0.054   8.013 -1.5257 -1.0627  0.7979
 4253TIP3   OH236953   1.485   3.172   8.784  0.0673  0.9053 -0.8117
 4253TIP3    H136954   1.399   3.191   8.746 -0.8591  0.7499  1.0866
 4253TIP3    H236955   1.546   3.184   8.712 -1.5221  1.2244 -2.1699
 4254TIP3   OH236956   5.940   3.901   7.787 -0.7020 -0.4810  0.3867
 4254TIP3    H136957   6.016   3.844   7.776 -1.5476 -1.4482 -0.7088
 4254TIP3    H236958   5.957   3.948   7.868  0.5626 -1.4565  0.7202
 4255TIP3   OH236959   1.380   6.790   9.629  0.0028  0.0650  0.0995
 4255TIP3    H136960   1.352   6.701   9.607 -0.4026 -0.0852  1.1631
 4255TIP3    H236961   1.306   6.828   9.675  0.6169  0.5378  0.7233
 4256TIP3   OH236962   5.717   5.351   8.324 -0.1527  0.4112 -0.4178
 4256TIP3    H136963   5.756   5.280   8.375 -3.0002 -0.3492  0.8904
 4256TIP3    H236964   5.722   5.321   8.234 -0.2161 -0.9152 -0.0048
 4257TIP3   OH236965   2.669   2.495   8.303 -0.4173  0.0091  0.4451
 4257TIP3    H136966   2.611   2.524   8.233 -0.5969  0.7906  0.9114
 4257TIP3    H236967   2.618   2.430   8.351 -0.3981 -0.3149  0.0365
 4258TIP3   OH236968   0.512   1.993   8.613  0.2517  0.0950 -1.0431
 4258TIP3    H136969   0.428   2.016   8.574 -0.0178 -0.4697 -0.7908
 4258TIP3    H236970   0.512   1.898   8.617  0.4242  0.1314  0.0101
 4259TIP3   OH236971   6.067   2.572   7.655  0.5464  0.2283 -0.2071
 4259TIP3    H136972   6.079   2.611   7.568  2.8676 -1.7582 -0.9214
 4259TIP3    H236973   6.127   2.620   7.711 -1.5972  2.1043  0.6039
 4260TIP3   OH236974   3.743   3.276   8.473  0.7220  0.0697  0.3304
 4260TIP3    H136975   3.728   3.182   8.477  0.2173  0.1218 -0.1124
 4260TIP3    H236976   3.760   3.293   8.380 -0.6424  0.6033  0.1427
 4261TIP3   OH236977   1.484   3.838   9.124  0.5111 -0.3475 -0.2092
 4261TIP3    H136978   1.501   3.880   9.040 -0.7406 -1.5875 -1.1235
 4261TIP3    H236979   1.389   3.832   9.129  0.6154 -1.7998  0.5022
 4262TIP3   OH236980   5.902   6.935   8.412 -0.1330  0.2019 -0.3911
 4262TIP3    H136981   5.880   6.859   8.466  0.6593  0.7070  0.6537
 4262TIP3    H236982   5.881   6.907   8.323  1.3460 -1.7290 -0.1936
 4263TIP3   OH236983   6.385   1.415   7.968  0.2393  0.2582  0.0418
 4263TIP3    H136984   6.315   1.432   8.032  0.7828  1.9775  0.2276
 4263TIP3    H236985   6.461   1.461   8.003  1.2678 -0.9244 -0.5673
 4264TIP3   OH236986   5.932   3.896   9.187  0.1709  0.2051  0.3130
 4264TIP3    H136987   5.976   3.939   9.260  0.8744  0.1475 -0.0677
 4264TIP3    H236988   5.881   3.965   9.146  2.0097  0.9451 -0.8497
 4265TIP3   OH236989   0.487   2.918   7.612  0.4254 -0.4530 -0.5217
 4265TIP3    H136990   0.494   2.830   7.649  0.9395  0.0739  0.6946
 4265TIP3    H236991   0.412   2.957   7.656  0.2197 -0.2635 -1.0297
 4266TIP3   OH236992   0.141   2.519   7.002  0.3402  0.7585  0.2540
 4266TIP3    H136993   0.054   2.480   7.005  0.9284 -0.9881 -2.0744
 4266TIP3    H236994   0.194   2.464   7.060  0.6870 -0.7266 -1.3707
 4267TIP3   OH236995   2.487   5.829   8.695 -0.6216  0.3731 -0.7387
 4267TIP3    H136996   2.406   5.872   8.722  0.3250  1.3838  0.6902
 4267TIP3    H236997   2.552   5.899   8.693  0.1255 -0.3113 -2.4201
 4268TIP3   OH236998   3.268   0.781   8.267 -0.6245 -0.0089 -0.4701
 4268TIP3    H136999   3.351   0.734   8.257 -0.4286  0.4658 -1.1469
 4268TIP3    H237000   3.245   0.769   8.359 -1.0862 -2.2447 -0.8399
 4269TIP3   OH237001   3.713   2.720   8.049 -0.3639 -0.2378 -0.2679
 4269TIP3    H137002   3.710   2.777   7.972 -2.9731  0.7146  0.4602
 4269TIP3    H237003   3.699   2.632   8.014  2.7857 -0.4591 -1.2870
 4270TIP3   OH237004   3.251   6.871   7.980  1.0976  0.3066  0.2732
 4270TIP3    H137005   3.337   6.912   7.994  1.8154 -0.6595 -1.1197
 4270TIP3    H237006   3.264   6.779   8.005  0.4385  0.1727  0.1365
 4271TIP3   OH237007   3.029   6.490   8.589 -0.3749  0.1825  0.0187
 4271TIP3    H137008   3.008   6.404   8.553 -0.1427  0.0206  0.2663
 4271TIP3    H237009   3.098   6.473   8.653 -1.0324  0.4083  0.8068
 4272TIP3   OH237010   3.478   2.931   8.886 -0.0384  0.6598  0.2541
 4272TIP3    H137011   3.487   2.957   8.795 -0.7048 -1.4920 -0.4907
 4272TIP3    H237012   3.552   2.971   8.930  1.6087 -0.1100 -1.6837
 4273TIP3   OH237013   2.915   6.119   9.516  0.1903 -0.4562 -0.1912
 4273TIP3    H137014   2.967   6.104   9.437  1.8638 -1.2991  1.0074
 4273TIP3    H237015   2.968   6.179   9.568  0.1925 -1.6605  1.2472
 4274TIP3   OH237016   2.634   5.304   8.751 -0.1130 -0.3977 -0.1636
 4274TIP3    H137017   2.697   5.375   8.737  1.1410 -1.4970 -0.3117
 4274TIP3    H237018   2.685   5.235   8.793 -1.3043 -1.2205 -0.0214
 4275TIP3   OH237019   7.428   1.316   8.949 -0.1146 -0.2923  0.4831
 4275TIP3    H137020   7.378   1.295   9.028 -1.2802 -0.3328 -0.2343
 4275TIP3    H237021   7.501   1.370   8.980 -1.5558  1.2454  1.3847
 4276TIP3   OH237022   5.277   1.188   9.023  0.0969  0.7583  0.1013
 4276TIP3    H137023   5.214   1.237   9.075  0.1706  1.1976 -0.2187
 4276TIP3    H237024   5.244   1.098   9.023 -0.9158  1.1139 -0.6445
 4277TIP3   OH237025   1.144   0.471   8.104  0.1853  0.7355 -0.1911
 4277TIP3    H137026   1.158   0.420   8.183 -0.8093  0.3473 -0.2605
 4277TIP3    H237027   1.231   0.474   8.062  0.9632  1.8036  1.3880
 4278TIP3   OH237028   5.371   4.353   7.889  0.0105  0.3832 -0.1263
 4278TIP3    H137029   5.409   4.266   7.883 -0.1003  0.3982 -1.1145
 4278TIP3    H237030   5.281   4.339   7.917  0.0494  0.1951 -0.0990
 4279TIP3   OH237031   3.293   0.728   7.540  0.1958  0.0442  0.7568
 4279TIP3    H137032   3.367   0.783   7.565  0.0673  1.1530 -1.0838
 4279TIP3    H237033   3.325   0.676   7.467 -0.2205 -1.0795  1.3519
 4280TIP3   OH237034   2.448   6.540   7.987  0.4895 -0.0257  0.0121
 4280TIP3    H137035   2.510   6.468   7.994  0.7252  0.0922 -0.7356
 4280TIP3    H237036   2.475   6.602   8.054  0.8888 -0.1913  0.0030
 4281TIP3   OH237037   7.176   4.793   9.446  0.4399 -0.1120  0.0543
 4281TIP3    H137038   7.211   4.781   9.535 -0.9177 -3.8548  0.2793
 4281TIP3    H237039   7.082   4.798   9.458  0.3208  0.6888 -1.1066
 4282TIP3   OH237040   1.557   3.322   9.490 -0.1090 -0.3173  0.1772
 4282TIP3    H137041   1.584   3.414   9.481  0.2857 -0.6156 -2.3526
 4282TIP3    H237042   1.470   3.326   9.529  0.9497  0.9403  2.6895
 4283TIP3   OH237043   2.163   5.877   8.032 -0.5997  0.0933  0.1532
 4283TIP3    H137044   2.098   5.888   7.962 -1.2915  1.3391  0.9626
 4283TIP3    H237045   2.146   5.949   8.093  1.3565  0.2965  0.5442
 4284TIP3   OH237046   6.391   4.281   9.001 -0.0500 -0.3461 -0.1617
 4284TIP3    H137047   6.341   4.321   9.072  0.0955 -0.0849 -0.2062
 4284TIP3    H237048   6.445   4.352   8.966  0.0168 -0.5172 -0.4121
 4285TIP3   OH237049   5.930   6.806   8.704 -0.2142  0.0911  0.4814
 4285TIP3    H137050   5.963   6.717   8.718 -2.3106 -0.7366  0.5635
 4285TIP3    H237051   5.963   6.856   8.778  1.6252 -0.3927  0.0443
 4286TIP3   OH237052   5.056   1.267   9.186  0.3569 -0.2518  0.3087
 4286TIP3    H137053   4.995   1.259   9.112  0.9462 -0.7053 -0.1371
 4286TIP3    H237054   5.005   1.241   9.262 -0.9038  2.1595  0.4104
 4287TIP3   OH237055   0.647   4.682   8.997 -0.0325  0.1895  0.0206
 4287TIP3    H137056   0.559   4.693   9.032 -0.3669 -0.8022 -0.4653
 4287TIP3    H237057   0.639   4.610   8.935  1.6919 -1.8942  2.0547
 4288TIP3   OH237058   3.697   1.292   9.065  0.3901 -0.1859  0.6533
 4288TIP3    H137059   3.776   1.340   9.042  1.0954 -2.1418 -1.4245
 4288TIP3    H237060   3.627   1.357   9.061  1.4247  0.9008 -0.9491
 4289TIP3   OH237061   3.291   6.296   7.378 -0.0991 -0.4453 -0.0035
 4289TIP3    H137062   3.301   6.287   7.473 -1.4821 -0.2934  0.1791
 4289TIP3    H237063   3.347   6.370   7.356  1.9660 -1.8198  0.3216
 4290TIP3   OH237064   0.175   0.032   9.364 -0.4151  0.1856 -0.7227
 4290TIP3    H137065   0.131  -0.041   9.406  0.4552  0.3446  0.5342
 4290TIP3    H237066   0.132   0.041   9.279 -0.3863 -1.9204 -1.0051
 4291TIP3   OH237067   6.968   5.727   8.212  0.3094 -0.1195  0.1807
 4291TIP3    H137068   7.013   5.812   8.212  0.0272  0.0333  1.0294
 4291TIP3    H237069   6.994   5.686   8.294  0.4748 -0.8848 -0.2400
 4292TIP3   OH237070   6.855   1.904   8.260  0.2332 -0.7175  0.1834
 4292TIP3    H137071   6.895   1.879   8.344 -0.0793  1.9553  1.2064
 4292TIP3    H237072   6.920   1.877   8.195  0.9460 -1.9181  1.3251
 4293TIP3   OH237073   0.854   7.197   8.125 -0.3608  0.5451 -0.5864
 4293TIP3    H137074   0.847   7.171   8.032 -1.6329  0.1393 -0.4063
 4293TIP3    H237075   0.800   7.275   8.132 -1.4505 -0.2320  0.0753
 4294TIP3   OH237076   3.527   4.974   7.575  0.5563 -0.6099  0.2135
 4294TIP3    H137077   3.608   5.007   7.537 -0.1463  1.2586  0.2276
 4294TIP3    H237078   3.477   5.053   7.596 -0.8676 -1.7031  1.0703
 4295TIP3   OH237079   5.946   4.504   8.136 -0.4807  0.8236  0.4197
 4295TIP3    H137080   5.901   4.431   8.177  1.0019 -0.0884  0.4839
 4295TIP3    H237081   6.027   4.466   8.100  0.6423  2.5259  1.0229
 4296TIP3   OH237082   0.460   5.441   8.714 -0.1858 -0.4000 -0.1749
 4296TIP3    H137083   0.539   5.491   8.735 -0.7672  1.0147 -1.1495
 4296TIP3    H237084   0.451   5.379   8.786  2.1409 -1.0434 -0.3535
 4297TIP3   OH237085   3.467   2.162   8.143 -0.0743  0.2230 -0.3563
 4297TIP3    H137086   3.444   2.196   8.230  2.5919 -0.7885  0.8473
 4297TIP3    H237087   3.383   2.140   8.104 -1.4028  1.0519  1.8053
 4298TIP3   OH237088   0.041   0.069   9.138 -0.3329 -0.2133  0.4035
 4298TIP3    H137089   0.050   0.148   9.085 -2.1016  1.0495  1.8554
 4298TIP3    H237090   0.055  -0.004   9.077  0.8078  1.1887 -1.0844
 4299TIP3   OH237091   6.508   6.435   7.817  0.3754 -0.0816 -0.1328
 4299TIP3    H137092   6.530   6.511   7.870  0.3726  1.1119 -1.8003
 4299TIP3    H237093   6.550   6.361   7.863  1.6706  1.1165  0.6796
 4300TIP3   OH237094   0.595   0.526   8.607 -0.7481 -0.9336  0.0661
 4300TIP3    H137095   0.607   0.545   8.700 -0.3179 -0.3624 -0.0973
 4300TIP3    H237096   0.583   0.431   8.603  1.5571 -1.3173  0.4940
 4301TIP3   OH237097   4.993   5.497   9.002 -0.0052  0.0911 -0.2298
 4301TIP3    H137098   4.955   5.529   9.084 -2.5404 -0.2435 -1.2014
 4301TIP3    H237099   5.017   5.406   9.020 -0.5934  0.0055  0.1244
 4302TIP3   OH237100   4.348   4.226   8.002  0.4718  0.2051 -0.0544
 4302TIP3    H137101   4.342   4.253   7.910  1.9797  0.0420 -0.2241
 4302TIP3    H237102   4.441   4.232   8.023  0.2293 -0.3497  1.2907
 4303TIP3   OH237103   6.652   1.247   8.507  0.3337  0.3402  0.0306
 4303TIP3    H137104   6.719   1.192   8.467  1.4569  1.5406  0.2189
 4303TIP3    H237105   6.578   1.243   8.446  0.3922 -1.2903  0.0057
 4304TIP3   OH237106   6.222   5.301   8.397  0.1229  0.1534  0.0820
 4304TIP3    H137107   6.186   5.365   8.459  0.4052 -0.0317  0.4415
 4304TIP3    H237108   6.306   5.276   8.435 -0.5598 -1.4061  0.6382
 4305TIP3   OH237109   1.967   4.151   8.761 -0.2346  0.0269  0.3034
 4305TIP3    H137110   2.021   4.190   8.692 -0.3543  0.4286  0.4392
 4305TIP3    H237111   1.899   4.104   8.714  1.0480 -1.7182  0.0694
 4306TIP3   OH237112   1.017   1.315   7.454 -0.1359 -0.0243  0.1456
 4306TIP3    H137113   0.996   1.228   7.485  0.5485 -0.6615 -1.0838
 4306TIP3    H237114   1.073   1.352   7.522  1.5222 -1.4584 -0.3709
 4307TIP3   OH237115   1.473   6.628   8.331 -0.0820  0.2022 -0.2164
 4307TIP3    H137116   1.516   6.701   8.376 -0.3316  0.5685 -0.5621
 4307TIP3    H237117   1.415   6.670   8.268 -2.0201 -0.2203  1.1871
 4308TIP3   OH237118   0.194   4.543   9.228  0.3113 -0.2799 -0.2544
 4308TIP3    H137119   0.106   4.507   9.237  0.4207 -0.4261  0.2295
 4308TIP3    H237120   0.218   4.523   9.137 -0.4029  0.3387 -0.5848
 4309TIP3   OH237121   0.310   6.874   7.843 -0.3098 -0.0272  0.5973
 4309TIP3    H137122   0.360   6.923   7.909 -1.4365  1.0305  0.7021
 4309TIP3    H237123   0.301   6.935   7.770 -3.9721  1.0195  1.7394
 4310TIP3   OH237124   5.027   5.459   9.456 -0.0901  0.0254 -0.1191
 4310TIP3    H137125   5.011   5.434   9.547  0.8209 -0.6490 -0.1324
 4310TIP3    H237126   5.116   5.492   9.455 -0.1135  0.0852 -0.7594
 4311TIP3   OH237127   6.316   3.553   8.483  0.3414 -0.5113  0.1396
 4311TIP3    H137128   6.389   3.611   8.503  0.7169 -1.2390  0.9238
 4311TIP3    H237129   6.262   3.553   8.562 -0.3140 -0.2774 -0.2951
 4312TIP3   OH237130   3.149   5.747   8.166  0.6708 -0.2535  0.0926
 4312TIP3    H137131   3.148   5.749   8.262  3.4154  0.1448  0.1835
 4312TIP3    H237132   3.223   5.689   8.144 -0.3552 -0.9302 -1.8070
 4313TIP3   OH237133   5.210   1.891   8.439  0.0682 -0.6957 -0.5659
 4313TIP3    H137134   5.303   1.909   8.454 -0.4037  0.3519  1.4780
 4313TIP3    H237135   5.184   1.953   8.370  0.3363  0.8421  0.6616
 4314TIP3   OH237136   3.894   0.380   6.695 -0.3674 -1.0706 -0.0854
 4314TIP3    H137137   3.922   0.335   6.775 -2.3128 -0.4148  1.0370
 4314TIP3    H237138   3.812   0.337   6.671 -0.4188 -0.4656 -1.0540
 4315TIP3   OH237139   0.069   7.247   9.805 -0.2146 -0.0500 -0.1670
 4315TIP3    H137140   0.123   7.223   9.881  1.4917 -0.0315 -1.3215
 4315TIP3    H237141   0.000   7.180   9.803 -0.0078 -0.3373  1.1016
 4316TIP3   OH237142   5.268   2.160   7.236  0.0596 -0.0666  0.1617
 4316TIP3    H137143   5.355   2.170   7.198  0.3965 -1.9869  0.2974
 4316TIP3    H237144   5.227   2.246   7.227  1.9292  0.8513  0.0366
 4317TIP3   OH237145   6.405   0.684   7.468  0.8106  0.2916  0.0266
 4317TIP3    H137146   6.331   0.674   7.409  0.9847 -0.4286 -0.0700
 4317TIP3    H237147   6.370   0.660   7.554  1.6376 -3.0997 -0.4349
 4318TIP3   OH237148   1.217   0.964   7.596  0.1136 -0.3401 -0.8845
 4318TIP3    H137149   1.228   1.056   7.621 -2.2066 -0.1068 -0.4577
 4318TIP3    H237150   1.173   0.968   7.511  1.6886 -1.1108 -1.7805
 4319TIP3   OH237151   2.483   2.152   9.156 -0.5466 -0.8851  0.3805
 4319TIP3    H137152   2.459   2.237   9.193 -2.3139 -0.9107 -0.5975
 4319TIP3    H237153   2.534   2.174   9.078 -0.5888 -0.7290  0.3963
 4320TIP3   OH237154   5.732   3.189   8.775 -0.0575  0.3380  0.4528
 4320TIP3    H137155   5.748   3.197   8.681  0.0257  1.6730  0.5559
 4320TIP3    H237156   5.722   3.095   8.790  2.2968 -0.1421 -0.4974
 4321TIP3   OH237157   3.172   5.989   7.683  0.1220  0.5653  0.3742
 4321TIP3    H137158   3.215   6.073   7.698  0.1155  0.5867  0.2743
 4321TIP3    H237159   3.163   5.950   7.770 -5.2904  3.2316  1.4112
 4322TIP3   OH237160   7.109   0.172   7.091  0.6971 -0.2586  0.0323
 4322TIP3    H137161   7.060   0.122   7.026  0.8845  0.4825 -0.6955
 4322TIP3    H237162   7.172   0.223   7.040  0.8417  0.3501  0.7949
 4323TIP3   OH237163   4.610   5.677   8.455  0.1903  0.0102  0.0305
 4323TIP3    H137164   4.611   5.688   8.360 -3.0234 -0.4336 -0.1557
 4323TIP3    H237165   4.658   5.595   8.470 -0.3382 -0.5862 -1.3734
 4324TIP3   OH237166   3.045   4.111   9.644 -0.2171  0.4167 -0.5882
 4324TIP3    H137167   2.995   4.067   9.574 -1.2082  0.5327  0.0313
 4324TIP3    H237168   2.999   4.088   9.724  0.1388  1.3719 -0.0961
 4325TIP3   OH237169   5.377   3.727   8.149 -0.2527 -0.3721 -0.0910
 4325TIP3    H137170   5.397   3.681   8.067 -0.2896  0.8712 -0.8314
 4325TIP3    H237171   5.328   3.664   8.201  1.3425 -1.8322 -0.2613
 4326TIP3   OH237172   1.061   3.170   7.904 -0.2530  0.2681 -0.3016
 4326TIP3    H137173   1.129   3.209   7.849 -1.7832  4.1625  0.2537
 4326TIP3    H237174   0.993   3.236   7.909 -3.0721 -2.4762  1.1524
 4327TIP3   OH237175   6.558   5.621   8.037  0.6494 -0.1498  0.2481
 4327TIP3    H137176   6.572   5.529   8.058  1.5021  0.2001  1.2435
 4327TIP3    H237177   6.493   5.619   7.966  2.4022 -1.6240 -1.4368
 4328TIP3   OH237178   5.433   1.497   9.242  0.4720  0.2042  0.5383
 4328TIP3    H137179   5.440   1.591   9.257 -1.8497  1.2728 -3.5240
 4328TIP3    H237180   5.341   1.477   9.256  1.1216 -1.7856  2.3853
 4329TIP3   OH237181   2.935   6.508   7.160 -0.6001  1.2259  0.3198
 4329TIP3    H137182   3.017   6.552   7.138 -0.8086  1.6136  0.3231
 4329TIP3    H237183   2.877   6.526   7.086 -0.7292  1.0621  0.3778
 4330TIP3   OH237184   0.225   3.583   9.549  0.4506 -0.5292  0.3974
 4330TIP3    H137185   0.250   3.649   9.614  2.5553 -0.4511 -0.3979
 4330TIP3    H237186   0.268   3.503   9.580  1.2378 -0.5564 -0.7259
 4331TIP3   OH237187   0.680   4.878   8.321 -0.3391 -0.4932 -0.9173
 4331TIP3    H137188   0.746   4.838   8.265 -0.2692  0.1122 -1.2771
 4331TIP3    H237189   0.609   4.815   8.324  0.0215 -0.9092 -0.9765
 4332TIP3   OH237190   2.009   5.060   7.570  0.4425 -0.2925 -0.1657
 4332TIP3    H137191   1.984   5.015   7.489 -0.4440 -0.3527  0.1408
 4332TIP3    H237192   1.982   5.151   7.556 -2.4715 -0.8556  1.1897
 4333TIP3   OH237193   4.147   5.932   9.050 -0.0443 -0.4283 -0.1881
 4333TIP3    H137194   4.072   5.956   8.996 -0.1807  1.0616  0.6126
 4333TIP3    H237195   4.109   5.887   9.125  0.0772 -1.7300 -0.8784
 4334TIP3   OH237196   3.719   7.034   9.153 -0.2075  0.5410  0.0202
 4334TIP3    H137197   3.661   6.983   9.097  1.1263 -0.7680 -0.1978
 4334TIP3    H237198   3.724   6.984   9.235  0.3624  0.8177  0.1578
 4335TIP3   OH237199   1.095   5.540   8.557 -0.1550  0.2448 -0.5225
 4335TIP3    H137200   1.097   5.622   8.608  2.8431  0.3305 -0.5902
 4335TIP3    H237201   1.106   5.471   8.623 -1.0918 -0.0193 -0.6277
 4336TIP3   OH237202   7.319   4.018   8.274 -0.6396  0.4584 -0.3738
 4336TIP3    H137203   7.244   3.960   8.285 -0.7844  0.8634  0.8813
 4336TIP3    H237204   7.388   3.978   8.327 -0.1023  0.3448 -1.1396
 4337TIP3   OH237205   3.809   1.044   7.200  0.6267  0.2010 -0.2753
 4337TIP3    H137206   3.871   0.994   7.148 -1.0305 -0.9715 -1.2521
 4337TIP3    H237207   3.769   0.979   7.259  0.6843  1.0227  0.6954
 4338TIP3   OH237208   6.517   6.273   8.530 -0.4354  0.2822  0.2443
 4338TIP3    H137209   6.557   6.341   8.583 -1.9196  0.0200  1.7836
 4338TIP3    H237210   6.452   6.318   8.477  0.3910  0.4066 -0.6917
 4339TIP3   OH237211   2.797   4.298   9.427  1.1194 -0.2524 -0.1815
 4339TIP3    H137212   2.799   4.366   9.494  1.5249  0.5860 -1.0253
 4339TIP3    H237213   2.889   4.273   9.416  1.1456  0.1455 -0.9366
 4340TIP3   OH237214   5.970   5.660   7.082  0.0428  0.4274  0.3375
 4340TIP3    H137215   6.062   5.676   7.060  0.3582 -0.6567  0.7815
 4340TIP3    H237216   5.955   5.713   7.160 -0.0382  1.4626 -0.3648
 4341TIP3   OH237217   6.847   1.150   8.294 -0.3438  0.0703  0.1106
 4341TIP3    H137218   6.818   1.114   8.211  0.3903 -0.6072  0.1353
 4341TIP3    H237219   6.882   1.237   8.273  1.1838 -0.6661 -0.5422
 4342TIP3   OH237220   4.248   2.077   8.063 -0.2278 -0.6574  0.3217
 4342TIP3    H137221   4.259   2.047   8.154 -2.1309 -1.5534  0.2965
 4342TIP3    H237222   4.338   2.093   8.033  0.4773 -0.6549  2.2370
 4343TIP3   OH237223   4.819   6.325   6.702  0.3810 -0.1722  0.5328
 4343TIP3    H137224   4.837   6.412   6.739  1.0082 -1.1557  2.6519
 4343TIP3    H237225   4.724   6.325   6.690  0.4477  1.0707 -0.2786
 4344TIP3   OH237226   4.660   0.581   8.244  0.2756 -0.3496  0.1843
 4344TIP3    H137227   4.663   0.625   8.329 -0.4023 -0.2960  0.1833
 4344TIP3    H237228   4.626   0.648   8.184 -1.2764 -1.0136  0.2819
 4345TIP3   OH237229   7.303   0.830   7.751 -0.3776  0.2224  0.6393
 4345TIP3    H137230   7.281   0.808   7.661  1.3663 -1.0970  0.4743
 4345TIP3    H237231   7.223   0.868   7.787 -1.1866  0.5515 -1.3701
 4346TIP3   OH237232   6.000   5.110   9.208  0.0047  0.1348  0.3938
 4346TIP3    H137233   6.053   5.183   9.177  0.5166 -0.2655  0.3170
 4346TIP3    H237234   6.052   5.071   9.278  0.5478 -1.2079 -0.7022
 4347TIP3   OH237235   1.808   6.293   7.481 -0.1733 -0.6619  0.1864
 4347TIP3    H137236   1.789   6.274   7.573  0.3969  0.3731  0.5257
 4347TIP3    H237237   1.766   6.221   7.433 -1.9928 -0.2685  1.1222
 4348TIP3   OH237238   6.900   5.937   7.081 -0.6751 -0.1818  0.4703
 4348TIP3    H137239   6.960   5.889   7.138  1.2091 -0.5846 -1.6912
 4348TIP3    H237240   6.949   5.948   6.999 -3.7102 -0.9312 -1.5972
 4349TIP3   OH237241   1.608   0.510   7.713  0.1525  0.5339 -0.2737
 4349TIP3    H137242   1.686   0.544   7.757  0.4737 -0.0810 -0.3493
 4349TIP3    H237243   1.559   0.588   7.687  1.5723  0.9990 -1.7381
 4350TIP3   OH237244   0.204   7.173   7.221 -0.1015 -0.1857  0.3369
 4350TIP3    H137245   0.166   7.235   7.159  1.5862  0.0048 -0.5574
 4350TIP3    H237246   0.130   7.145   7.275 -1.5265  0.0924 -1.3709
 4351TIP3   OH237247   3.958   0.486   8.525  0.3325 -0.1390 -0.4518
 4351TIP3    H137248   4.039   0.518   8.565  0.5660  0.2719 -1.2224
 4351TIP3    H237249   3.907   0.450   8.598  0.3421  1.4232  0.3734
 4352TIP3   OH237250   4.312   7.244   8.927  0.1712  0.3915 -1.2060
 4352TIP3    H137251   4.334   7.311   8.992 -0.3953 -0.4158 -0.1553
 4352TIP3    H237252   4.347   7.278   8.845 -0.5116  2.1886 -0.7956
 4353TIP3   OH237253   2.821   6.076   8.714 -0.0512  0.4770  0.1862
 4353TIP3    H137254   2.862   6.113   8.636  2.0230 -2.4098 -0.2686
 4353TIP3    H237255   2.877   6.002   8.738 -0.7473  1.0459  4.3138
 4354TIP3   OH237256   5.232   6.494   7.525 -0.0037  0.5865 -0.7435
 4354TIP3    H137257   5.262   6.541   7.602  0.1919  0.0044 -0.4590
 4354TIP3    H237258   5.236   6.559   7.454  0.1552  1.0229 -0.3417
 4355TIP3   OH237259   4.600   4.711   8.195 -0.0714 -0.4564  1.1136
 4355TIP3    H137260   4.677   4.696   8.140  0.9732 -0.7658  2.6062
 4355TIP3    H237261   4.548   4.631   8.186 -0.0419 -0.4037  0.4109
 4356TIP3   OH237262   0.749   2.412   8.802 -0.2709 -0.2498  0.2526
 4356TIP3    H137263   0.843   2.399   8.819 -0.1869 -0.5270 -0.3891
 4356TIP3    H237264   0.740   2.507   8.795 -0.1429 -0.1877  0.8896
 4357TIP3   OH237265   5.497   4.134   8.091  0.4435  0.1853  0.7862
 4357TIP3    H137266   5.578   4.175   8.059  1.0538 -0.9106  0.8556
 4357TIP3    H237267   5.464   4.086   8.015 -0.2625  0.7869  0.7044
 4358TIP3   OH237268   6.962   0.705   8.430  0.9173  0.1525 -0.0493
 4358TIP3    H137269   6.999   0.718   8.343  1.4961 -0.8010  0.0401
 4358TIP3    H237270   7.033   0.663   8.480  0.0150 -0.9382  0.3627
 4359TIP3   OH237271   3.810   2.272   9.681  0.2156  0.0383 -0.4407
 4359TIP3    H137272   3.834   2.278   9.588  2.7069  0.7831  0.1903
 4359TIP3    H237273   3.835   2.183   9.707 -1.9838 -0.7504 -0.8014
 4360TIP3   OH237274   0.138   6.119   8.899  0.4664  0.5649  0.4486
 4360TIP3    H137275   0.202   6.164   8.954  1.0024  2.0078 -1.2547
 4360TIP3    H237276   0.190   6.086   8.825 -0.6468  1.4142 -0.7586
 4361TIP3   OH237277   3.184   2.437   9.212 -1.1348  0.5596 -0.0030
 4361TIP3    H137278   3.139   2.383   9.277  3.0339 -2.3608  0.8541
 4361TIP3    H237279   3.259   2.474   9.259 -0.0908  1.5006 -2.2616
 4362TIP3   OH237280   7.083   2.015   7.147  0.7372 -0.1333  0.0878
 4362TIP3    H137281   7.054   1.975   7.065 -0.6889 -1.0090  0.9843
 4362TIP3    H237282   7.124   2.098   7.120  0.6753 -0.5989 -1.5291
 4363TIP3   OH237283   6.355   0.492   9.472 -0.2586  0.5089 -0.3022
 4363TIP3    H137284   6.421   0.534   9.416  1.7201  2.6388  3.2594
 4363TIP3    H237285   6.400   0.416   9.509 -0.7662  0.3585  0.0111
 4364TIP3   OH237286   2.277   4.783   8.645 -0.0956  1.1370  0.0413
 4364TIP3    H137287   2.364   4.812   8.672  0.3494 -0.7723  0.8085
 4364TIP3    H237288   2.247   4.727   8.716 -1.7152  1.2661 -0.5034
 4365TIP3   OH237289   3.158   6.307   9.409 -0.3348  0.5464 -0.0771
 4365TIP3    H137290   3.224   6.238   9.405 -0.8724  0.0133  0.0672
 4365TIP3    H237291   3.195   6.372   9.468 -0.5643 -0.4548  1.2271
 4366TIP3   OH237292   6.214   6.980   7.436  0.2497 -0.0165  0.6540
 4366TIP3    H137293   6.230   6.920   7.508 -0.1737 -0.1146  0.6672
 4366TIP3    H237294   6.133   7.026   7.460 -0.7067 -1.0639 -0.4036
 4367TIP3   OH237295   3.481   3.215   7.890  0.6388  0.0256 -0.5439
 4367TIP3    H137296   3.467   3.133   7.842 -0.0259  0.0032 -0.3187
 4367TIP3    H237297   3.506   3.278   7.822  0.4084 -0.1785 -0.8215
 4368TIP3   OH237298   0.795   2.701   8.803  0.3293 -0.5276 -0.2352
 4368TIP3    H137299   0.825   2.763   8.869 -1.0712  0.8354 -0.7957
 4368TIP3    H237300   0.863   2.701   8.736  1.3437 -1.2557  0.7700
 4369TIP3   OH237301   0.295   0.610   7.509 -0.1092  0.4543  0.3220
 4369TIP3    H137302   0.220   0.663   7.535 -1.2182 -0.6077 -0.5931
 4369TIP3    H237303   0.257   0.528   7.478  1.5456 -0.9312  1.7512
 4370TIP3   OH237304   5.585   2.462   9.072 -0.0172 -0.1661  0.1979
 4370TIP3    H137305   5.527   2.507   9.133  0.7291 -0.3950  1.0975
 4370TIP3    H237306   5.673   2.488   9.099  0.3380 -0.3813 -0.7018
 4371TIP3   OH237307   7.038   7.470   6.747 -0.4231 -0.2645 -0.0173
 4371TIP3    H137308   7.007   7.500   6.661  1.7773  1.2883 -0.3457
 4371TIP3    H237309   6.989   7.522   6.810  0.5820  1.3020 -0.4841
 4372TIP3   OH237310   3.220   5.893   8.571  0.1318 -0.2372 -0.3584
 4372TIP3    H137311   3.153   5.927   8.631 -0.0688 -1.4408  0.1274
 4372TIP3    H237312   3.278   5.841   8.626  2.9929  2.7149 -0.2849
 4373TIP3   OH237313   4.264   0.063   8.629  0.2186  0.5538 -0.6741
 4373TIP3    H137314   4.264   0.156   8.610 -0.0439  0.6433 -0.2679
 4373TIP3    H237315   4.245   0.021   8.546  0.2401  0.8673 -0.8393
 4374TIP3   OH237316   2.041   1.754   8.973 -0.3139 -0.6889  0.1960
 4374TIP3    H137317   2.038   1.662   8.946  0.3115 -0.1186 -1.9680
 4374TIP3    H237318   2.073   1.751   9.063  1.6351 -2.5004 -0.4700
 4375TIP3   OH237319   4.977   2.331   8.338  0.3836 -0.0335 -0.6671
 4375TIP3    H137320   5.003   2.296   8.423 -0.8767 -0.0930 -0.2852
 4375TIP3    H237321   5.001   2.424   8.342 -2.3740  0.7340  0.9947
 4376TIP3   OH237322   6.950   7.099   8.610  0.1052 -0.0562  0.0758
 4376TIP3    H137323   6.867   7.132   8.576  0.7033 -0.0787 -1.4831
 4376TIP3    H237324   6.987   7.172   8.660  0.0393  0.6221 -0.8478
 4377TIP3   OH237325   7.443   1.651   8.300 -0.0621  0.3114 -0.7112
 4377TIP3    H137326   7.440   1.593   8.224  1.1360  0.8523 -1.2015
 4377TIP3    H237327   7.532   1.641   8.334 -0.9606 -0.9812  1.5090
 4378TIP3   OH237328   6.525   7.303   8.342  0.2337  0.2542  0.4035
 4378TIP3    H137329   6.521   7.298   8.247 -1.0472 -0.0918  0.4544
 4378TIP3    H237330   6.488   7.219   8.372 -1.8367  1.3667  1.1910
 4379TIP3   OH237331   5.676   0.869   8.869 -0.0214 -0.0929 -0.2673
 4379TIP3    H137332   5.615   0.927   8.916  0.1486 -0.9538  1.0822
 4379TIP3    H237333   5.760   0.914   8.874 -0.1148  0.0772 -0.2081
 4380TIP3   OH237334   7.387   6.569   8.948 -0.6397  0.3687  0.8232
 4380TIP3    H137335   7.388   6.502   9.016  2.2598  1.3606  1.8937
 4380TIP3    H237336   7.479   6.586   8.929 -1.1901  4.1977  0.7704
 4381TIP3   OH237337   5.491   4.973   7.894 -0.6706 -0.0644 -0.2843
 4381TIP3    H137338   5.462   4.974   7.803 -0.1964  0.5436 -0.4390
 4381TIP3    H237339   5.514   5.064   7.913  1.5702 -0.5521 -0.3360
 4382TIP3   OH237340   3.106   6.211   8.991 -0.2552  0.2599  0.2008
 4382TIP3    H137341   3.041   6.249   8.932  0.6413  1.3176 -0.1412
 4382TIP3    H237342   3.182   6.194   8.935 -0.1392 -0.7384  0.6360
 4383TIP3   OH237343   2.266   0.649   7.888 -0.0357 -0.1915 -0.1291
 4383TIP3    H137344   2.353   0.657   7.927  0.0328  1.8993 -0.5816
 4383TIP3    H237345   2.281   0.623   7.797  0.0959 -0.1421 -0.1203
 4384TIP3   OH237346   3.171   2.668   7.369 -0.2811  0.4620  0.1474
 4384TIP3    H137347   3.195   2.609   7.298  0.3249  1.0776 -0.1810
 4384TIP3    H237348   3.076   2.672   7.367 -0.3496 -0.6667  0.3256
 4385TIP3   OH237349   0.532   1.116   8.957 -0.1029 -0.1729  0.6532
 4385TIP3    H137350   0.472   1.085   9.025 -0.5809 -0.5172  0.0835
 4385TIP3    H237351   0.478   1.122   8.878  1.3127 -4.2644 -0.9038
 4386TIP3   OH237352   5.468   3.001   8.822  0.3687  0.0057 -0.0913
 4386TIP3    H137353   5.404   2.968   8.885  0.6616 -0.8084 -0.2104
 4386TIP3    H237354   5.463   3.096   8.830 -0.5414 -0.0610  0.2102
 4387TIP3   OH237355   3.994   6.034   8.200  0.1089  0.2194  0.4800
 4387TIP3    H137356   3.904   6.067   8.193 -0.8574 -2.1240  0.9702
 4387TIP3    H237357   4.044   6.108   8.235 -1.6120  1.5836  0.1732
 4388TIP3   OH237358   2.697   4.398   7.815 -0.3250 -0.0476  0.3525
 4388TIP3    H137359   2.688   4.365   7.725  2.3192 -0.1473  0.0412
 4388TIP3    H237360   2.608   4.404   7.847 -1.2497 -2.2271 -1.4914
 4389TIP3   OH237361   1.502   6.372   7.760 -0.5239 -0.2819 -0.0249
 4389TIP3    H137362   1.483   6.369   7.667  1.2140 -1.9796 -0.4137
 4389TIP3    H237363   1.504   6.280   7.787  1.4129  0.0255  1.0952
 4390TIP3   OH237364   0.350   6.527   7.401 -0.8926 -0.6066  0.5263
 4390TIP3    H137365   0.281   6.520   7.467 -1.4047 -0.8697 -0.0262
 4390TIP3    H237366   0.408   6.453   7.419  0.3338  0.6495  2.1796
 4391TIP3   OH237367   0.642   6.628   8.813 -0.2224  0.2064 -0.1182
 4391TIP3    H137368   0.700   6.613   8.738  1.5600  1.5116  0.9145
 4391TIP3    H237369   0.688   6.587   8.887 -2.0877 -1.3254  0.2780
 4392TIP3   OH237370   4.078   2.013   9.526 -0.3000 -0.0124  0.3013
 4392TIP3    H137371   3.986   2.033   9.513 -0.4023 -1.3615 -1.3411
 4392TIP3    H237372   4.095   1.937   9.470  1.6574 -0.1935  1.0442
 4393TIP3   OH237373   6.282   6.586   7.860  0.0935 -0.2697  0.1260
 4393TIP3    H137374   6.346   6.530   7.817  0.8849 -0.5835  1.6236
 4393TIP3    H237375   6.245   6.531   7.929  0.0997  0.6982  0.9292
 4394TIP3   OH237376   0.177   4.142   9.229  0.1077  0.4183 -0.2754
 4394TIP3    H137377   0.268   4.138   9.200  0.0696  2.7498 -0.9579
 4394TIP3    H237378   0.128   4.160   9.149 -0.4274  3.2097  0.5518
 4395TIP3   OH237379   3.393   6.940   8.398  0.2021  0.9867  0.1306
 4395TIP3    H137380   3.485   6.957   8.417  0.2599 -0.4533  1.3889
 4395TIP3    H237381   3.347   7.017   8.431  0.6613  0.1210  3.1027
 4396TIP3   OH237382   2.934   7.357   8.015 -0.1851 -0.3786 -0.9438
 4396TIP3    H137383   2.941   7.388   8.105 -0.2495  1.6249 -1.5870
 4396TIP3    H237384   2.920   7.262   8.023 -0.8807 -0.1406  1.1514
 4397TIP3   OH237385   4.349   3.698   7.722 -0.1373 -0.4528  0.8832
 4397TIP3    H137386   4.342   3.793   7.731  0.9598 -0.4839  2.4288
 4397TIP3    H237387   4.283   3.675   7.657 -1.6759  1.1582  1.7837
 4398TIP3   OH237388   5.779   4.347   7.329 -0.2490  0.2426 -0.0549
 4398TIP3    H137389   5.704   4.339   7.270  1.1873  1.8279 -2.2442
 4398TIP3    H237390   5.846   4.392   7.277  2.4294 -1.5113  1.6134
 4399TIP3   OH237391   0.375   3.194   6.856  0.4136  0.6239 -0.6568
 4399TIP3    H137392   0.334   3.237   6.930  0.0529  1.8301 -1.5203
 4399TIP3    H237393   0.453   3.248   6.837  1.0631 -0.2512 -0.5335
 4400TIP3   OH237394   2.894   5.887   9.016 -0.8023  0.2866  0.0543
 4400TIP3    H137395   2.918   5.954   9.080 -0.1984 -0.9118  1.1221
 4400TIP3    H237396   2.798   5.883   9.021 -0.8947  1.4657 -0.4596
 4401TIP3   OH237397   3.383   0.154   7.144 -0.3327  0.1618 -0.5748
 4401TIP3    H137398   3.442   0.230   7.143  1.8618 -1.3654  1.5223
 4401TIP3    H237399   3.438   0.082   7.114 -1.3174 -1.2226  0.8325
 4402TIP3   OH237400   3.487   0.581   8.155  0.0372 -0.1684 -0.2823
 4402TIP3    H137401   3.497   0.629   8.072 -1.7410  5.3162  2.1997
 4402TIP3    H237402   3.575   0.581   8.193 -0.0220  2.1428 -0.0148
 4403TIP3   OH237403   3.005   5.305   8.568 -0.1654  0.3708  0.0328
 4403TIP3    H137404   2.952   5.254   8.508 -0.6098  0.7697  0.0783
 4403TIP3    H237405   2.972   5.395   8.559  0.9339  0.7509 -0.4276
 4404TIP3   OH237406   7.165   6.630   7.876  0.0941 -0.2364 -0.4596
 4404TIP3    H137407   7.147   6.700   7.939 -1.7520  0.2445 -1.4505
 4404TIP3    H237408   7.207   6.675   7.802  0.1515 -0.4151 -0.5361
 4405TIP3   OH237409   3.304   7.069   9.463 -0.0994  0.1880 -0.2674
 4405TIP3    H137410   3.390   7.033   9.442 -0.2612  0.0186 -0.6417
 4405TIP3    H237411   3.249   7.046   9.388 -0.5392  0.0571  0.0901
 4406TIP3   OH237412   0.346   2.132   7.199  0.0069 -0.4949  0.2347
 4406TIP3    H137413   0.424   2.078   7.203 -0.8416 -2.0406 -2.0749
 4406TIP3    H237414   0.279   2.081   7.245 -0.2155 -0.2404  0.1993
 4407TIP3   OH237415   1.103   4.019   9.425 -0.2063 -0.4777 -0.0444
 4407TIP3    H137416   1.090   4.086   9.492  0.3019 -3.1035  2.9692
 4407TIP3    H237417   1.182   4.046   9.379 -0.2165  1.1675  0.8383
 4408TIP3   OH237418   6.674   7.490   8.441  0.0221  0.6972 -0.4794
 4408TIP3    H137419   6.607   7.436   8.400 -0.5382  1.4079 -0.5288
 4408TIP3    H237420   6.666   7.575   8.397  2.5016  0.1904 -2.1466
 4409TIP3   OH237421   1.196   6.292   8.596  0.3885  0.4858 -0.2429
 4409TIP3    H137422   1.159   6.380   8.606 -0.2624  0.1516  0.3824
 4409TIP3    H237423   1.233   6.291   8.508  0.0028  1.2406 -0.4176
 4410TIP3   OH237424   2.287   3.417   8.365  0.2439 -0.4491  0.0311
 4410TIP3    H137425   2.298   3.506   8.397 -2.3946  0.7380 -2.0049
 4410TIP3    H237426   2.377   3.383   8.358  1.5258  2.8403 -1.2028
 4411TIP3   OH237427   3.496   6.324   6.711 -0.5100  0.8420 -0.1004
 4411TIP3    H137428   3.505   6.252   6.648  2.8727 -1.7186  2.8923
 4411TIP3    H237429   3.437   6.291   6.778 -0.6330  1.7886  0.2737
 4412TIP3   OH237430   3.231   4.355  10.003  0.2193  0.3982 -0.5053
 4412TIP3    H137431   3.307   4.403   9.970  0.8770  0.4122  0.9492
 4412TIP3    H237432   3.159   4.383   9.947  1.4284 -0.3261 -2.5159
 4413TIP3   OH237433   5.837   3.373   7.538 -0.1002 -0.3489  0.4976
 4413TIP3    H137434   5.823   3.402   7.448 -0.4364  2.6656  1.4152
 4413TIP3    H237435   5.867   3.282   7.530  0.5935  0.0628 -2.6695
 4414TIP3   OH237436   7.167   1.409   8.827 -0.4525 -0.2565 -0.2340
 4414TIP3    H137437   7.167   1.499   8.794 -2.2201  0.2328  0.9262
 4414TIP3    H237438   7.257   1.394   8.857  0.1667  0.6688 -1.5720
 4415TIP3   OH237439   0.339   7.345   8.488  0.2880 -0.4741  0.0683
 4415TIP3    H137440   0.269   7.281   8.475  1.3109 -1.9187  1.2169
 4415TIP3    H237441   0.365   7.371   8.400 -3.7780  2.6651 -0.4922
 4416TIP3   OH237442   3.195   0.619   7.769  0.5247  0.4650  0.0374
 4416TIP3    H137443   3.210   0.665   7.686  2.0919  0.3749  0.2565
 4416TIP3    H237444   3.269   0.559   7.778 -0.8261 -1.2343  0.3812
 4417TIP3   OH237445   0.610   7.185   7.796 -0.2627  0.0293 -0.1732
 4417TIP3    H137446   0.681   7.205   7.857 -1.0950 -0.2583  0.9293
 4417TIP3    H237447   0.539   7.152   7.851 -0.9729 -0.4647 -1.3306
 4418TIP3   OH237448   1.132   4.538   8.287 -0.0820  0.2966  0.5180
 4418TIP3    H137449   1.159   4.598   8.218  1.1490  0.9138  1.5069
 4418TIP3    H237450   1.187   4.460   8.275  0.4468  0.5801  1.0535
 4419TIP3   OH237451   1.874   4.153   9.349 -0.1758  0.1876 -0.0138
 4419TIP3    H137452   1.876   4.082   9.412  0.3066  1.3891  1.3848
 4419TIP3    H237453   1.946   4.133   9.289  0.1103 -0.3806  0.5052
 4420TIP3   OH237454   3.179   6.078   7.260 -0.0887  0.0338 -0.2035
 4420TIP3    H137455   3.223   6.077   7.175  0.9314  0.4944  0.3069
 4420TIP3    H237456   3.197   6.164   7.297 -0.5110 -0.1635  0.4958
 4421TIP3   OH237457   6.480   4.149   9.301  0.1396 -0.2774 -0.3647
 4421TIP3    H137458   6.477   4.242   9.323 -0.1832 -0.1789 -0.8183
 4421TIP3    H237459   6.407   4.111   9.350  1.3138 -0.6126  1.2294
 4422TIP3   OH237460   6.996   6.835   7.652  0.2950  0.2847  0.5570
 4422TIP3    H137461   6.967   6.887   7.727 -0.7274  0.3422  0.1431
 4422TIP3    H237462   7.003   6.898   7.580 -0.3816 -0.0345  0.1976
 4423TIP3   OH237463   4.535   5.945   8.407 -0.0535 -0.3070  0.3413
 4423TIP3    H137464   4.523   6.005   8.481 -1.9758  0.3109 -0.3973
 4423TIP3    H237465   4.518   5.858   8.445  1.3001 -0.2754  1.0963
 4424TIP3   OH237466   3.286   6.050   8.344  0.2155  0.7169 -0.1534
 4424TIP3    H137467   3.237   6.017   8.419 -0.9488  0.4170 -1.0128
 4424TIP3    H237468   3.221   6.099   8.292  1.0818  1.2555 -0.7696
 4425TIP3   OH237469   5.522   2.186   7.149  0.1834 -0.4924 -0.1554
 4425TIP3    H137470   5.544   2.099   7.116  1.2663 -2.3574  4.6517
 4425TIP3    H237471   5.606   2.224   7.175 -0.4176  1.4670 -0.9046
 4426TIP3   OH237472   1.012   6.242   8.968  0.5767 -0.3191 -0.0630
 4426TIP3    H137473   0.989   6.227   8.876 -1.1518  1.7199 -0.0506
 4426TIP3    H237474   0.928   6.254   9.012  1.3679 -1.3446  1.8312
 4427TIP3   OH237475   1.345   6.902   8.465 -0.0999  0.0394 -0.0152
 4427TIP3    H137476   1.373   6.925   8.377 -1.8833  2.1063 -0.1182
 4427TIP3    H237477   1.417   6.932   8.521 -0.5131  2.1732 -0.5227
 4428TIP3   OH237478   6.739   5.115   7.589  0.2067 -0.5148 -0.6943
 4428TIP3    H137479   6.667   5.125   7.527  0.1288  0.2996 -0.4764
 4428TIP3    H237480   6.708   5.155   7.670  0.6392 -0.7808 -0.3925
 4429TIP3   OH237481   4.477   4.992   8.676  0.3999 -0.3975 -0.0648
 4429TIP3    H137482   4.452   4.967   8.587 -0.3426 -1.0098  0.3064
 4429TIP3    H237483   4.488   5.087   8.672 -2.7165  0.0579 -0.1146
 4430TIP3   OH237484   3.673   7.267   8.943  0.0103  0.6282 -0.0800
 4430TIP3    H137485   3.729   7.216   9.002  0.5732 -0.0485 -1.1618
 4430TIP3    H237486   3.719   7.265   8.859 -1.5361  0.2026 -0.9503
 4431TIP3   OH237487   6.749   0.053   7.366 -0.2332  0.7634 -0.3692
 4431TIP3    H137488   6.663   0.018   7.391  0.5865 -0.6593  0.6158
 4431TIP3    H237489   6.791   0.076   7.449  1.2195 -0.8084 -0.6022
 4432TIP3   OH237490   7.283   4.664   9.224  0.7280 -0.1258  0.3129
 4432TIP3    H137491   7.263   4.685   9.316  0.4603  1.0652  0.0018
 4432TIP3    H237492   7.197   4.657   9.182  0.8675  0.6891 -0.1236
 4433TIP3   OH237493   1.413   0.233   9.016  0.6503 -0.2166 -0.7810
 4433TIP3    H137494   1.343   0.181   9.055  0.4019 -0.5113 -1.6075
 4433TIP3    H237495   1.477   0.244   9.087  1.0009 -2.1502 -0.7476
 4434TIP3   OH237496   1.529   5.081   7.663  0.2382  0.2690 -0.2563
 4434TIP3    H137497   1.599   5.016   7.650  0.0833 -0.1770  0.9620
 4434TIP3    H237498   1.460   5.032   7.708 -0.8082  0.7460 -1.3095
 4435TIP3   OH237499   4.418   0.993   9.607  0.1352 -0.1478 -0.2402
 4435TIP3    H137500   4.465   1.054   9.665  0.5765 -0.7251  0.0165
 4435TIP3    H237501   4.443   1.020   9.519  1.4953 -0.8590 -0.0950
 4436TIP3   OH237502   0.506   4.143   7.255 -0.2917  0.0861 -0.3178
 4436TIP3    H137503   0.493   4.144   7.161 -0.6912 -3.1242 -0.4044
 4436TIP3    H237504   0.418   4.146   7.292 -0.1267  1.6074  0.0078
 4437TIP3   OH237505   0.955   4.201   9.765  0.3124 -0.1422  0.1463
 4437TIP3    H137506   0.961   4.227   9.673  0.7362  0.9677  0.4757
 4437TIP3    H237507   0.873   4.239   9.796 -0.2081 -1.1423  0.0540
 4438TIP3   OH237508   1.881   4.797   9.282  0.1337 -0.7730 -0.5153
 4438TIP3    H137509   1.925   4.715   9.263  0.7056 -0.1100 -2.3222
 4438TIP3    H237510   1.879   4.803   9.377 -0.8610 -3.3481 -0.2974
 4439TIP3   OH237511   4.284   0.353   8.649  0.1121 -0.4372 -0.5186
 4439TIP3    H137512   4.310   0.415   8.718  0.8228 -1.9775  0.6649
 4439TIP3    H237513   4.365   0.338   8.600 -0.3504  0.5065 -1.6168
 4440TIP3   OH237514   1.040   7.202   8.747 -0.1428  0.1045  0.0212
 4440TIP3    H137515   1.051   7.122   8.695  0.3738 -0.7210  1.3426
 4440TIP3    H237516   1.119   7.208   8.800  0.6421  2.4814 -1.2766
 4441TIP3   OH237517   4.256   2.358   8.042  0.0392  0.7021  0.2067
 4441TIP3    H137518   4.230   2.286   8.100  0.8888 -1.1645 -1.6051
 4441TIP3    H237519   4.350   2.369   8.058  0.8685 -1.5426 -2.4286
 4442TIP3   OH237520   5.725   6.075   7.648 -0.1377 -0.4651 -0.5183
 4442TIP3    H137521   5.769   6.152   7.611  0.5038 -0.4887  0.1652
 4442TIP3    H237522   5.736   6.084   7.742  1.3203 -2.1560 -0.4638
 4443TIP3   OH237523   0.465   0.774   8.701 -0.1881 -0.1425 -0.1774
 4443TIP3    H137524   0.532   0.714   8.668 -1.5353 -1.2191 -1.0577
 4443TIP3    H237525   0.425   0.728   8.774 -0.7024  0.0309 -0.3481
 4444TIP3   OH237526   5.335   2.305   7.670  0.3239 -0.4161  0.0802
 4444TIP3    H137527   5.304   2.232   7.617 -1.6425  0.3710  0.0612
 4444TIP3    H237528   5.313   2.280   7.760  1.5390 -0.7371  0.2967
 4445TIP3   OH237529   1.210   3.310   7.509 -0.3685  0.5643 -0.1242
 4445TIP3    H137530   1.272   3.364   7.460  0.1540  1.2854  1.2805
 4445TIP3    H237531   1.125   3.331   7.472  0.2666 -1.7212 -3.2892
 4446TIP3   OH237532   6.325   0.055   8.345 -0.1445  0.1802 -0.0973
 4446TIP3    H137533   6.383   0.039   8.270  0.7008  1.9931  0.1139
 4446TIP3    H237534   6.365   0.006   8.417 -1.6198 -2.5939 -0.9878
 4447TIP3   OH237535   6.371   3.827   7.710 -0.0455  0.0798  0.0554
 4447TIP3    H137536   6.416   3.794   7.631  1.9525  2.6009  0.0383
 4447TIP3    H237537   6.410   3.777   7.782 -0.8077 -1.1767 -0.3623
 4448TIP3   OH237538   2.441   7.497   8.880 -0.1246 -0.7202  0.6718
 4448TIP3    H137539   2.357   7.526   8.844  0.2326 -0.0068  0.3847
 4448TIP3    H237540   2.450   7.407   8.850 -0.8374 -0.8442  0.7995
 4449TIP3   OH237541   0.091   4.381   7.025 -0.1675 -0.2237  0.0110
 4449TIP3    H137542   0.127   4.309   6.973 -1.7209  0.1137 -1.6491
 4449TIP3    H237543   0.073   4.342   7.110  1.7598 -1.0003  0.1241
 4450TIP3   OH237544   6.571   0.169   7.024 -0.0559  0.0636 -0.2827
 4450TIP3    H137545   6.513   0.244   7.037 -0.9316 -0.8408  1.4563
 4450TIP3    H237546   6.557   0.143   6.933 -2.0513  0.1762 -0.0522
 4451TIP3   OH237547   0.766   2.205   7.936  0.0750  0.0152 -0.0789
 4451TIP3    H137548   0.861   2.208   7.944 -0.0259  1.1472  1.2709
 4451TIP3    H237549   0.746   2.257   7.858  0.6338 -2.2298 -1.8161
 4452TIP3   OH237550   6.919   3.990   9.155  0.3019 -0.8227  0.1974
 4452TIP3    H137551   6.873   3.906   9.144 -0.8563 -0.1148 -0.5363
 4452TIP3    H237552   6.958   3.984   9.243 -1.6101 -1.2666  1.0761
 4453TIP3   OH237553   3.712   1.589   9.269 -0.1813 -0.7205  0.0449
 4453TIP3    H137554   3.624   1.561   9.294 -0.0916  1.5890  3.5606
 4453TIP3    H237555   3.697   1.654   9.200 -1.0990 -1.1516 -0.1792
 4454TIP3   OH237556   6.323   5.530   8.236  0.4681  0.4294  0.4076
 4454TIP3    H137557   6.308   5.470   8.309  0.1283  1.0630  0.8666
 4454TIP3    H237558   6.411   5.508   8.205 -0.4655 -1.8729 -0.9283
 4455TIP3   OH237559   6.683   6.544   8.328 -0.1420  0.5522 -0.1087
 4455TIP3    H137560   6.592   6.523   8.304  0.1596  0.2645 -1.0390
 4455TIP3    H237561   6.709   6.472   8.385 -1.2820  1.8877  2.2494
 4456TIP3   OH237562   5.848   1.632   8.309 -0.1456  0.0457 -0.2092
 4456TIP3    H137563   5.937   1.659   8.287 -0.0244  1.0049  1.3589
 4456TIP3    H237564   5.791   1.689   8.257  0.1283  0.2408 -0.2933
 4457TIP3   OH237565   2.891   5.624   9.124  0.3336  0.0465 -0.4912
 4457TIP3    H137566   2.917   5.613   9.216  0.1013  0.5126 -0.3658
 4457TIP3    H237567   2.901   5.718   9.107  0.3196 -0.0276 -0.9278
 4458TIP3   OH237568   7.235   6.181   6.728  0.5636 -0.2942 -0.1884
 4458TIP3    H137569   7.218   6.087   6.726 -1.7600 -0.0015  1.2531
 4458TIP3    H237570   7.299   6.193   6.799 -0.7081 -0.6651  1.0822
 4459TIP3   OH237571   2.351   4.027   8.567  0.1384 -0.1165  0.2541
 4459TIP3    H137572   2.333   4.119   8.587 -0.0518 -0.5606  2.3858
 4459TIP3    H237573   2.284   4.002   8.503 -0.8585  0.7852  0.9195
 4460TIP3   OH237574   0.984   3.358   7.356 -0.3097  0.1978 -0.0821
 4460TIP3    H137575   1.004   3.292   7.290  0.5930 -0.3438  0.7140
 4460TIP3    H237576   0.991   3.441   7.310 -1.4006 -0.2462 -1.0826
 4461TIP3   OH237577   7.145   4.291   8.271 -0.0902 -0.1941  0.2284
 4461TIP3    H137578   7.146   4.384   8.293  0.0320  0.2679 -1.5958
 4461TIP3    H237579   7.222   4.255   8.315  0.9887  0.9775 -0.6246
 4462TIP3   OH237580   3.187   2.069   8.879 -0.1731  0.0610  0.1604
 4462TIP3    H137581   3.243   2.143   8.856  1.2912 -1.0705 -0.0625
 4462TIP3    H237582   3.124   2.064   8.807 -0.6523  1.4035  0.4544
 4463TIP3   OH237583   2.052   1.981   8.331 -0.6647 -0.1451  0.0552
 4463TIP3    H137584   2.023   1.904   8.380 -0.0771 -1.7451 -1.9517
 4463TIP3    H237585   2.020   1.966   8.242 -0.2706  1.8219 -0.4713
 4464TIP3   OH237586   3.355   1.248   8.212 -0.2881 -0.0157  0.3603
 4464TIP3    H137587   3.374   1.231   8.304 -1.1697 -0.7167  0.4279
 4464TIP3    H237588   3.437   1.280   8.175  1.0576 -2.9729  0.5851
 4465TIP3   OH237589   6.961   6.974   9.053  0.2509  0.2233 -0.2871
 4465TIP3    H137590   6.975   6.879   9.045 -0.2690 -0.1108  1.8825
 4465TIP3    H237591   6.901   6.995   8.982 -1.3158 -1.5372  0.4038
 4466TIP3   OH237592   0.644   4.532   7.584  0.0753 -0.3418 -0.3081
 4466TIP3    H137593   0.703   4.457   7.587 -0.6424 -0.9766 -1.6133
 4466TIP3    H237594   0.590   4.518   7.506 -1.2224  0.6668  0.3681
 4467TIP3   OH237595   1.333   2.574   8.383  0.1867 -0.3924  0.0572
 4467TIP3    H137596   1.378   2.658   8.380  0.0897 -0.2152  2.1774
 4467TIP3    H237597   1.255   2.586   8.329 -0.6438  1.4060  1.5541
 4468TIP3   OH237598   3.636   6.209   7.570  0.0493  0.1108  0.3504
 4468TIP3    H137599   3.590   6.271   7.627 -0.1194 -0.5935  0.9950
 4468TIP3    H237600   3.610   6.123   7.602  1.1308 -0.3049  0.1706
 4469TIP3   OH237601   5.460   3.887   7.288  0.2093 -0.1111 -0.6336
 4469TIP3    H137602   5.552   3.900   7.264  0.3832 -1.5757 -0.9149
 4469TIP3    H237603   5.438   3.962   7.343  1.5349  0.3300 -0.6625
 4470TIP3   OH237604   2.518   3.241   8.348  0.3734 -0.4488  0.1203
 4470TIP3    H137605   2.576   3.301   8.301 -1.1762  1.4009  0.4293
 4470TIP3    H237606   2.542   3.154   8.316  1.6958  0.4463 -1.4790
 4471TIP3   OH237607   2.522   5.512   9.439  0.5731 -0.1527  0.0257
 4471TIP3    H137608   2.567   5.440   9.393 -0.4198 -0.0398 -1.1611
 4471TIP3    H237609   2.439   5.474   9.468  0.4263  0.2747  0.1740
 4472TIP3   OH237610   5.174   5.544   9.783 -0.1809 -0.2308  0.5666
 4472TIP3    H137611   5.231   5.474   9.751  0.7099 -0.0253  1.6281
 4472TIP3    H237612   5.150   5.517   9.872  0.7554  1.1165  1.2642
 4473TIP3   OH237613   0.434   5.078   9.283 -0.0513 -0.8718  0.0031
 4473TIP3    H137614   0.382   5.000   9.264 -0.9527 -0.5723  1.1552
 4473TIP3    H237615   0.370   5.145   9.303  0.7639 -0.4339  1.2407
 4474TIP3   OH237616   6.252   5.801   8.209  0.7536 -0.1075 -0.1303
 4474TIP3    H137617   6.257   5.707   8.223  1.4107 -0.0459  0.0708
 4474TIP3    H237618   6.339   5.826   8.180  0.8684  0.6014  0.7861
 4475TIP3   OH237619   2.550   3.069   9.046  0.7219  0.0478  0.4033
 4475TIP3    H137620   2.629   3.018   9.060  1.0678  0.5310  0.2347
 4475TIP3    H237621   2.523   3.047   8.956 -0.3648 -1.4973  1.0477
 4476TIP3   OH237622   0.025   4.166   6.780  0.0000 -0.6053  0.7864
 4476TIP3    H137623  -0.017   4.248   6.754 -0.1729 -0.5967  1.0806
 4476TIP3    H237624  -0.028   4.134   6.853 -1.0665 -1.9500 -0.4970
 4477TIP3   OH237625   3.481   6.543   9.489  0.2689 -0.2742 -0.1958
 4477TIP3    H137626   3.550   6.479   9.506  0.4882  0.0792  0.2696
 4477TIP3    H237627   3.488   6.561   9.395  0.7548 -0.2994 -0.1654
 4478TIP3   OH237628   4.367   5.554   7.175  0.3244 -0.0518  0.0686
 4478TIP3    H137629   4.425   5.526   7.246  0.8778  0.5550 -0.1408
 4478TIP3    H237630   4.399   5.640   7.150  0.0712 -0.2198 -0.8604
 4479TIP3   OH237631   4.498   0.360   8.234  0.3951 -0.5856  0.3807
 4479TIP3    H137632   4.421   0.418   8.234 -0.1875 -1.3462  0.0491
 4479TIP3    H237633   4.573   0.420   8.228 -0.1793  0.1482  0.3667
 4480TIP3   OH237634   3.476   6.299   9.710 -0.3422 -0.0068  0.0995
 4480TIP3    H137635   3.390   6.341   9.706 -0.9048 -1.0933  0.2908
 4480TIP3    H237636   3.458   6.206   9.693  0.7770 -0.2703  0.2670
 4481TIP3   OH237637   4.017   5.280   9.087 -0.0058 -0.4613 -0.0460
 4481TIP3    H137638   3.966   5.304   9.009 -1.4116 -1.1621  0.6095
 4481TIP3    H237639   4.098   5.243   9.053  0.5347  1.5916 -1.1202
 4482TIP3   OH237640   5.164   0.119   8.838 -0.7314 -0.2662 -0.3172
 4482TIP3    H137641   5.086   0.065   8.831 -0.1048 -1.2274 -0.0862
 4482TIP3    H237642   5.204   0.115   8.751 -2.4353  2.6620 -1.4016
 4483TIP3   OH237643   6.496   4.873   7.768  0.5031  0.6067  0.0437
 4483TIP3    H137644   6.515   4.819   7.692  1.7879 -0.6322  1.1960
 4483TIP3    H237645   6.401   4.866   7.779  0.6226 -1.3231  0.0897
 4484TIP3   OH237646   1.319   2.305   9.625 -0.4928 -0.0790  0.1683
 4484TIP3    H137647   1.330   2.265   9.712 -1.7148  0.3708  0.5479
 4484TIP3    H237648   1.224   2.307   9.612 -0.3003 -1.2865 -1.7393
 4485TIP3   OH237649   3.144   2.397   8.191 -0.5614 -0.5580 -0.1516
 4485TIP3    H137650   3.139   2.317   8.139 -0.9058 -0.9933  0.5492
 4485TIP3    H237651   3.169   2.368   8.278  3.7241  0.4709 -0.8256
 4486TIP3   OH237652   3.007   0.353   8.445 -0.4717  0.1330 -0.1519
 4486TIP3    H137653   3.076   0.347   8.511  0.3230  1.6450 -0.8009
 4486TIP3    H237654   3.043   0.308   8.369  1.1859  3.4850 -1.5357
 4487TIP3   OH237655   4.732   6.595   6.787 -0.1333 -0.3482 -0.0953
 4487TIP3    H137656   4.657   6.591   6.847 -0.5657 -0.7380 -0.6479
 4487TIP3    H237657   4.732   6.685   6.754  0.3323 -0.0247  0.7599
 4488TIP3   OH237658   0.927   5.669   7.182 -0.1174  0.5108  0.1681
 4488TIP3    H137659   0.995   5.652   7.116 -1.1835  0.1470 -0.8637
 4488TIP3    H237660   0.852   5.617   7.153 -1.0020  1.2738  1.0287
 4489TIP3   OH237661   6.277   4.052   8.153 -0.7297  0.2397  0.6464
 4489TIP3    H137662   6.234   4.137   8.147 -1.8252 -0.3985 -1.0351
 4489TIP3    H237663   6.352   4.059   8.094 -0.5225  0.1936  0.9020
 4490TIP3   OH237664   5.828   6.005   8.358 -0.1848  0.2769 -0.0400
 4490TIP3    H137665   5.881   6.077   8.391 -0.8312  1.6196 -1.7947
 4490TIP3    H237666   5.738   6.036   8.366 -0.4692 -0.2833 -0.9137
 4491TIP3   OH237667   5.931   5.123   7.544 -0.1144  0.2416  0.4704
 4491TIP3    H137668   5.879   5.199   7.517  0.8282 -0.0284 -2.3677
 4491TIP3    H237669   6.020   5.155   7.550  0.0297 -0.2520  1.0571
 4492TIP3   OH237670   4.100   4.752   7.011  0.4731 -0.3896  0.2731
 4492TIP3    H137671   4.017   4.787   7.043  0.8666  1.7908 -0.8813
 4492TIP3    H237672   4.090   4.657   7.017 -2.1462 -0.1982  0.0224
 4493TIP3   OH237673   5.332   6.458   9.471  0.7873  0.1286 -0.1433
 4493TIP3    H137674   5.391   6.382   9.474  0.0665 -0.5297 -1.7221
 4493TIP3    H237675   5.375   6.520   9.412  1.4705  1.0732  1.2978
 4494TIP3   OH237676   2.959   2.074   8.700  0.5805  0.2984  0.0963
 4494TIP3    H137677   2.896   2.020   8.748  0.5238  1.0862  0.9280
 4494TIP3    H237678   2.958   2.038   8.611  1.4758 -1.8686  0.9073
 4495TIP3   OH237679   0.391   6.527   8.332 -0.2073 -0.4264  0.7208
 4495TIP3    H137680   0.404   6.432   8.343 -1.2695 -0.9496 -1.9195
 4495TIP3    H237681   0.297   6.539   8.341 -0.1510  0.2853  0.3611
 4496TIP3   OH237682   2.782   0.980   8.579  0.1404 -0.2018  0.0681
 4496TIP3    H137683   2.870   0.972   8.614  0.5992 -0.9154 -1.1596
 4496TIP3    H237684   2.794   1.023   8.494 -0.4002 -2.1413 -1.0615
 4497TIP3   OH237685   5.707   3.420   9.180 -0.3800  0.7061 -0.7928
 4497TIP3    H137686   5.703   3.338   9.229 -0.3174  2.3334  2.1785
 4497TIP3    H237687   5.710   3.393   9.088 -1.7142 -2.5408 -0.0212
 4498TIP3   OH237688   6.149   5.976   7.952  0.0935 -0.2849  0.4631
 4498TIP3    H137689   6.137   5.961   7.858 -2.9851 -0.0730  0.7216
 4498TIP3    H237690   6.178   5.892   7.987  0.0933 -0.6984 -0.5036
 4499TIP3   OH237691   6.025   4.826   9.166 -0.1763 -0.2112 -0.4773
 4499TIP3    H137692   6.091   4.767   9.130  0.1495 -0.1588  0.0070
 4499TIP3    H237693   6.054   4.841   9.256 -0.0467  0.9708 -0.6958
 4500TIP3   OH237694   0.556   3.008   9.112 -0.1933 -0.5811 -0.4191
 4500TIP3    H137695   0.557   2.928   9.059  3.0471 -1.4149  0.6586
 4500TIP3    H237696   0.614   2.989   9.186 -0.3621  2.3425  0.6109
 4501TIP3   OH237697   6.858   5.852   9.614 -0.1982  0.4633 -0.1090
 4501TIP3    H137698   6.880   5.765   9.648 -1.1280 -0.3109 -1.4139
 4501TIP3    H237699   6.933   5.877   9.560 -0.5394 -0.1813 -0.8994
 4502TIP3   OH237700   4.755   6.571   9.307  0.1391 -0.0467  0.3606
 4502TIP3    H137701   4.761   6.620   9.225 -0.2046 -0.2570  0.2066
 4502TIP3    H237702   4.714   6.631   9.368 -1.6047 -0.5849 -0.2076
 4503TIP3   OH237703   2.899   2.010   7.307 -0.0829 -0.3270  0.2298
 4503TIP3    H137704   2.879   1.921   7.336  0.7570 -1.3002 -1.9936
 4503TIP3    H237705   2.973   2.001   7.248  1.2816  2.1135  1.3756
 4504TIP3   OH237706   2.000   5.858   7.203 -0.1039 -0.0601 -0.4372
 4504TIP3    H137707   1.962   5.797   7.266 -1.2341  0.8891 -0.1705
 4504TIP3    H237708   2.056   5.914   7.256  0.2340 -0.2880 -0.5467
 4505TIP3   OH237709   5.430   4.932   7.619  0.7371 -0.2185 -0.0535
 4505TIP3    H137710   5.451   4.839   7.624  0.1740 -0.2835  2.1194
 4505TIP3    H237711   5.483   4.965   7.547  2.3264 -1.8617  0.2897
 4506TIP3   OH237712   4.001   6.469   7.389 -0.3294 -0.1283 -0.3283
 4506TIP3    H137713   3.934   6.401   7.383  1.0889 -1.4979 -1.3317
 4506TIP3    H237714   4.057   6.442   7.461  1.8888 -1.6755 -2.4686
 4507TIP3   OH237715   2.548   3.988   7.989  0.0270  0.2609 -0.3178
 4507TIP3    H137716   2.611   3.935   7.940  0.4710  0.3536  0.1404
 4507TIP3    H237717   2.539   4.068   7.938 -0.0415  0.0774 -0.6009
 4508TIP3   OH237718   2.433   1.028   8.507 -0.2473 -0.6151 -0.3501
 4508TIP3    H137719   2.474   0.963   8.449  0.8026 -0.1985 -0.0990
 4508TIP3    H237720   2.403   0.976   8.582  1.4676 -0.7303  0.3120
 4509TIP3   OH237721   0.551   5.898   8.648  0.2176  0.5019 -0.3592
 4509TIP3    H137722   0.570   5.987   8.617 -0.7156  0.7835 -0.1621
 4509TIP3    H237723   0.550   5.845   8.568 -3.5198  1.4570 -1.1388
 4510TIP3   OH237724   0.890   4.708   7.671  0.2899 -0.1345 -0.0365
 4510TIP3    H137725   0.905   4.676   7.581 -0.1665  0.8209 -0.4626
 4510TIP3    H237726   0.977   4.729   7.704  0.5390 -1.2345  0.0365
 4511TIP3   OH237727   5.157   0.522   8.212  0.4056  0.1158  0.3323
 4511TIP3    H137728   5.173   0.515   8.117  0.8839  0.2664  0.3983
 4511TIP3    H237729   5.240   0.494   8.252  0.3575  0.4915  0.6990
 4512TIP3   OH237730   0.691   4.364   7.284 -0.7179 -0.2444 -0.0827
 4512TIP3    H137731   0.614   4.310   7.303 -1.2809  0.8482  0.9071
 4512TIP3    H237732   0.719   4.337   7.197 -0.9152 -2.1721  0.4123
 4513TIP3   OH237733   0.580   3.363   6.781 -0.5147  0.5721  0.2308
 4513TIP3    H137734   0.647   3.337   6.717 -0.3220 -0.2814  0.7757
 4513TIP3    H237735   0.630   3.401   6.853 -0.1881 -3.3722  2.3507
 4514TIP3   OH237736   6.224   6.812   9.372 -0.3078  0.5240 -0.7056
 4514TIP3    H137737   6.265   6.731   9.341 -0.2749  1.2236 -2.5936
 4514TIP3    H237738   6.277   6.882   9.333 -1.4469  1.4537 -0.6227
 4515TIP3   OH237739   5.635   5.261   7.681 -0.0990 -0.0405 -0.1952
 4515TIP3    H137740   5.608   5.213   7.603 -0.0023 -0.4860  0.0397
 4515TIP3    H237741   5.694   5.201   7.727 -0.5483  0.0219  0.4717
 4516TIP3   OH237742   1.023   5.379   8.362  0.1971  0.0991  0.1061
 4516TIP3    H137743   1.069   5.442   8.416  1.2024 -0.9326  0.4816
 4516TIP3    H237744   1.063   5.387   8.275 -0.6614  0.9699 -0.2303
 4517TIP3   OH237745   1.268   7.369   7.882 -0.2143 -0.6059 -0.3610
 4517TIP3    H137746   1.216   7.388   7.960  2.1055 -0.3572  1.2000
 4517TIP3    H237747   1.305   7.282   7.899  1.1801 -0.0912 -0.6738
 4518TIP3   OH237748   3.499   2.314   7.029  0.6900 -0.0037 -0.3606
 4518TIP3    H137749   3.543   2.288   7.109  0.2130  1.9728  0.6081
 4518TIP3    H237750   3.539   2.397   7.005 -0.2796  0.2297 -1.2570
 4519TIP3   OH237751   4.788   6.977   7.929 -0.0518  0.0280 -0.4544
 4519TIP3    H137752   4.699   6.981   7.896  0.5566 -0.6730 -2.2981
 4519TIP3    H237753   4.843   6.978   7.851  1.4875 -1.6444  0.5140
 4520TIP3   OH237754   0.719   4.989   9.380  0.1521 -0.7296  0.0075
 4520TIP3    H137755   0.627   5.017   9.373  0.0288 -0.3836  2.1617
 4520TIP3    H237756   0.739   4.952   9.295 -1.1355  1.6575 -1.4461
 4521TIP3   OH237757   5.832   7.206   8.427 -0.0408 -0.0471 -0.4109
 4521TIP3    H137758   5.866   7.118   8.441 -0.0904 -0.0463 -0.2908
 4521TIP3    H237759   5.813   7.240   8.514 -0.5008 -0.1072 -0.4835
 4522TIP3   OH237760   1.672   0.344   7.506 -0.0623 -0.3584 -0.5602
 4522TIP3    H137761   1.730   0.399   7.453  3.4447 -1.4672  1.7698
 4522TIP3    H237762   1.656   0.395   7.585  0.5876 -1.3747  0.2510
 4523TIP3   OH237763   5.794   3.281   9.583 -0.3125  0.2932  0.1918
 4523TIP3    H137764   5.807   3.351   9.520 -0.0870 -0.1448 -0.2547
 4523TIP3    H237765   5.704   3.292   9.614 -0.8760 -0.2478 -1.1566
 4524TIP3   OH237766   1.952   0.426   9.427  1.0283  0.2548  0.1464
 4524TIP3    H137767   1.936   0.456   9.337  0.1782 -0.5797  0.0056
 4524TIP3    H237768   1.870   0.443   9.473  1.5198  0.8472  0.8233
 4525TIP3   OH237769   0.592   4.073   9.040 -0.0295  0.3730  0.5586
 4525TIP3    H137770   0.573   3.979   9.041 -1.3610  0.4676 -2.6158
 4525TIP3    H237771   0.507   4.115   9.050  0.2884  1.1988 -0.0797
 4526TIP3   OH237772   4.092   6.424   9.688  0.4283  0.7421 -0.3692
 4526TIP3    H137773   4.083   6.332   9.710  0.5182  1.4643  3.2212
 4526TIP3    H237774   4.005   6.450   9.657 -0.5600  0.1153  1.7154
 4527TIP3   OH237775   1.983   6.998   8.570 -0.3035  0.1251 -0.8647
 4527TIP3    H137776   1.901   7.035   8.538  0.1787  2.1544  0.0408
 4527TIP3    H237777   1.960   6.960   8.655 -0.4282  0.1633 -0.8814
 4528TIP3   OH237778   0.364   6.210   9.894 -0.0140 -0.3314  0.0076
 4528TIP3    H137779   0.269   6.214   9.881  0.1654 -0.2274 -1.4192
 4528TIP3    H237780   0.385   6.117   9.886  0.2662 -0.1353 -1.9361
 4529TIP3   OH237781   0.154   6.844   9.631  0.3251  0.2638 -0.3531
 4529TIP3    H137782   0.082   6.862   9.571  0.6973 -0.1495 -0.9251
 4529TIP3    H237783   0.207   6.924   9.631 -1.3010  1.4526  1.7759
 4530TIP3   OH237784   6.980   2.957   7.487 -0.5586 -0.0904 -0.6943
 4530TIP3    H137785   7.068   2.918   7.482 -0.2005  0.7435 -0.9474
 4530TIP3    H237786   6.960   2.956   7.581  0.5085  1.4165 -0.4173
 4531TIP3   OH237787   4.056   6.138   9.722  0.5952  0.3930 -0.5229
 4531TIP3    H137788   3.992   6.095   9.778  1.0831 -1.0248 -0.9821
 4531TIP3    H237789   4.007   6.165   9.645  0.5968 -1.1677 -1.1134
 4532TIP3   OH237790   2.049   3.921   8.943 -0.3700 -0.9635  0.0883
 4532TIP3    H137791   2.067   3.957   8.856 -1.0053  0.1522  0.4109
 4532TIP3    H237792   1.960   3.949   8.963  0.6031  0.9326  2.1414
 4533TIP3   OH237793   2.804   1.046   7.656  0.4896 -0.4212  0.6945
 4533TIP3    H137794   2.883   1.006   7.692  1.0224  0.7078  0.8286
 4533TIP3    H237795   2.806   1.024   7.563  1.0329 -0.2769  0.6709
 4534TIP3   OH237796   6.170   1.679   7.935 -0.7181  0.5125 -0.6041
 4534TIP3    H137797   6.255   1.687   7.892 -1.4632  1.2888 -1.9836
 4534TIP3    H237798   6.116   1.630   7.873 -0.7793 -1.6894  1.0549
 4535TIP3   OH237799   4.468   2.803   9.587  0.6402 -0.0266 -0.5316
 4535TIP3    H137800   4.399   2.791   9.652  0.4036  0.2419 -0.7268
 4535TIP3    H237801   4.442   2.748   9.514 -0.3263  1.4171 -1.3335
 4536TIP3   OH237802   6.409   5.406   7.354 -0.0571  0.4769 -0.0433
 4536TIP3    H137803   6.470   5.433   7.286 -0.3303  1.9294  0.2626
 4536TIP3    H237804   6.322   5.416   7.313 -0.1361 -1.5678 -0.4757
 4537TIP3   OH237805   3.633   2.096   9.468  0.7118  0.0653  0.1431
 4537TIP3    H137806   3.692   2.085   9.543  0.9076  0.5453  0.0624
 4537TIP3    H237807   3.599   2.185   9.477  1.9956  0.7345 -1.2180
 4538TIP3   OH237808   0.758   1.200   9.179 -0.2480 -0.1879  0.4983
 4538TIP3    H137809   0.739   1.118   9.224  0.4804 -1.0103 -0.6334
 4538TIP3    H237810   0.719   1.189   9.092 -1.4004  1.2577  0.7859
 4539TIP3   OH237811   2.036   5.883   7.720  0.3614  0.8776 -0.0299
 4539TIP3    H137812   2.053   5.817   7.653  1.2112  0.0137  1.0025
 4539TIP3    H237813   1.995   5.835   7.792  2.0577  1.1824  1.2240
 4540TIP3   OH237814   0.399   4.890   8.985  0.5803 -0.1370 -0.6356
 4540TIP3    H137815   0.322   4.946   8.981  0.8164  0.1254 -1.8102
 4540TIP3    H237816   0.469   4.948   9.015  0.8873  0.2957 -2.1235
 4541TIP3   OH237817   1.633   0.723   8.237  0.3570 -0.6765  0.6348
 4541TIP3    H137818   1.612   0.629   8.246  1.8024 -0.9314  1.5500
 4541TIP3    H237819   1.727   0.725   8.224  0.3655  0.6738  0.8239
 4542TIP3   OH237820   4.466   6.238   9.660  0.1507 -0.0152  0.1176
 4542TIP3    H137821   4.451   6.215   9.751  0.3102 -0.9765 -0.0861
 4542TIP3    H237822   4.550   6.285   9.660  0.5896 -0.7795  0.3668
 4543TIP3   OH237823   1.850   2.610   8.189 -0.1984  0.2664 -0.3429
 4543TIP3    H137824   1.898   2.692   8.176 -0.6912  0.7254  0.6136
 4543TIP3    H237825   1.769   2.621   8.139 -0.7605  0.8234  0.6685
 4544TIP3   OH237826   0.385   4.793   7.390 -0.3007 -0.1460 -0.2480
 4544TIP3    H137827   0.382   4.872   7.444 -0.3935 -0.1053 -0.3129
 4544TIP3    H237828   0.478   4.774   7.381 -0.1468  1.1870 -2.0226
 4545TIP3   OH237829   0.827   0.609   9.363 -0.1432 -0.3500  0.2949
 4545TIP3    H137830   0.814   0.550   9.437  1.8761 -2.5677 -0.9695
 4545TIP3    H237831   0.912   0.651   9.379  0.2343 -0.7223 -0.6368
 4546TIP3   OH237832   7.132   6.291   9.583  0.1361 -0.1261  0.5571
 4546TIP3    H137833   7.133   6.380   9.547 -1.6139  0.0716  0.9302
 4546TIP3    H237834   7.086   6.239   9.518 -0.0533 -0.4686  0.9586
 4547TIP3   OH237835   2.152   1.047   9.259 -0.4577  0.0139  0.0560
 4547TIP3    H137836   2.193   0.995   9.328  0.0514 -0.6797 -0.7479
 4547TIP3    H237837   2.135   0.984   9.188 -1.4232  0.6075 -0.2619
 4548TIP3   OH237838   0.391   2.981   6.688  0.2647  0.1039  0.2369
 4548TIP3    H137839   0.380   3.057   6.744  0.3891  0.0388  0.3500
 4548TIP3    H237840   0.481   2.953   6.703  0.6246  0.6912 -0.7453
 4549TIP3   OH237841   0.450   6.406   6.893  0.1486 -0.1105  0.4573
 4549TIP3    H137842   0.457   6.493   6.933  0.8153 -0.0257  0.1632
 4549TIP3    H237843   0.407   6.423   6.808 -2.1696 -0.4053  1.4864
 4550TIP3   OH237844   4.325   7.240   8.017 -0.6244 -0.1169  0.2231
 4550TIP3    H137845   4.234   7.244   8.044 -0.3875 -0.3304  1.1112
 4550TIP3    H237846   4.374   7.232   8.099  0.3927  2.8445  0.0303
 4551TIP3   OH237847   7.475   2.364   9.288  0.0772 -0.2448 -0.0636
 4551TIP3    H137848   7.464   2.365   9.192  1.6713  0.2308 -0.2594
 4551TIP3    H237849   7.423   2.289   9.316 -0.9436 -0.0222 -1.2207
 4552TIP3   OH237850   2.342   5.761   9.745 -0.3300  0.1516 -0.2830
 4552TIP3    H137851   2.400   5.712   9.802 -2.0916 -0.8737  0.7057
 4552TIP3    H237852   2.359   5.726   9.657 -0.1705 -0.8521  0.1366
 4553TIP3   OH237853   7.030   0.430   8.688  0.0047 -0.2472 -0.0606
 4553TIP3    H137854   6.939   0.408   8.665 -0.1871  0.3160  0.1421
 4553TIP3    H237855   7.049   0.375   8.764  0.3758 -1.5355 -1.0517
 4554TIP3   OH237856   6.525   0.684   7.193  0.3121  0.0067  0.1285
 4554TIP3    H137857   6.545   0.630   7.269 -2.0993 -1.1441  0.0394
 4554TIP3    H237858   6.470   0.754   7.227  0.2605  0.2091 -0.3677
 4555TIP3   OH237859   1.836   0.049   6.538  0.1713  0.3982  0.0752
 4555TIP3    H137860   1.759   0.059   6.593  0.0584 -3.6558  0.9840
 4555TIP3    H237861   1.900   0.111   6.575 -1.5620  1.5265  1.3595
 4556TIP3   OH237862   3.097   6.933   8.223 -0.8426  0.2792 -0.8248
 4556TIP3    H137863   3.184   6.958   8.254 -0.9322  0.4203 -0.6821
 4556TIP3    H237864   3.112   6.898   8.135 -0.3690 -1.5797 -0.0569
 4557TIP3   OH237865   5.400   4.238   8.615 -0.8343  0.4834  0.2188
 4557TIP3    H137866   5.385   4.205   8.526 -0.5200 -0.2750  0.4454
 4557TIP3    H237867   5.480   4.194   8.644 -0.3469  1.5123  0.4969
 4558TIP3   OH237868   3.839   4.132   8.688 -0.1632  0.2646  0.3630
 4558TIP3    H137869   3.872   4.042   8.689 -0.6281  0.0937  0.3988
 4558TIP3    H237870   3.813   4.148   8.779 -3.0766 -0.6891 -0.1894
 4559TIP3   OH237871   1.283   3.332   8.690 -0.1003  0.0660 -0.4672
 4559TIP3    H137872   1.263   3.394   8.760  4.6706 -0.1197  1.4170
 4559TIP3    H237873   1.314   3.386   8.618  1.0537  0.0784  0.0138
 4560TIP3   OH237874   1.463   3.340   8.306 -0.2748  0.2502 -0.0068
 4560TIP3    H137875   1.525   3.302   8.368 -0.1350 -0.2633 -0.4527
 4560TIP3    H237876   1.439   3.424   8.344  1.6847  1.0575 -0.4249
 4561TIP3   OH237877   6.534   5.786   8.438 -0.1570  0.3451  0.1052
 4561TIP3    H137878   6.585   5.810   8.361 -0.0384 -2.0327 -0.6664
 4561TIP3    H237879   6.556   5.694   8.453 -0.1005  0.7525  3.0880
 4562TIP3   OH237880   6.162   4.815   9.817 -0.0965  0.3249  0.1827
 4562TIP3    H137881   6.210   4.753   9.872  0.4237 -0.2458 -0.8783
 4562TIP3    H237882   6.086   4.766   9.787 -0.0510  0.4228 -0.1003
 4563TIP3   OH237883   0.961   5.266   9.275  0.3578  0.1349 -0.2692
 4563TIP3    H137884   0.964   5.193   9.337 -3.0705  0.4555  0.4395
 4563TIP3    H237885   0.983   5.343   9.328 -1.9996  0.3308  0.5411
 4564TIP3   OH237886   0.498   3.236   9.226 -0.3985  0.0617 -0.4196
 4564TIP3    H137887   0.410   3.201   9.241 -0.5413  0.4633 -0.2984
 4564TIP3    H237888   0.547   3.163   9.188 -0.1847 -0.8009  1.4173
 4565TIP3   OH237889   5.120   3.160   9.112  0.1554  0.4864  0.7128
 4565TIP3    H137890   5.167   3.230   9.065 -0.7478  0.9579  0.4972
 4565TIP3    H237891   5.032   3.162   9.075 -0.3678  0.3724  1.9236
 4566TIP3   OH237892   7.458   4.522   8.742 -0.1179  0.1495 -0.2997
 4566TIP3    H137893   7.508   4.585   8.794  1.5466 -1.1351 -0.2432
 4566TIP3    H237894   7.514   4.444   8.740 -1.7984 -1.0912 -0.9308
 4567TIP3   OH237895   5.231   6.678   9.272  0.1014  0.2805 -0.0378
 4567TIP3    H137896   5.308   6.704   9.323  0.2925 -0.2081 -0.0811
 4567TIP3    H237897   5.158   6.689   9.333  0.1977  0.7600 -0.0007
 4568TIP3   OH237898   0.348   6.829   8.253  0.2876  0.0914 -0.3256
 4568TIP3    H137899   0.333   6.785   8.169  2.2297 -0.6178 -0.3493
 4568TIP3    H237900   0.323   6.763   8.318  0.2921  0.0691 -0.3460
 4569TIP3   OH237901   2.614   6.697   9.156 -0.2167  0.4661 -0.0280
 4569TIP3    H137902   2.576   6.746   9.229 -0.7982  0.6516 -0.4552
 4569TIP3    H237903   2.550   6.629   9.137 -0.7508  1.2883 -1.2950
 4570TIP3   OH237904   0.260   7.511   8.706  0.0415  0.5881  0.7334
 4570TIP3    H137905   0.305   7.459   8.639  0.2630  1.1015  0.4832
 4570TIP3    H237906   0.228   7.588   8.660 -1.2224  0.1717  0.8780
 4571TIP3   OH237907   6.913   5.263   9.035 -0.0695 -0.7478 -0.1118
 4571TIP3    H137908   6.868   5.344   9.056  0.2946 -0.7102  0.5733
 4571TIP3    H237909   6.946   5.232   9.120  1.3055 -0.6972 -0.6040
 4572TIP3   OH237910   2.857   5.385   9.772  0.5070  0.6226 -0.3220
 4572TIP3    H137911   2.803   5.336   9.710 -1.3885  3.6422 -1.2758
 4572TIP3    H237912   2.883   5.463   9.724  0.8569  2.0085  1.9805
 4573TIP3   OH237913   5.833   2.230   9.497  0.1522 -0.4179  0.3185
 4573TIP3    H137914   5.818   2.298   9.563 -1.8312  0.2068 -0.7117
 4573TIP3    H237915   5.765   2.165   9.512  0.3450 -0.8123 -0.4465
 4574TIP3   OH237916   6.386   2.997   7.939 -0.4690  0.4471 -0.2579
 4574TIP3    H137917   6.418   3.083   7.913 -0.0561  0.5949  0.7027
 4574TIP3    H237918   6.459   2.938   7.920 -0.8860  0.2439 -1.2616
 4575TIP3   OH237919   1.879   7.095   7.985  0.5603  0.0017 -0.9379
 4575TIP3    H137920   1.860   7.075   8.076 -0.8689  1.4069 -0.8643
 4575TIP3    H237921   1.871   7.011   7.939  0.0324 -0.5093  0.0525
 4576TIP3   OH237922   1.205   2.476   7.145  0.0964  0.0284  0.3065
 4576TIP3    H137923   1.227   2.569   7.148  2.8038 -0.5572  0.4771
 4576TIP3    H237924   1.187   2.453   7.236  0.2785  0.2052  0.3881
 4577TIP3   OH237925   6.185   2.321   7.666  0.7654  0.0688 -0.5699
 4577TIP3    H137926   6.138   2.404   7.670 -0.3310 -0.5871  1.5229
 4577TIP3    H237927   6.147   2.276   7.591  1.1250  1.2764 -1.5143
 4578TIP3   OH237928   7.397   0.721   8.312  0.0159 -0.4185  0.4207
 4578TIP3    H137929   7.392   0.754   8.402 -0.2867  0.9084 -0.0598
 4578TIP3    H237930   7.472   0.662   8.312  1.6201  1.5291  0.9617
 4579TIP3   OH237931   1.412   0.913   9.626  0.2817  0.6947 -0.2329
 4579TIP3    H137932   1.491   0.909   9.571  0.6707 -1.1717  0.3818
 4579TIP3    H237933   1.407   1.005   9.653  1.9038  0.9936 -0.7808
 4580TIP3   OH237934   4.306   2.313   9.819 -0.0582  0.1105  0.2780
 4580TIP3    H137935   4.260   2.396   9.835 -0.4087  0.0618 -0.4290
 4580TIP3    H237936   4.398   2.333   9.835  0.1746  1.2701 -2.1055
 4581TIP3   OH237937   7.040   1.637   9.162  0.9787  0.4631 -0.0023
 4581TIP3    H137938   7.041   1.732   9.155  2.9058  0.7940  3.1983
 4581TIP3    H237939   6.991   1.619   9.242 -0.2397 -1.3879 -1.0760
 4582TIP3   OH237940   2.041   4.402   7.188  0.0356 -0.0158 -0.3187
 4582TIP3    H137941   1.988   4.336   7.143  0.8936 -1.3422  0.5244
 4582TIP3    H237942   2.019   4.485   7.145 -0.3463 -0.9813 -2.0808
 4583TIP3   OH237943   7.374   5.017   9.649 -0.2522 -1.0984 -0.2797
 4583TIP3    H137944   7.440   5.042   9.714 -0.7231 -1.7460  0.4671
 4583TIP3    H237945   7.329   4.943   9.688 -1.5188 -0.5853 -0.7198
 4584TIP3   OH237946   6.710   4.273   8.437  0.4980 -0.1352 -0.1398
 4584TIP3    H137947   6.693   4.235   8.351 -0.7206  0.1153 -0.0226
 4584TIP3    H237948   6.632   4.255   8.488  0.9495  0.2732  0.7264
 4585TIP3   OH237949   2.526   7.076   7.773 -0.0736 -0.2749  0.5033
 4585TIP3    H137950   2.604   7.131   7.768 -0.4375  0.2338  0.3365
 4585TIP3    H237951   2.460   7.122   7.722 -0.1703 -1.2489 -0.2820
 4586TIP3   OH237952   3.657   1.792   9.092  0.2757 -0.0362 -0.2252
 4586TIP3    H137953   3.569   1.798   9.130  0.0113 -1.3656 -0.5748
 4586TIP3    H237954   3.656   1.855   9.019  0.0783  0.9430  0.6004
 4587TIP3   OH237955   2.506   5.000   7.467 -0.2069 -0.2864  0.9720
 4587TIP3    H137956   2.422   5.041   7.488  0.8231  2.8298 -0.4742
 4587TIP3    H237957   2.566   5.035   7.533  0.8154  0.9920 -0.5995
 4588TIP3   OH237958   4.067   7.097   8.928 -0.3737  0.5287  0.6368
 4588TIP3    H137959   4.061   7.068   8.838 -1.4520  0.1888  0.8047
 4588TIP3    H237960   4.160   7.109   8.944  0.0653 -1.9382  0.2761
 4589TIP3   OH237961   2.785   7.342   9.517 -0.7643  0.3396 -0.2959
 4589TIP3    H137962   2.692   7.366   9.512 -1.4270 -1.9892 -0.7163
 4589TIP3    H237963   2.827   7.392   9.448 -1.5775  1.8900  0.2869
 4590TIP3   OH237964   1.593   1.547   6.832  0.5454  0.0734 -0.3981
 4590TIP3    H137965   1.642   1.630   6.829 -0.3200  0.7062  1.2570
 4590TIP3    H237966   1.505   1.570   6.802  0.2705 -0.2091  0.1720
 4591TIP3   OH237967   2.442   3.569   9.410 -0.5081 -0.3772 -0.3416
 4591TIP3    H137968   2.352   3.548   9.386  0.2373 -2.4678 -1.5622
 4591TIP3    H237969   2.463   3.508   9.481  0.2261 -0.5334 -0.6841
 4592TIP3   OH237970   7.396   6.391   9.537 -0.2299  0.2173 -0.2831
 4592TIP3    H137971   7.325   6.327   9.530 -0.8754  0.8641  0.2591
 4592TIP3    H237972   7.463   6.347   9.589 -0.2977 -0.3399 -0.6625
 4593TIP3   OH237973   1.834   1.947   8.988  0.1725 -0.2546 -0.0950
 4593TIP3    H137974   1.864   2.009   8.921 -1.9678 -1.1413 -2.0074
 4593TIP3    H237975   1.896   1.874   8.982  0.7693  0.2427 -0.1370
 4594TIP3   OH237976   7.273   3.408   9.139 -0.0821  0.0664 -0.7425
 4594TIP3    H137977   7.280   3.313   9.124 -1.5592 -0.5565  1.8625
 4594TIP3    H237978   7.273   3.417   9.235 -0.2902  2.6982 -0.9178
 4595TIP3   OH237979   1.097   2.745   8.067 -0.3408 -0.0261 -0.2296
 4595TIP3    H137980   1.048   2.822   8.038  1.0271  1.8267  2.0690
 4595TIP3    H237981   1.030   2.677   8.076 -2.0247  1.5676  0.0097
 4596TIP3   OH237982   6.781   1.844   8.958  0.4352 -0.0012  0.0421
 4596TIP3    H137983   6.822   1.764   8.992 -0.7894 -0.6973 -0.0636
 4596TIP3    H237984   6.773   1.901   9.034 -0.0611 -0.5818  0.4325
 4597TIP3   OH237985   1.014   2.471   7.822 -0.5008 -0.6597 -0.0192
 4597TIP3    H137986   1.021   2.376   7.834  0.6428 -0.3066  2.6405
 4597TIP3    H237987   0.919   2.486   7.817 -0.7629 -1.8133  0.8619
 4598TIP3   OH237988   5.217   3.227   9.650  0.4132  0.2812  0.3744
 4598TIP3    H137989   5.186   3.309   9.689 -1.2544 -0.0958 -0.0630
 4598TIP3    H237990   5.165   3.219   9.569 -1.3298 -2.4379  1.6363
 4599TIP3   OH237991   1.192   7.184   7.656  0.7249 -0.1412  0.0475
 4599TIP3    H137992   1.213   7.243   7.583 -0.2075  0.9945  0.6648
 4599TIP3    H237993   1.218   7.233   7.734  1.8003 -1.3877  0.4966
 4600TIP3   OH237994   2.664   1.759   8.089 -0.1858  0.1995 -0.3073
 4600TIP3    H137995   2.741   1.702   8.087  0.2999  0.8550 -0.6912
 4600TIP3    H237996   2.681   1.821   8.161 -1.4469 -1.1113  1.2008
 4601TIP3   OH237997   0.521   3.734   9.175 -0.3877  0.1943  0.3689
 4601TIP3    H137998   0.444   3.767   9.221 -0.5657 -0.1665  0.3340
 4601TIP3    H237999   0.592   3.739   9.239 -0.5894 -0.1108  0.6135
 4602TIP3   OH238000   4.286   2.574   7.513  0.3849  0.2627 -0.8149
 4602TIP3    H138001   4.311   2.639   7.579 -1.0726 -0.5234  0.5954
 4602TIP3    H238002   4.354   2.507   7.519 -0.5283 -0.5666  1.0736
 4603TIP3   OH238003   0.164   5.906   9.266  0.2127 -0.0369 -0.5160
 4603TIP3    H138004   0.150   5.874   9.176  3.3651  0.6715 -1.3842
 4603TIP3    H238005   0.181   5.827   9.317  0.5414 -0.3044 -1.0269
 4604TIP3   OH238006   3.610   2.615   7.804 -0.1021  0.0184 -0.1659
 4604TIP3    H138007   3.521   2.607   7.837  0.4356 -3.3518  0.7794
 4604TIP3    H238008   3.618   2.547   7.738  1.8863 -0.0288  0.0541
 4605TIP3   OH238009   5.443   6.146   9.180 -0.1392  0.5749  0.4011
 4605TIP3    H138010   5.362   6.175   9.221  0.6187  2.3010  0.7709
 4605TIP3    H238011   5.462   6.213   9.114  1.9233  1.2446  1.5899
 4606TIP3   OH238012   6.892   5.121   8.488 -0.0234  0.5798 -0.4036
 4606TIP3    H138013   6.936   5.036   8.486  1.5962  1.4007 -1.5554
 4606TIP3    H238014   6.803   5.101   8.517 -0.1326 -1.7115 -2.0277
 4607TIP3   OH238015   1.360   3.799   9.454  0.0591 -0.0778 -0.1718
 4607TIP3    H138016   1.334   3.753   9.375  0.6394 -0.7949  0.0498
 4607TIP3    H238017   1.384   3.887   9.424  1.5409 -0.7263 -0.9924
 4608TIP3   OH238018   1.832   2.699   7.457 -0.0973  0.0265 -0.0427
 4608TIP3    H138019   1.895   2.756   7.412 -1.3317  1.1178 -0.4284
 4608TIP3    H238020   1.812   2.745   7.539 -1.0915  0.1642 -0.3502
 4609TIP3   OH238021   4.595   7.449   8.049 -0.1189 -0.1254  0.1440
 4609TIP3    H138022   4.631   7.537   8.062 -1.0702  0.4444 -0.8362
 4609TIP3    H238023   4.545   7.431   8.128  2.7320 -1.2319  1.8744
 4610TIP3   OH238024   5.898   2.888   7.403 -0.2375  0.3040  0.0583
 4610TIP3    H138025   5.922   2.896   7.495 -0.0441  1.6072 -0.0765
 4610TIP3    H238026   5.969   2.837   7.364 -1.5998 -2.5943  1.0603
 4611TIP3   OH238027   5.985   0.654   7.628  0.5263  0.4716 -0.1111
 4611TIP3    H138028   6.074   0.668   7.660  1.7127 -0.9765 -2.5194
 4611TIP3    H238029   5.981   0.560   7.609 -0.7003  0.8779 -2.1804
 4612TIP3   OH238030   3.173   1.247   9.695  0.2619  0.4708 -0.5712
 4612TIP3    H138031   3.130   1.295   9.765 -1.5822  0.5337 -1.6734
 4612TIP3    H238032   3.228   1.312   9.652  1.3056  0.4613  0.6865
 4613TIP3   OH238033   2.197   2.069   7.161 -0.4911  0.3718  0.0754
 4613TIP3    H138034   2.270   2.114   7.203  0.1576 -1.2582  0.8007
 4613TIP3    H238035   2.193   2.105   7.073  1.9285 -0.2621 -0.3490
 4614TIP3   OH238036   2.674   6.488   6.964  0.2770  0.4136  0.4641
 4614TIP3    H138037   2.721   6.568   6.938  0.3950 -0.2977 -1.6964
 4614TIP3    H238038   2.606   6.478   6.897  0.8305 -1.7637  0.1722
 4615TIP3   OH238039   4.389   1.585   7.713 -0.1538 -0.2852  0.0077
 4615TIP3    H138040   4.453   1.534   7.665 -1.5111 -0.3625 -1.7953
 4615TIP3    H238041   4.399   1.674   7.680 -1.6523 -0.4886 -1.1113
 4616TIP3   OH238042   1.107   5.457   8.935  0.1270 -0.0358  0.0758
 4616TIP3    H138043   1.082   5.415   8.853  0.1495  1.5709 -0.7880
 4616TIP3    H238044   1.078   5.548   8.925  1.2868  0.4993  1.3218
 4617TIP3   OH238045   3.299   0.047   9.290  0.0772 -0.0635  0.1296
 4617TIP3    H138046   3.245   0.042   9.211  0.1383 -0.7531  0.1277
 4617TIP3    H238047   3.357  -0.029   9.285  2.3464  1.5940 -0.7868
 4618TIP3   OH238048   2.934   2.241   8.413  0.0080 -0.3352 -0.4828
 4618TIP3    H138049   2.908   2.215   8.325 -0.9589  1.3067 -0.7215
 4618TIP3    H238050   2.854   2.231   8.465  0.8507 -2.4104  0.5203
 4619TIP3   OH238051   0.237   0.394   7.207 -0.0134 -0.2531 -0.3934
 4619TIP3    H138052   0.313   0.364   7.158  0.4021 -0.5062  0.3893
 4619TIP3    H238053   0.219   0.481   7.173 -0.8359 -1.0965 -2.2475
 4620TIP3   OH238054   5.113   5.957   8.419  0.5986  0.0309  0.2657
 4620TIP3    H138055   5.104   5.901   8.496 -1.3227  0.3102  0.2843
 4620TIP3    H238056   5.024   5.971   8.388  1.3178 -0.0965 -2.0522
 4621TIP3   OH238057   2.802   5.532   8.817 -0.1207 -0.2709 -0.1028
 4621TIP3    H138058   2.802   5.613   8.766  1.0640 -0.0425  0.2298
 4621TIP3    H238059   2.879   5.539   8.873 -0.7756 -1.0176  0.9273
 4622TIP3   OH238060   7.476   1.950   9.354  0.0594 -0.1477  0.0264
 4622TIP3    H138061   7.475   1.999   9.271 -0.2980  2.3849  1.4287
 4622TIP3    H238062   7.569   1.941   9.375  0.1528 -0.7752 -0.6051
 4623TIP3   OH238063   3.374   3.732   8.742 -0.3672 -0.5744 -0.2539
 4623TIP3    H138064   3.377   3.640   8.715 -0.2108 -0.5661 -0.2634
 4623TIP3    H238065   3.465   3.761   8.739 -0.5219 -0.1474 -1.1935
 4624TIP3   OH238066   2.407   0.922   8.964  0.2185  0.6543  0.2035
 4624TIP3    H138067   2.469   0.916   9.037  0.1229  0.5525  0.2769
 4624TIP3    H238068   2.437   0.998   8.914 -0.1962  1.2198  0.7989
 4625TIP3   OH238069   7.185   0.998   9.188  0.1025 -0.0958 -0.1773
 4625TIP3    H138070   7.178   0.942   9.111 -1.7931  0.0206 -0.1450
 4625TIP3    H238071   7.263   0.968   9.233  1.9731  0.6223 -2.7325
 4626TIP3   OH238072   4.608   5.703   8.190 -0.6449  0.3471  0.2860
 4626TIP3    H138073   4.601   5.765   8.117 -1.9475 -0.2161 -0.1000
 4626TIP3    H238074   4.612   5.617   8.148  2.1991  0.1583  0.7743
 4627TIP3   OH238075   1.871   6.847   7.840  0.1751  0.0048  0.2334
 4627TIP3    H138076   1.850   6.856   7.747 -2.5137 -1.8729  0.5413
 4627TIP3    H238077   1.887   6.753   7.851 -0.1446  0.1104  1.7545
 4628TIP3   OH238078   0.843   5.529   9.059  0.1049 -0.4378  0.0292
 4628TIP3    H138079   0.797   5.608   9.088 -0.6126 -0.8604  0.0591
 4628TIP3    H238080   0.931   5.538   9.096  0.0427  0.3519  0.0174
 4629TIP3   OH238081   1.401   4.143   7.538 -0.1064 -0.0927 -0.1345
 4629TIP3    H138082   1.408   4.238   7.527 -0.3950  0.0246  0.5992
 4629TIP3    H238083   1.400   4.108   7.449 -0.4413  0.6286 -0.4243
 4630TIP3   OH238084   1.290   3.789   8.145 -0.2896  0.1233  0.3538
 4630TIP3    H138085   1.347   3.808   8.070  2.7949 -0.3491  2.3984
 4630TIP3    H238086   1.227   3.860   8.145  1.1564  1.5138 -1.2768
 4631TIP3   OH238087   6.059   4.037   8.851 -0.1213 -0.0428  0.0033
 4631TIP3    H138088   6.017   3.955   8.826  0.3456 -0.8335  1.7231
 4631TIP3    H238089   6.128   4.012   8.912  1.0032  1.5028 -0.5576
 4632TIP3   OH238090   4.927   6.482   9.021 -0.0699 -0.2648  0.0702
 4632TIP3    H138091   4.955   6.570   8.995 -0.7645 -0.4666 -1.4748
 4632TIP3    H238092   4.987   6.458   9.092  1.0378  0.8905 -0.4318
 4633TIP3   OH238093   3.794   6.490   7.027  0.1179  0.3599  0.6844
 4633TIP3    H138094   3.746   6.500   6.945  0.0181 -1.5517  0.4521
 4633TIP3    H238095   3.725   6.488   7.094 -0.0551 -0.7676  0.5076
 4634TIP3   OH238096   0.611   1.415   9.594  0.3393 -0.3188  0.2385
 4634TIP3    H138097   0.615   1.437   9.501 -0.2311  0.5429  0.4133
 4634TIP3    H238098   0.525   1.443   9.622 -0.9558 -3.8023  0.2602
 4635TIP3   OH238099   5.550   2.236   8.847 -0.0550 -0.3093 -0.3985
 4635TIP3    H138100   5.616   2.249   8.779  0.7564 -1.2098  0.1912
 4635TIP3    H238101   5.565   2.306   8.910 -1.9522  1.6322 -1.9515
 4636TIP3   OH238102   7.021   7.321   8.749  0.0508  0.3396 -0.3868
 4636TIP3    H138103   6.948   7.382   8.738 -0.3737 -0.1534 -0.3507
 4636TIP3    H238104   7.050   7.334   8.840 -0.9282 -0.4626  0.0655
 4637TIP3   OH238105   3.454   4.015   7.627  0.1453 -0.5024 -0.1190
 4637TIP3    H138106   3.494   4.007   7.540  0.1847 -0.7501 -0.0812
 4637TIP3    H238107   3.449   3.924   7.658  3.5703 -0.2659  1.6796
 4638TIP3   OH238108   3.840   3.455   8.652 -0.4193  0.0402 -0.2500
 4638TIP3    H138109   3.901   3.475   8.582 -1.1392  0.7642 -0.6831
 4638TIP3    H238110   3.781   3.389   8.615 -0.0614 -0.4746  0.0843
 4639TIP3   OH238111   0.678   2.045   9.438 -0.3680 -0.2803 -0.6558
 4639TIP3    H138112   0.660   2.112   9.371  1.0434  0.3916 -0.4038
 4639TIP3    H238113   0.754   2.079   9.485  0.5607 -2.1993 -0.6898
 4640TIP3   OH238114   4.109   7.238   9.954 -0.1075  0.4012 -0.4888
 4640TIP3    H138115   4.053   7.292   9.898  1.6964  1.2469 -1.5796
 4640TIP3    H238116   4.185   7.293   9.972  0.5245 -0.8052  0.7098
 4641TIP3   OH238117   1.705   6.480   7.299  0.2062 -0.3319 -0.2571
 4641TIP3    H138118   1.639   6.424   7.257 -0.2483  0.2818 -0.3774
 4641TIP3    H238119   1.747   6.424   7.363 -2.5048  0.0104  2.0110
 4642TIP3   OH238120   4.481   2.609   9.373  0.0952 -0.0201  0.5663
 4642TIP3    H138121   4.433   2.530   9.349 -1.3593  1.2808 -1.0226
 4642TIP3    H238122   4.567   2.577   9.401  0.4903 -2.0051 -2.4715
 4643TIP3   OH238123   5.750   1.885   8.245  0.3204 -0.5429  0.1583
 4643TIP3    H138124   5.802   1.902   8.166 -0.0788  1.7557  0.3056
 4643TIP3    H238125   5.661   1.906   8.220  0.1323 -0.1630  1.0962
 4644TIP3   OH238126   3.564   5.543   9.642  0.5452  0.2442 -0.0893
 4644TIP3    H138127   3.548   5.480   9.713 -0.6146 -0.2481 -0.7611
 4644TIP3    H238128   3.611   5.494   9.576  0.3264  0.2949 -0.2843
 4645TIP3   OH238129   3.835   2.575   9.621  0.6671  0.1045 -0.1861
 4645TIP3    H138130   3.811   2.483   9.621 -1.0579  0.5194 -1.2356
 4645TIP3    H238131   3.913   2.580   9.565  0.9497 -0.7377  0.1189
 4646TIP3   OH238132   3.255   6.349   8.498 -0.6648  0.4959 -0.3790
 4646TIP3    H138133   3.349   6.334   8.496 -0.2912  2.0113  1.8470
 4646TIP3    H238134   3.244   6.437   8.461 -0.8007  1.4652  1.7607
 4647TIP3   OH238135   3.723   1.230   7.731 -0.0290  0.2073  0.8121
 4647TIP3    H138136   3.798   1.288   7.743 -0.7828  1.1954  0.8162
 4647TIP3    H238137   3.700   1.240   7.639 -0.5889  0.4386  0.9782
 4648TIP3   OH238138   5.783   2.239   8.441  0.9185  0.2924 -0.3120
 4648TIP3    H138139   5.770   2.333   8.428 -0.1788  0.1858 -0.1492
 4648TIP3    H238140   5.743   2.199   8.363  0.3196 -0.0713  0.1663
 4649TIP3   OH238141   5.926   0.518   7.163 -0.3927  0.2250 -0.4363
 4649TIP3    H138142   5.933   0.477   7.077 -0.0332  1.3720 -0.9693
 4649TIP3    H238143   5.977   0.462   7.221 -1.7390 -1.3282 -0.6536
 4650TIP3   OH238144   3.633   1.160   6.462 -0.1496 -0.0230 -0.1704
 4650TIP3    H138145   3.574   1.227   6.427 -0.5329 -0.3276 -0.1110
 4650TIP3    H238146   3.702   1.210   6.506 -0.3415  0.3370 -0.2681
 4651TIP3   OH238147   5.295   5.643   8.244 -0.4723 -1.2205  0.4473
 4651TIP3    H138148   5.353   5.717   8.233 -0.1364 -1.4272  0.7939
 4651TIP3    H238149   5.346   5.579   8.293 -1.7178 -0.4975  2.8662
 4652TIP3   OH238150   6.615   6.929   7.019 -0.4354  0.4421  0.3181
 4652TIP3    H138151   6.619   6.880   7.102 -0.0213  0.5063  0.3379
 4652TIP3    H238152   6.660   7.011   7.037 -0.8753  0.7124  0.1985
 4653TIP3   OH238153   7.287   0.840   7.282  0.4197 -0.2619 -0.2840
 4653TIP3    H138154   7.345   0.764   7.278  2.1661  0.7830  2.5212
 4653TIP3    H238155   7.323   0.902   7.219 -0.3901 -1.2865 -1.8116
 4654TIP3   OH238156   6.511   3.239   7.880 -0.0198 -0.1243 -0.0000
 4654TIP3    H138157   6.550   3.234   7.967  1.7236  0.8167 -0.6797
 4654TIP3    H238158   6.581   3.214   7.820 -0.7075  0.7549 -1.2322
 4655TIP3   OH238159   2.273   6.769   8.126  0.5676  0.1479  0.0079
 4655TIP3    H138160   2.234   6.686   8.151  0.5980  0.8905  2.8881
 4655TIP3    H238161   2.276   6.767   8.031 -0.4277 -2.6611 -0.0418
 4656TIP3   OH238162   5.097   1.430   8.760  0.1216  0.0529 -0.1261
 4656TIP3    H138163   5.162   1.453   8.826  1.6824 -1.1354 -1.1957
 4656TIP3    H238164   5.102   1.501   8.696  1.7914 -0.9553 -1.1803
 4657TIP3   OH238165   7.185   1.676   7.662  0.2711  0.1673  0.3958
 4657TIP3    H138166   7.190   1.591   7.706 -0.5769 -0.1060 -0.0230
 4657TIP3    H238167   7.274   1.710   7.667  0.4730 -0.4493  1.1534
 4658TIP3   OH238168   0.741   3.889   8.172  0.1864  0.2779 -0.4361
 4658TIP3    H138169   0.660   3.841   8.156 -0.6941  1.0474  1.4727
 4658TIP3    H238170   0.810   3.824   8.160 -0.8621 -1.0312  0.3521
 4659TIP3   OH238171   4.883   5.113   9.410  1.1398  0.0011 -0.3571
 4659TIP3    H138172   4.818   5.182   9.398  1.2903  0.2118  0.0064
 4659TIP3    H238173   4.838   5.032   9.384  1.1044  0.2901 -1.2040
 4660TIP3   OH238174   3.528   2.350   9.457  0.4218  0.2387  0.7476
 4660TIP3    H138175   3.484   2.397   9.387  1.2897  1.7978  1.1924
 4660TIP3    H238176   3.479   2.374   9.536  0.3611 -0.3006  0.8784
 4661TIP3   OH238177   2.385   4.343   9.548 -0.6995 -0.0239  0.0275
 4661TIP3    H138178   2.328   4.267   9.532  0.3658 -1.0495  0.8886
 4661TIP3    H238179   2.464   4.305   9.588  0.7631  1.2778 -1.4795
 4662TIP3   OH238180   3.987   0.781   7.817 -0.1347  0.1601  0.0679
 4662TIP3    H138181   3.985   0.693   7.854 -0.5004  0.0858 -0.1239
 4662TIP3    H238182   3.993   0.767   7.722 -2.0470  0.3086 -0.1135
 4663TIP3   OH238183   3.639   5.425   7.069  0.1195 -0.7191 -0.0707
 4663TIP3    H138184   3.731   5.441   7.052  0.0745 -0.4744 -0.0827
 4663TIP3    H238185   3.638   5.371   7.148  0.3207 -1.7498 -0.7501
 4664TIP3   OH238186   3.931   2.957   8.283  0.1836 -0.2161  0.3478
 4664TIP3    H138187   3.889   2.999   8.208  0.3611  1.0826  0.9538
 4664TIP3    H238188   4.007   3.012   8.302 -0.0731 -0.2979  1.7104
 4665TIP3   OH238189   1.020   0.660   9.030  0.0207  0.7233  0.1607
 4665TIP3    H138190   1.045   0.695   8.945 -0.0206  1.5233  0.4639
 4665TIP3    H238191   1.006   0.738   9.085  0.1847  0.2223  0.9369
 4666TIP3   OH238192   0.557   7.129   8.402  0.9865 -0.0610  0.0623
 4666TIP3    H138193   0.487   7.191   8.382  2.1953  1.5395  0.6283
 4666TIP3    H238194   0.559   7.070   8.327 -1.0173 -0.2230  0.0817
 4667TIP3   OH238195   3.499   3.770   9.091 -0.3307 -0.2891  0.9342
 4667TIP3    H138196   3.583   3.803   9.060 -0.5761 -0.9007 -0.4510
 4667TIP3    H238197   3.491   3.683   9.051 -1.5587 -0.2919  1.1451
 4668TIP3   OH238198   6.798   6.467   8.071 -0.5398  0.4320 -0.2731
 4668TIP3    H138199   6.879   6.473   8.122 -0.8594  0.3764  0.2506
 4668TIP3    H238200   6.818   6.513   7.989  0.4955 -0.8752 -0.7956
 4669TIP3   OH238201   7.037   6.500   9.124 -0.4473  0.2339  0.0231
 4669TIP3    H138202   6.959   6.504   9.179 -0.0480  1.0675  0.5606
 4669TIP3    H238203   7.038   6.583   9.077  1.1821  1.1756  1.5742
 4670TIP3   OH238204   0.118   6.584   9.435  0.2241 -0.0426  0.1690
 4670TIP3    H138205   0.202   6.566   9.394  0.4721  0.7528  0.3095
 4670TIP3    H238206   0.111   6.521   9.507  0.2094 -0.8192 -0.4991
 4671TIP3   OH238207   5.728   6.568   9.015 -0.7080 -0.3275 -1.2527
 4671TIP3    H138208   5.637   6.598   9.011 -0.8038 -0.5682 -0.9706
 4671TIP3    H238209   5.778   6.647   9.038 -0.7467 -0.0323 -2.1594
 4672TIP3   OH238210   5.167   4.950   7.553 -0.1725 -0.4479  0.0574
 4672TIP3    H138211   5.251   4.972   7.593  1.2755 -3.0999 -1.2195
 4672TIP3    H238212   5.174   4.985   7.464 -0.3757 -0.7413 -0.0737
 4673TIP3   OH238213   4.024   6.230   7.967 -0.0083 -0.5035  0.5079
 4673TIP3    H138214   4.037   6.313   8.012 -0.0413  0.2678 -0.8670
 4673TIP3    H238215   3.930   6.226   7.949  0.0836 -0.5482  0.0270
 4674TIP3   OH238216   2.909   3.053   8.822  0.5589 -0.3616  0.0814
 4674TIP3    H138217   2.955   3.119   8.874 -1.2081  0.8669  0.2100
 4674TIP3    H238218   2.855   3.006   8.885 -1.4038  0.9653 -0.4749
 4675TIP3   OH238219   3.473   5.104   8.807 -0.5668  0.0375 -0.0113
 4675TIP3    H138220   3.510   5.075   8.890 -1.3130 -1.7234 -0.2274
 4675TIP3    H238221   3.528   5.063   8.740 -0.0473  1.3359 -0.4145
 4676TIP3   OH238222   3.632   2.396   8.810  0.3664  0.3002  0.0313
 4676TIP3    H138223   3.636   2.381   8.716 -0.3686  1.1159 -0.1440
 4676TIP3    H238224   3.560   2.458   8.821 -1.2964 -1.7365  1.3716
 4677TIP3   OH238225   7.001   3.554   8.924  0.3397 -0.2598  0.3296
 4677TIP3    H138226   7.040   3.608   8.855  1.7319 -0.0119  1.2513
 4677TIP3    H238227   7.014   3.464   8.895 -4.9273 -0.3880 -2.8428
 4678TIP3   OH238228   5.546   6.072   8.316 -0.5325 -0.8574  0.2891
 4678TIP3    H138229   5.512   6.124   8.243 -1.0473 -0.8786  0.5146
 4678TIP3    H238230   5.496   6.101   8.392 -0.1710 -1.0162  0.5885
 4679TIP3   OH238231   6.474   3.345   8.468  0.1057  0.7303 -0.0939
 4679TIP3    H138232   6.486   3.331   8.561 -1.8348  0.6473  0.1788
 4679TIP3    H238233   6.404   3.411   8.462 -1.9184 -1.3876 -1.4454
 4680TIP3   OH238234   6.035   5.602   7.838 -0.0076  0.2715  0.6884
 4680TIP3    H138235   5.996   5.606   7.925 -0.1607  0.2770  0.6195
 4680TIP3    H238236   5.963   5.575   7.781  0.2779 -0.5048  0.6854
 4681TIP3   OH238237   0.516   4.166   8.664 -0.1281 -0.6353  0.3782
 4681TIP3    H138238   0.469   4.212   8.734 -0.0131 -0.8503  0.5956
 4681TIP3    H238239   0.590   4.124   8.707  1.7953  1.7660 -0.2943
 4682TIP3   OH238240   7.294   2.869   9.510  0.1000 -0.1273 -0.5420
 4682TIP3    H138241   7.269   2.824   9.591  0.5831 -0.9323 -0.8236
 4682TIP3    H238242   7.329   2.799   9.455  0.3947  0.5285 -1.1889
 4683TIP3   OH238243   5.899   3.016   9.597 -0.1610  0.1249  0.4244
 4683TIP3    H138244   5.829   2.952   9.608 -1.2608  1.3116  0.5836
 4683TIP3    H238245   5.859   3.100   9.622  0.6941  1.1417 -1.3855
 4684TIP3   OH238246   4.087   2.889   8.588  0.0902  0.0637 -0.3894
 4684TIP3    H138247   4.170   2.875   8.633 -0.3043 -1.7160 -0.1340
 4684TIP3    H238248   4.107   2.952   8.520  1.6556 -0.3155 -0.3250
 4685TIP3   OH238249   1.113   6.363   7.346 -0.0478  0.5036 -0.0526
 4685TIP3    H138250   1.088   6.391   7.258  0.5118 -0.6558 -0.5987
 4685TIP3    H238251   1.040   6.392   7.401 -0.8223  0.4921 -1.0339
 4686TIP3   OH238252   7.420   2.341   9.631  0.0299  0.2042  0.1992
 4686TIP3    H138253   7.328   2.369   9.640 -0.1890  1.4184 -3.6975
 4686TIP3    H238254   7.446   2.374   9.545  4.0630 -0.4631  0.9697
 4687TIP3   OH238255   1.210   4.215   8.642  0.5398 -0.3278  0.2713
 4687TIP3    H138256   1.116   4.219   8.620  0.5727  0.9588  0.2508
 4687TIP3    H238257   1.243   4.302   8.619  1.1008  0.3302  3.1590
 4688TIP3   OH238258   2.325   6.664   7.355  0.1396  0.2057 -0.2841
 4688TIP3    H138259   2.369   6.746   7.333  2.5566 -0.2045  2.4166
 4688TIP3    H238260   2.359   6.600   7.292  2.0553  0.3112  0.5949
 4689TIP3   OH238261   7.246   4.495   9.468  0.0178  0.1062 -0.5253
 4689TIP3    H138262   7.194   4.427   9.510  0.5655 -0.1204 -0.2003
 4689TIP3    H238263   7.302   4.528   9.538 -0.0624  0.7188 -0.7422
 4690TIP3   OH238264   2.923   3.902   9.017  0.0991 -0.2625  0.2635
 4690TIP3    H138265   2.969   3.927   8.937 -0.4803  0.1603  0.0485
 4690TIP3    H238266   2.983   3.843   9.062  0.4606 -0.4585 -0.4532
 4691TIP3   OH238267   5.386   1.557   8.619  0.0009 -0.2100  0.1810
 4691TIP3    H138268   5.420   1.645   8.635  0.8562 -0.4348 -0.3144
 4691TIP3    H238269   5.351   1.529   8.703  2.6324 -0.6187  1.2328
 4692TIP3   OH238270   6.036   3.213   9.167  0.1362 -0.5286 -0.3519
 4692TIP3    H138271   5.969   3.182   9.228  1.3006 -1.5657  0.4470
 4692TIP3    H238272   6.015   3.172   9.084  0.2368 -1.5105  0.1011
 4693TIP3   OH238273   4.745   0.296   8.755  0.1652 -0.1448 -0.2390
 4693TIP3    H138274   4.754   0.357   8.682  2.2891  0.1444  0.2261
 4693TIP3    H238275   4.777   0.212   8.721 -0.6169 -0.4847 -0.1787
 4694TIP3   OH238276   5.438   7.266   9.104 -0.7819 -0.1828  0.2754
 4694TIP3    H138277   5.379   7.191   9.114 -1.6109  0.4982  0.5087
 4694TIP3    H238278   5.449   7.300   9.193 -1.2536  0.6179  0.0318
 4695TIP3   OH238279   4.336   2.214   8.551 -0.5808 -0.1552 -0.0434
 4695TIP3    H138280   4.428   2.231   8.528 -0.6246 -0.9689 -0.8808
 4695TIP3    H238281   4.287   2.261   8.484 -0.7891  0.3910  0.4844
 4696TIP3   OH238282   3.012   6.332   7.711 -0.4058  0.2426 -0.0118
 4696TIP3    H138283   3.086   6.273   7.698  0.4841  0.2502  3.9976
 4696TIP3    H238284   3.044   6.418   7.683  0.2711 -0.1327 -0.4227
 4697TIP3   OH238285   1.277   1.569   9.432 -0.2262 -0.2542 -0.9421
 4697TIP3    H138286   1.285   1.494   9.373  1.1809 -0.6516 -0.2928
 4697TIP3    H238287   1.266   1.530   9.519 -3.9269  0.2972 -0.9875
 4698TIP3   OH238288   6.533   5.372   8.174 -0.0194  0.0308  0.0104
 4698TIP3    H138289   6.566   5.361   8.263 -0.6404  2.8698  0.6941
 4698TIP3    H238290   6.544   5.286   8.133  3.2935 -0.5335  1.7784
 4699TIP3   OH238291   2.001   1.034   8.964  0.0471 -0.4401 -0.2055
 4699TIP3    H138292   2.088   1.066   8.988  0.5078 -0.2904 -1.9683
 4699TIP3    H238293   1.986   1.068   8.876 -1.4386 -1.2020 -0.2789
 4700TIP3   OH238294   7.187   7.104   7.695 -0.5427 -0.3526 -0.1219
 4700TIP3    H138295   7.174   7.011   7.717 -0.8924 -0.0510  1.0135
 4700TIP3    H238296   7.241   7.138   7.766 -0.4979  0.3400 -0.4789
 4701TIP3   OH238297   7.384   4.041   6.987  0.0019 -0.0472 -0.3567
 4701TIP3    H138298   7.371   4.062   7.079  1.6573 -1.5055  0.2554
 4701TIP3    H238299   7.340   3.956   6.976  0.0648 -0.0203 -0.8268
 4702TIP3   OH238300   5.011   7.410   9.170 -0.6261 -0.1972 -0.1929
 4702TIP3    H138301   4.999   7.503   9.184  0.9934  0.2615 -1.5075
 4702TIP3    H238302   4.928   7.380   9.133 -1.1053  0.7538  0.0887
 4703TIP3   OH238303   1.620   4.219   9.501 -0.4614  0.4789 -0.0408
 4703TIP3    H138304   1.596   4.311   9.492 -0.0220  0.6167  0.1959
 4703TIP3    H238305   1.704   4.212   9.454 -0.7633  0.0816 -0.5360
 4704TIP3   OH238306   7.085   6.572   9.457 -0.2365  0.2108  0.0756
 4704TIP3    H138307   7.180   6.575   9.451 -0.0735 -2.1032  0.7911
 4704TIP3    H238308   7.059   6.665   9.460  2.0245  0.8931  0.6463
 4705TIP3   OH238309   3.842   4.390   7.216 -0.1865  0.0468  0.1857
 4705TIP3    H138310   3.826   4.457   7.282  1.3968 -1.0118  1.7154
 4705TIP3    H238311   3.788   4.316   7.243 -0.1268 -0.1266 -0.1669
 4706TIP3   OH238312   4.391   6.155   8.265 -0.6071 -0.3171  0.3533
 4706TIP3    H138313   4.372   6.131   8.175 -0.1781  1.0403 -0.1104
 4706TIP3    H238314   4.459   6.092   8.292 -0.1512 -0.2199 -0.5347
 4707TIP3   OH238315   4.105   2.869   9.667 -0.5660  0.4556 -0.2031
 4707TIP3    H138316   4.082   2.833   9.753 -0.9885  0.9990 -0.0812
 4707TIP3    H238317   4.100   2.794   9.608  0.6458 -0.1216  0.3998
 4708TIP3   OH238318   1.520   6.306   7.145  0.5909  0.2780  0.3988
 4708TIP3    H138319   1.449   6.336   7.089 -0.1689 -2.8792 -0.5577
 4708TIP3    H238320   1.591   6.286   7.085  1.6857  1.7004  1.1679
 4709TIP3   OH238321   1.851   1.770   7.754 -0.0523 -0.0063 -0.2917
 4709TIP3    H138322   1.885   1.819   7.828  0.6918  0.5393 -0.9672
 4709TIP3    H238323   1.898   1.687   7.757 -0.5811 -0.2897  0.2789
 4710TIP3   OH238324   6.807   5.747   7.887  0.1751  0.0698 -0.3976
 4710TIP3    H138325   6.794   5.654   7.906 -1.2524  0.3985  0.3466
 4710TIP3    H238326   6.724   5.777   7.851  1.0322  0.7904 -1.9229
 4711TIP3   OH238327   0.320   6.311   8.976  0.2675  0.4091  0.5432
 4711TIP3    H138328   0.310   6.366   8.899 -0.1047 -1.5299 -0.8566
 4711TIP3    H238329   0.411   6.322   9.003  1.3951 -1.2707 -2.1512
 4712TIP3   OH238330   6.723   1.670   8.400  0.0733 -0.2566  0.0815
 4712TIP3    H138331   6.699   1.597   8.343 -0.2321  0.1554 -0.3283
 4712TIP3    H238332   6.796   1.637   8.452  0.7945 -0.4134 -1.0144
 4713TIP3   OH238333   2.544   2.142   9.684  0.9014 -0.3751  0.3289
 4713TIP3    H138334   2.615   2.200   9.657  1.0587 -0.6295  0.1909
 4713TIP3    H238335   2.465   2.180   9.644  1.0388 -0.3904  0.0383
 4714TIP3   OH238336   5.335   0.835   7.368  0.3249  0.1525 -0.1100
 4714TIP3    H138337   5.284   0.823   7.288 -0.6276  0.1738  0.4860
 4714TIP3    H238338   5.391   0.757   7.372 -0.6649 -0.5737 -0.0462
 4715TIP3   OH238339   2.154   0.664   8.785  0.6707  0.3895 -0.2663
 4715TIP3    H138340   2.205   0.674   8.705  1.5155  0.7409  0.3052
 4715TIP3    H238341   2.103   0.584   8.771  2.0585 -0.5017 -0.4981
 4716TIP3   OH238342   6.952   6.082   8.547  0.2437 -0.0675  0.1945
 4716TIP3    H138343   6.981   6.145   8.613 -1.1245 -1.2694  2.0311
 4716TIP3    H238344   6.877   6.124   8.505 -0.6962 -0.4445  1.4488
 4717TIP3   OH238345   7.512   0.453   7.726 -0.0761  0.5762  0.2091
 4717TIP3    H138346   7.469   0.369   7.708 -0.5006  0.9948 -0.8089
 4717TIP3    H238347   7.501   0.466   7.820  1.1293 -1.1249  0.6378
 4718TIP3   OH238348   0.915   5.827   7.820 -0.1392 -0.0153 -0.4308
 4718TIP3    H138349   0.861   5.871   7.754  0.1402  1.1319  0.0919
 4718TIP3    H238350   1.000   5.869   7.813 -0.2442  0.4812  1.0146
 4719TIP3   OH238351   0.246   2.120   9.406  0.7337 -0.2177  0.2580
 4719TIP3    H138352   0.264   2.026   9.411 -0.9794 -0.6249 -0.3512
 4719TIP3    H238353   0.174   2.135   9.468 -2.3145 -0.3218 -2.9209
 4720TIP3   OH238354   3.222   0.011   8.015 -0.0275  0.0327 -0.1645
 4720TIP3    H138355   3.317   0.002   8.020 -0.0069  0.6917  2.2499
 4720TIP3    H238356   3.189  -0.077   8.030  0.1634 -0.3711 -1.9244
 4721TIP3   OH238357   6.639   4.572   8.174 -0.2862 -0.3393 -0.2036
 4721TIP3    H138358   6.642   4.567   8.078  0.3558 -0.0213 -0.2087
 4721TIP3    H238359   6.731   4.570   8.200 -0.3000  2.3586  0.2630
 4722TIP3   OH238360   7.480   1.727   7.659 -0.2813  0.1398 -0.5889
 4722TIP3    H138361   7.487   1.746   7.565  0.5223 -0.2337 -0.6110
 4722TIP3    H238362   7.549   1.779   7.700  0.1896 -0.6551 -0.3501
 4723TIP3   OH238363   3.240   3.970   9.144 -0.6016 -0.0707 -0.2201
 4723TIP3    H138364   3.308   3.908   9.118  1.7306  2.5469 -0.8147
 4723TIP3    H238365   3.225   4.024   9.067 -2.8308 -0.0320  0.1586
 4724TIP3   OH238366   1.896   6.324   9.093 -0.1941 -0.1873  0.1548
 4724TIP3    H138367   1.912   6.393   9.029 -2.3710 -0.1364 -0.4164
 4724TIP3    H238368   1.942   6.248   9.058 -0.1194  0.2375 -0.7038
 4725TIP3   OH238369   7.014   0.115   8.262  0.2615 -0.4017  0.7373
 4725TIP3    H138370   7.046   0.034   8.221  2.2230  0.0608  1.2402
 4725TIP3    H238371   6.965   0.160   8.192  0.5428 -1.2544 -0.0284
 4726TIP3   OH238372   1.268   2.045   7.499 -0.1021 -0.0043 -0.4152
 4726TIP3    H138373   1.327   1.976   7.469  0.5147  0.2652  0.1554
 4726TIP3    H238374   1.180   2.011   7.481  0.1653 -1.2038  0.4056
 4727TIP3   OH238375   0.740   5.426   8.218  0.5622 -0.0550 -0.1416
 4727TIP3    H138376   0.691   5.463   8.291 -3.1080 -2.8776 -0.8878
 4727TIP3    H238377   0.786   5.351   8.254 -0.1325 -0.6349 -0.4471
 4728TIP3   OH238378   6.033   0.654   8.455 -0.6397  0.4433  0.1258
 4728TIP3    H138379   5.998   0.707   8.526 -1.1844 -0.0758  0.2487
 4728TIP3    H238380   6.008   0.700   8.375  0.5899  1.4188  0.2601
 4729TIP3   OH238381   5.250   6.872   8.601 -0.4037  0.0850  0.0869
 4729TIP3    H138382   5.318   6.939   8.602 -0.0675 -0.2196  2.1220
 4729TIP3    H238383   5.248   6.841   8.511  1.2456  1.0124 -0.3061
 4730TIP3   OH238384   0.631   2.785   8.556 -0.0458 -0.2037 -0.2727
 4730TIP3    H138385   0.554   2.743   8.517  0.3097 -1.1907  0.0628
 4730TIP3    H238386   0.654   2.729   8.629 -0.8055  1.6873  1.5386
 4731TIP3   OH238387   7.183   2.947   9.233  0.3688 -0.7707  0.4677
 4731TIP3    H138388   7.191   2.913   9.322  1.1016 -1.5169  0.1244
 4731TIP3    H238389   7.200   2.872   9.177  2.9244  0.2912 -0.3273
 4732TIP3   OH238390   5.204   5.308   8.814 -0.3775 -0.0605 -0.7057
 4732TIP3    H138391   5.138   5.291   8.880  1.1445  2.2181  1.5733
 4732TIP3    H238392   5.178   5.390   8.773 -0.9816 -1.1450 -2.6718
 4733TIP3   OH238393   3.470   0.099   9.558 -0.1621 -0.0242 -0.3972
 4733TIP3    H138394   3.496   0.023   9.504 -0.9779 -0.8946  0.4008
 4733TIP3    H238395   3.385   0.075   9.593  0.1685  0.7015  0.9527
 4734TIP3   OH238396   2.683   2.271   8.008  0.7388  0.6351 -0.0318
 4734TIP3    H138397   2.686   2.229   8.094 -0.2619  2.4885  0.9847
 4734TIP3    H238398   2.731   2.212   7.950  1.8811 -0.4262  1.9011
 4735TIP3   OH238399   7.392   2.398   7.594  0.3823 -0.1756  0.1941
 4735TIP3    H138400   7.389   2.308   7.560 -2.5562  0.1685 -0.7544
 4735TIP3    H238401   7.376   2.388   7.688 -3.0071 -0.6368 -0.2863
 4736TIP3   OH238402   0.827   6.762   8.223 -0.3865  0.4379 -0.0341
 4736TIP3    H138403   0.866   6.812   8.152 -2.3617  0.6654 -1.0029
 4736TIP3    H238404   0.764   6.704   8.181 -1.4764  0.4369  1.4968
 4737TIP3   OH238405   1.035   2.641   8.933 -0.1447  0.0409 -0.3634
 4737TIP3    H138406   1.107   2.704   8.939 -0.9442  1.0550 -0.9087
 4737TIP3    H238407   1.003   2.633   9.023  2.4255 -2.6833  0.4474
 4738TIP3   OH238408   3.137   2.801   7.706 -0.0400 -0.1403 -0.4086
 4738TIP3    H138409   3.226   2.767   7.695  0.4068 -0.0189  2.2039
 4738TIP3    H238410   3.097   2.744   7.772 -1.6118  0.3390 -0.9052
 4739TIP3   OH238411   1.391   2.012   7.732 -0.1770 -0.4304  0.1067
 4739TIP3    H138412   1.342   2.046   7.657  1.7668  0.2979 -0.9023
 4739TIP3    H238413   1.478   2.053   7.725  0.2509 -0.7977  2.4395
 4740TIP3   OH238414   5.525   6.450   8.154 -0.4147  0.8075  0.8856
 4740TIP3    H138415   5.553   6.535   8.120 -3.0965  1.0510 -1.0074
 4740TIP3    H238416   5.601   6.393   8.141  1.7589  2.9978  2.9964
 4741TIP3   OH238417   6.989   2.859   8.664 -0.2070  0.4444  0.3575
 4741TIP3    H138418   6.948   2.945   8.657  0.1904  0.5091 -1.9398
 4741TIP3    H238419   6.917   2.800   8.683 -0.4299  1.2820  2.3933
 4742TIP3   OH238420   4.080   2.580   7.357  0.0067  0.2022 -0.1363
 4742TIP3    H138421   4.153   2.590   7.418  0.6096 -1.0713 -0.6024
 4742TIP3    H238422   4.112   2.517   7.292 -1.4014 -0.1422 -0.5308
 4743TIP3   OH238423   3.499   1.915   8.359 -0.1798 -0.1946 -0.2901
 4743TIP3    H138424   3.549   1.990   8.327 -0.0818 -0.7161 -1.4208
 4743TIP3    H238425   3.408   1.943   8.353 -0.1625 -0.2599 -1.0377
 4744TIP3   OH238426   6.903   3.287   8.097 -0.0886 -0.0756 -0.8610
 4744TIP3    H138427   6.835   3.347   8.127  0.0116  0.4683 -1.7229
 4744TIP3    H238428   6.885   3.274   8.004  1.9857  1.4562 -1.5546
 4745TIP3   OH238429   4.211   3.888   8.361  0.1407  0.6117  0.1685
 4745TIP3    H138430   4.175   3.900   8.273  0.5977  2.2108  0.1707
 4745TIP3    H238431   4.203   3.794   8.377 -2.2064  0.5937 -0.5958
 4746TIP3   OH238432   0.511   3.972   9.629  0.3092 -0.4365  0.0010
 4746TIP3    H138433   0.538   4.016   9.710 -2.2525  0.0722  0.6856
 4746TIP3    H238434   0.512   3.879   9.650  1.0009 -0.3938  0.1597
 4747TIP3   OH238435   4.855   6.584   7.661 -0.2291 -0.2148 -0.4745
 4747TIP3    H138436   4.771   6.578   7.615 -0.0264 -0.7610 -0.7916
 4747TIP3    H238437   4.919   6.551   7.597  0.5186  2.0486 -0.9826
 4748TIP3   OH238438   0.905   7.176   8.373 -0.0502  0.0684 -0.5931
 4748TIP3    H138439   0.870   7.197   8.287  0.2867 -1.4531 -1.1297
 4748TIP3    H238440   0.829   7.145   8.423 -0.1211  0.2969 -0.5582
 4749TIP3   OH238441   6.586   1.570   7.808 -0.4178  0.6723 -0.2254
 4749TIP3    H138442   6.514   1.632   7.808 -0.4046  0.6871 -0.6047
 4749TIP3    H238443   6.634   1.588   7.728  0.1887  0.8670  0.1697
 4750TIP3   OH238444   1.584   6.978   8.635 -0.4157 -0.5897 -0.4667
 4750TIP3    H138445   1.596   6.927   8.716  1.0393  0.1019 -0.2125
 4750TIP3    H238446   1.643   6.935   8.572 -0.5580 -0.3308 -0.7739
 4751TIP3   OH238447   6.311   5.722   9.158  0.0245 -0.3612  0.6530
 4751TIP3    H138448   6.363   5.652   9.196  0.4853 -0.4273 -0.0806
 4751TIP3    H238449   6.221   5.702   9.183  0.3147 -0.3959  1.6999
 4752TIP3   OH238450   6.371   1.503   8.669 -0.7300 -0.2104 -0.2211
 4752TIP3    H138451   6.364   1.525   8.576  2.8451  1.0460 -0.3292
 4752TIP3    H238452   6.385   1.586   8.713 -2.9154 -0.7117  1.6282
 4753TIP3   OH238453   7.256   5.225   9.521  0.4446  0.4120 -0.2822
 4753TIP3    H138454   7.281   5.287   9.589  2.3523 -1.0312  0.4327
 4753TIP3    H238455   7.273   5.139   9.560 -1.4553 -0.5721 -1.4680
 4754TIP3   OH238456   2.519   6.181   8.447  0.7014  0.4211 -0.5206
 4754TIP3    H138457   2.520   6.214   8.537 -0.6036 -0.2016 -0.2525
 4754TIP3    H238458   2.554   6.093   8.453  1.3221  0.6454 -0.7538
 4755TIP3   OH238459   2.664   2.134   7.147 -0.0502  0.0990 -0.4087
 4755TIP3    H138460   2.757   2.125   7.124 -0.4002 -1.9206 -1.2025
 4755TIP3    H238461   2.637   2.046   7.173 -2.0571  0.3835 -1.3439
 4756TIP3   OH238462   0.153   0.939   7.366  0.3149  0.0700  0.0064
 4756TIP3    H138463   0.129   0.871   7.302  0.3688  0.1268 -0.0743
 4756TIP3    H238464   0.146   0.895   7.451 -3.3912  0.9010  0.3275
 4757TIP3   OH238465   1.631   7.170   9.606  0.6173  0.0044  0.3229
 4757TIP3    H138466   1.676   7.167   9.690 -0.4910  1.9611  1.0552
 4757TIP3    H238467   1.673   7.241   9.558 -1.2623  1.5688  0.8497
 4758TIP3   OH238468   2.369   5.022   8.343  0.2377  0.7520  0.2396
 4758TIP3    H138469   2.403   5.070   8.268  0.2005  1.7289  0.8210
 4758TIP3    H238470   2.446   5.003   8.397  0.0995  1.3758  0.6731
 4759TIP3   OH238471   0.587   5.995   9.252 -0.1570 -0.4847 -0.0296
 4759TIP3    H138472   0.525   6.020   9.320 -1.4636  0.7814 -1.5906
 4759TIP3    H238473   0.533   5.974   9.176  1.2774  0.6502 -1.4650
 4760TIP3   OH238474   2.881   3.691   7.730 -0.4953  0.1325  0.6094
 4760TIP3    H138475   2.830   3.660   7.804 -1.2676 -2.4318 -0.8560
 4760TIP3    H238476   2.822   3.681   7.655  1.0870  0.1759 -0.6899
 4761TIP3   OH238477   0.508   1.851   9.464  0.1681 -0.4583 -0.3036
 4761TIP3    H138478   0.475   1.872   9.551 -0.3774  1.0719 -0.8552
 4761TIP3    H238479   0.587   1.903   9.455 -1.4476  1.9297 -1.8659
 4762TIP3   OH238480   3.092   7.013   9.281  0.0749 -0.1323 -0.1323
 4762TIP3    H138481   3.083   6.948   9.351  2.9295 -0.2197  0.3092
 4762TIP3    H238482   3.004   7.023   9.246 -1.2999 -0.8629  2.7624
 4763TIP3   OH238483   3.752   1.215   8.181 -0.1389  0.5980  0.7826
 4763TIP3    H138484   3.760   1.309   8.196  1.4635  0.3742  1.5373
 4763TIP3    H238485   3.841   1.181   8.194 -0.9272 -1.1973  1.8675
 4764TIP3   OH238486   6.757   6.949   7.408  0.0130  0.4422  0.3168
 4764TIP3    H138487   6.751   6.995   7.325 -0.1209 -1.7520 -0.9626
 4764TIP3    H238488   6.849   6.954   7.433  0.1653  0.6266 -0.2717
 4765TIP3   OH238489   3.767   6.730   8.354  0.5911 -0.0033 -0.7556
 4765TIP3    H138490   3.680   6.767   8.340  1.5255  2.7214 -0.0405
 4765TIP3    H238491   3.828   6.803   8.336  2.7053 -1.6555 -0.7328
 4766TIP3   OH238492   6.747   2.149   8.236  0.0721  0.0052 -0.0626
 4766TIP3    H138493   6.670   2.139   8.292  2.3641 -0.1214  3.4480
 4766TIP3    H238494   6.788   2.063   8.235  0.9453  0.4115 -0.5351
 4767TIP3   OH238495   3.917   0.838   8.103  0.9568 -0.3933 -0.6866
 4767TIP3    H138496   3.827   0.854   8.132  1.2276 -0.5660  0.2830
 4767TIP3    H238497   3.945   0.761   8.153  1.4080 -0.7741 -1.5088
 4768TIP3   OH238498   5.123   3.194   8.016  0.1399 -0.9784 -0.3049
 4768TIP3    H138499   5.195   3.136   8.039  0.6744  0.4757  1.9480
 4768TIP3    H238500   5.166   3.275   7.989 -0.5862  0.1447  1.7269
 4769TIP3   OH238501   1.742   6.114   6.803  0.4229 -0.1141 -0.0406
 4769TIP3    H138502   1.676   6.081   6.742  0.4821 -0.0942 -0.1146
 4769TIP3    H238503   1.819   6.060   6.786  0.3468 -0.3089  0.2223
 4770TIP3   OH238504   2.424   6.137   8.117  0.4108 -0.3648  0.1198
 4770TIP3    H138505   2.442   6.067   8.179 -0.8211  0.7821  1.8818
 4770TIP3    H238506   2.330   6.150   8.121  0.3138 -0.0966 -1.8833
 4771TIP3   OH238507   6.304   4.825   7.331 -0.5845  0.0842 -0.4243
 4771TIP3    H138508   6.316   4.916   7.304  1.8370  0.1675  0.6991
 4771TIP3    H238509   6.338   4.773   7.259  4.5574  0.2881  1.4657
 4772TIP3   OH238510   5.315   1.576   7.212  0.1941 -0.3735 -0.2795
 4772TIP3    H138511   5.288   1.517   7.141  1.2078 -0.3399 -0.7230
 4772TIP3    H238512   5.301   1.664   7.177 -0.7898 -0.3508  0.1681
 4773TIP3   OH238513   4.410   5.812   9.337 -0.0781  0.0216 -0.0291
 4773TIP3    H138514   4.358   5.889   9.360 -0.0144  0.0165  0.1354
 4773TIP3    H238515   4.400   5.803   9.243 -0.6408 -0.1729  0.0485
 4774TIP3   OH238516   6.939   7.367   7.263 -0.4302 -0.1471 -0.2079
 4774TIP3    H138517   7.016   7.400   7.309 -0.5190 -0.0538 -0.1286
 4774TIP3    H238518   6.874   7.436   7.271 -0.8899 -0.6611  0.6535
 4775TIP3   OH238519   6.610   0.940   8.547  0.3490 -0.0429 -0.2703
 4775TIP3    H138520   6.706   0.944   8.547  0.3325  1.7652 -1.9379
 4775TIP3    H238521   6.588   0.896   8.465 -0.2540  0.7115 -0.5177
 4776TIP3   OH238522   2.524   2.827   7.627 -0.3396 -0.0320 -0.6100
 4776TIP3    H138523   2.506   2.745   7.673  0.9957  0.3298  0.6258
 4776TIP3    H238524   2.558   2.800   7.542 -1.3382 -0.7344 -0.7955
 4777TIP3   OH238525   4.308   0.869   8.433 -0.0058  0.2279 -0.1138
 4777TIP3    H138526   4.327   0.857   8.340  1.3865  0.7615  0.0758
 4777TIP3    H238527   4.393   0.891   8.472 -0.3521 -1.0701  1.4732
 4778TIP3   OH238528   1.510   1.084   8.045 -0.1394 -0.0861 -1.0455
 4778TIP3    H138529   1.482   1.065   7.956  3.3750 -0.4351 -2.2333
 4778TIP3    H238530   1.576   1.017   8.064  0.2653  0.8738  1.2583
 4779TIP3   OH238531   0.647   4.511   8.787  0.3906 -0.3852  0.1233
 4779TIP3    H138532   0.692   4.452   8.727 -0.8971 -0.4770 -0.7876
 4779TIP3    H238533   0.661   4.598   8.749 -1.8611 -0.5923 -1.3352
 4780TIP3   OH238534   6.217   2.354   9.604  0.0165  0.0962  0.1609
 4780TIP3    H138535   6.138   2.299   9.602  0.2685 -0.2630 -0.9950
 4780TIP3    H238536   6.242   2.362   9.512  1.4327  0.0719  0.5272
 4781TIP3   OH238537   7.350   6.371   7.494 -0.1176 -0.2613 -0.6549
 4781TIP3    H138538   7.396   6.288   7.505 -0.4556 -0.7598 -2.6450
 4781TIP3    H238539   7.415   6.430   7.455  0.5084  0.8663  1.8944
 4782TIP3   OH238540   2.599   4.594   8.510 -0.3998  0.5722  0.6641
 4782TIP3    H138541   2.545   4.605   8.431  0.1505 -0.6658  0.0835
 4782TIP3    H238542   2.568   4.662   8.570 -2.8326 -0.2664  0.4860
 4783TIP3   OH238543   2.079   1.177   8.458 -0.0507  0.1003  0.1953
 4783TIP3    H138544   2.036   1.184   8.543  0.8789 -0.0336  0.6894
 4783TIP3    H238545   2.111   1.086   8.455 -0.8729 -0.1799 -0.6958
 4784TIP3   OH238546   4.288   7.250   9.324  0.6154  0.0992 -0.1108
 4784TIP3    H138547   4.353   7.243   9.394 -0.4463  0.1815  0.9131
 4784TIP3    H238548   4.281   7.344   9.308  1.4101  0.0366 -0.8748
 4785TIP3   OH238549   1.121   1.321   9.883 -0.0743  0.2506 -0.0801
 4785TIP3    H138550   1.117   1.407   9.840  2.3540  0.2879 -0.4043
 4785TIP3    H238551   1.150   1.341   9.972  1.6730 -0.2361 -0.4893
 4786TIP3   OH238552   4.619   3.059   7.043 -0.4148 -0.1582 -0.2839
 4786TIP3    H138553   4.617   3.143   6.997  1.5128  0.0324 -0.1126
 4786TIP3    H238554   4.628   3.082   7.135  0.3491 -0.5456 -0.2547
 4787TIP3   OH238555   6.885   0.971   8.494  0.7169  0.4922  0.1572
 4787TIP3    H138556   6.917   0.892   8.450 -0.4964 -0.1387  0.3406
 4787TIP3    H238557   6.874   1.035   8.424  0.3025  0.0084 -0.2330
 4788TIP3   OH238558   6.558   4.457   8.875  0.3392  0.4645 -0.4601
 4788TIP3    H138559   6.561   4.505   8.958  0.3840  1.4229 -1.0022
 4788TIP3    H238560   6.630   4.493   8.824 -0.2549  0.5338 -1.2642
 4789TIP3   OH238561   6.397   7.511   9.411 -0.3610 -0.2722  0.4893
 4789TIP3    H138562   6.443   7.448   9.355  0.8522 -0.2396  1.4006
 4789TIP3    H238563   6.344   7.457   9.470 -0.1767 -0.3916  0.5467
 4790TIP3   OH238564   5.799   6.323   7.531  0.3689 -0.3400  0.0790
 4790TIP3    H138565   5.733   6.390   7.551  1.7168  0.5689  1.7631
 4790TIP3    H238566   5.800   6.319   7.436 -2.1896 -0.5075 -0.0164
 4791TIP3   OH238567   5.342   4.152   8.357  0.1430  0.2113 -0.1967
 4791TIP3    H138568   5.278   4.082   8.343  0.1295 -0.3535  2.2626
 4791TIP3    H238569   5.414   4.131   8.297  0.2104 -2.0767  0.5818
 4792TIP3   OH238570   0.122   7.207   9.065 -0.2423 -0.0292 -0.1261
 4792TIP3    H138571   0.031   7.233   9.076  0.5535  2.7734  0.7013
 4792TIP3    H238572   0.146   7.238   8.977  0.1639  0.1531  0.0444
 4793TIP3   OH238573   4.839   6.796   9.877 -0.1296 -0.0384  0.0126
 4793TIP3    H138574   4.767   6.853   9.903 -1.1085 -0.9787 -0.5671
 4793TIP3    H238575   4.907   6.856   9.844 -0.0376  0.9667  1.8700
 4794TIP3   OH238576   5.297   4.218   7.079 -0.3468  0.1007  0.5093
 4794TIP3    H138577   5.218   4.271   7.090 -0.3280 -0.0722  1.5258
 4794TIP3    H238578   5.271   4.130   7.107 -0.3081 -0.4066 -0.9258
 4795TIP3   OH238579   5.045   3.438   9.220 -0.1815 -0.3327 -0.3660
 4795TIP3    H138580   4.960   3.478   9.203 -0.0141  1.0124  1.5330
 4795TIP3    H238581   5.106   3.489   9.167 -0.5547 -1.4182 -1.8731
 4796TIP3   OH238582   0.656   7.402   7.178  0.6385 -0.2864 -0.5301
 4796TIP3    H138583   0.606   7.483   7.168 -0.0716 -0.7193 -0.5296
 4796TIP3    H238584   0.596   7.333   7.151  0.7304 -0.9516  0.9001
 4797TIP3   OH238585   6.750   7.238   8.517  0.1828  0.2988  0.4359
 4797TIP3    H138586   6.744   7.310   8.455  0.1538  0.2767  0.4134
 4797TIP3    H238587   6.682   7.257   8.582 -0.8547 -0.4882 -0.3804
 4798TIP3   OH238588   6.938   6.340   9.810  0.0181 -0.2775  0.2021
 4798TIP3    H138589   7.005   6.342   9.741 -0.5402  1.2754 -0.3303
 4798TIP3    H238590   6.975   6.394   9.880 -1.2374  1.8265 -0.6799
 4799TIP3   OH238591   2.091   6.526   8.195 -0.1180  0.3656 -0.3699
 4799TIP3    H138592   2.068   6.472   8.270  0.5387  0.1534 -0.3069
 4799TIP3    H238593   2.014   6.581   8.179 -0.0749  0.7929  0.7873
 4800TIP3   OH238594   6.998   0.392   8.995 -0.0192  0.2710 -0.0037
 4800TIP3    H138595   6.989   0.339   9.074  0.9158  2.9977  2.0967
 4800TIP3    H238596   7.091   0.387   8.973 -0.4509 -1.3419 -1.6745
 4801TIP3   OH238597   1.379   0.708   7.689  0.2060 -0.3778  0.0807
 4801TIP3    H138598   1.308   0.686   7.748 -1.0716 -1.5730 -1.7810
 4801TIP3    H238599   1.341   0.697   7.601  2.7677 -1.4068 -0.9946
 4802TIP3   OH238600   2.048   3.886   7.729  0.4074  0.8408 -0.4155
 4802TIP3    H138601   2.033   3.843   7.644 -2.0959  0.8555 -0.0570
 4802TIP3    H238602   1.973   3.944   7.740 -0.6232 -0.8783  2.8290
 4803TIP3   OH238603   2.028   4.674   8.312 -0.0348 -0.7716 -0.6803
 4803TIP3    H138604   1.972   4.744   8.345  0.0601 -1.3414  0.8040
 4803TIP3    H238605   2.107   4.719   8.281 -0.4395 -0.1382 -0.8133
 4804TIP3   OH238606   0.746   0.179   8.120  0.3862 -0.2537 -0.7247
 4804TIP3    H138607   0.785   0.234   8.052  1.3679 -0.7124 -0.5468
 4804TIP3    H238608   0.659   0.217   8.135  0.2949  0.0560 -1.9781
 4805TIP3   OH238609   3.603   2.793   7.346 -0.5530 -0.1963  0.1374
 4805TIP3    H138610   3.689   2.756   7.324 -0.5795  0.1914 -0.6532
 4805TIP3    H238611   3.608   2.884   7.318 -1.1394 -0.1035  0.3229
 4806TIP3   OH238612   2.334   5.834   7.280  0.2557  0.0622  0.4736
 4806TIP3    H138613   2.298   5.747   7.265  1.1847 -0.4640  1.2186
 4806TIP3    H238614   2.263   5.881   7.325 -0.3166 -0.2332 -0.0954
 4807TIP3   OH238615   5.244   7.412   7.522 -0.1576 -0.1878  0.0807
 4807TIP3    H138616   5.166   7.439   7.473 -0.3912 -0.7085  0.1589
 4807TIP3    H238617   5.315   7.414   7.457 -0.5373 -1.2558 -0.3877
 4808TIP3   OH238618   0.292   1.842   7.599 -0.0450  0.0445 -0.4798
 4808TIP3    H138619   0.380   1.856   7.566  0.5725  0.7065  1.3296
 4808TIP3    H238620   0.299   1.766   7.657 -0.3129  0.9687  0.8116
 4809TIP3   OH238621   4.472   6.806   9.763 -0.9632 -0.2959  0.1910
 4809TIP3    H138622   4.393   6.763   9.730 -1.4421 -0.2376  1.2374
 4809TIP3    H238623   4.512   6.740   9.820 -2.2650  0.9553  2.6762
 4810TIP3   OH238624   5.945   3.616   9.168  0.2218  0.3084  0.2633
 4810TIP3    H138625   5.853   3.610   9.143  0.4737  0.9719 -0.8824
 4810TIP3    H238626   5.961   3.710   9.179  0.9560  0.2656 -0.3311
 4811TIP3   OH238627   2.334   0.070   8.252  0.0091 -0.4857  0.5423
 4811TIP3    H138628   2.341   0.052   8.346  0.7965  0.1312  0.6165
 4811TIP3    H238629   2.270   0.142   8.247 -0.7987 -1.1964  0.5111
 4812TIP3   OH238630   0.390   4.436   8.838 -0.1285 -0.2318  0.3726
 4812TIP3    H138631   0.473   4.467   8.802  0.2290 -1.9531 -0.3858
 4812TIP3    H238632   0.360   4.507   8.894  0.9131  1.2034 -0.8182
 4813TIP3   OH238633   3.100   0.944   9.064 -0.3756  0.0691 -0.1805
 4813TIP3    H138634   3.171   0.885   9.088 -0.4308 -0.0513 -0.3116
 4813TIP3    H238635   3.128   1.030   9.096 -1.0217 -0.3077  1.4747
 4814TIP3   OH238636   0.930   1.963   8.694 -0.0048  0.1099 -0.1487
 4814TIP3    H138637   0.881   2.044   8.678 -1.5900 -0.2025  2.5688
 4814TIP3    H238638   1.009   1.992   8.740 -0.1583  0.2101  0.0553
 4815TIP3   OH238639   6.051   3.424   9.643 -0.3547  0.6665  0.2639
 4815TIP3    H138640   6.047   3.519   9.639 -0.4788  0.6362 -0.5915
 4815TIP3    H238641   5.970   3.395   9.600  0.8491  0.1599 -1.7548
 4816TIP3   OH238642   2.476   7.250   7.078 -0.2861  0.5235  0.0521
 4816TIP3    H138643   2.558   7.222   7.038  0.4702  1.6532  0.7509
 4816TIP3    H238644   2.502   7.305   7.152 -1.6696  0.9800  0.2431
 4817TIP3   OH238645   2.804   6.342   9.282  0.1980 -0.2328 -0.4660
 4817TIP3    H138646   2.831   6.392   9.359  1.4428 -0.3092 -0.8462
 4817TIP3    H238647   2.764   6.262   9.318 -1.2992  0.7356  0.1333
 4818TIP3   OH238648   0.878   1.473   9.038 -0.4413 -0.5450  0.1118
 4818TIP3    H138649   0.850   1.416   9.109  0.2964  0.2571  1.0741
 4818TIP3    H238650   0.970   1.492   9.057  0.2627 -1.5979 -1.9315
 4819TIP3   OH238651   4.622   1.531   7.530 -0.3743  0.2107  0.2919
 4819TIP3    H138652   4.638   1.449   7.484  1.5583  2.1236 -2.8437
 4819TIP3    H238653   4.706   1.552   7.571 -1.4618 -0.3537  3.0094
 4820TIP3   OH238654   5.302   3.864   8.531 -0.2065 -0.0627 -0.8034
 4820TIP3    H138655   5.341   3.787   8.572 -0.2612 -0.6826 -1.8782
 4820TIP3    H238656   5.359   3.937   8.558  0.1818 -0.5662 -0.2500
 4821TIP3   OH238657   2.915   0.238   7.251  0.2842  0.1670 -0.0844
 4821TIP3    H138658   2.856   0.298   7.207  2.2334  1.3235 -1.2425
 4821TIP3    H238659   2.879   0.151   7.233 -0.7114  0.8006 -1.2779
 4822TIP3   OH238660   6.434   2.112   6.931  0.1339 -0.0748 -0.7459
 4822TIP3    H138661   6.358   2.109   6.989  0.1471  1.2533 -0.6290
 4822TIP3    H238662   6.399   2.138   6.846 -0.0267 -2.9334 -1.6468
 4823TIP3   OH238663   1.662   6.067   8.989  0.2001 -1.0392  0.1100
 4823TIP3    H138664   1.754   6.091   8.984  0.5501 -2.4637 -1.0131
 4823TIP3    H238665   1.623   6.105   8.910 -0.0934 -0.7837  0.3741
 4824TIP3   OH238666   6.976   0.138   7.706  0.6505  0.1401 -0.0864
 4824TIP3    H138667   7.044   0.204   7.694  1.2245 -0.5307 -0.5525
 4824TIP3    H238668   6.996   0.070   7.643 -1.0498  0.3950 -0.9631
 4825TIP3   OH238669   7.285   3.464   9.425  0.5579  0.7717 -0.1793
 4825TIP3    H138670   7.306   3.374   9.450 -0.5538  0.4004 -0.5256
 4825TIP3    H238671   7.358   3.516   9.459  1.6651 -0.3553 -0.7298
 4826TIP3   OH238672   1.053   1.728   9.553  0.7248  0.4053  0.0378
 4826TIP3    H138673   1.030   1.816   9.524  0.4801 -0.6550 -3.2964
 4826TIP3    H238674   1.118   1.698   9.490  0.3763 -2.0346  0.7551
 4827TIP3   OH238675   0.874   4.913   7.209 -0.5232  0.5261  0.2234
 4827TIP3    H138676   0.784   4.889   7.188 -1.0038  0.0180  2.5098
 4827TIP3    H238677   0.875   5.009   7.200 -0.7935  0.3985 -1.4151
 4828TIP3   OH238678   2.657   5.088   8.957 -0.2122 -0.4951 -0.3870
 4828TIP3    H138679   2.739   5.104   9.003  0.3418 -0.7274 -1.2585
 4828TIP3    H238680   2.641   4.995   8.967 -0.5467 -0.3933  0.0553
 4829TIP3   OH238681   4.228   1.184   6.985 -0.1926  0.7290 -0.1377
 4829TIP3    H138682   4.295   1.201   6.918 -0.7791  1.0967 -0.6481
 4829TIP3    H238683   4.183   1.268   6.996 -0.8206  0.3947 -0.0918
 4830TIP3   OH238684   4.945   6.136   9.199 -0.5388 -0.6149  0.2662
 4830TIP3    H138685   4.887   6.205   9.231  0.2123 -0.1529  0.6609
 4830TIP3    H238686   4.927   6.061   9.256 -0.8747 -0.5337  0.2699
 4831TIP3   OH238687   3.672   1.002   8.478  0.4930 -0.6881  0.1927
 4831TIP3    H138688   3.679   0.983   8.384 -4.4384  1.6342 -0.9763
 4831TIP3    H238689   3.731   1.077   8.491  0.4000 -0.2924 -1.3883
 4832TIP3   OH238690   7.306   3.143   9.086  0.0380 -0.1294 -0.4372
 4832TIP3    H138691   7.281   3.072   9.146 -1.3970  0.1437 -0.6810
 4832TIP3    H238692   7.237   3.144   9.020 -0.8642  2.5130  0.4133
 4833TIP3   OH238693   0.460   1.725   8.532 -0.5740 -0.3150  0.4717
 4833TIP3    H138694   0.422   1.742   8.618 -1.3915 -0.0795  0.0821
 4833TIP3    H238695   0.384   1.714   8.474 -0.0423 -0.6338 -0.1905
 4834TIP3   OH238696   0.158   5.495   9.491 -0.5799  0.1125  0.4342
 4834TIP3    H138697   0.227   5.433   9.468  0.6468  0.0756  3.7747
 4834TIP3    H238698   0.185   5.578   9.451  0.5669 -0.2865  0.3678
 4835TIP3   OH238699   3.239   1.738   6.844 -0.0696 -0.0548  0.2646
 4835TIP3    H138700   3.294   1.753   6.767 -1.0663  1.5647 -0.1807
 4835TIP3    H238701   3.240   1.821   6.892  0.9047 -1.1676  2.3078
 4836TIP3   OH238702   0.466   7.351   9.146 -0.6474  0.6828 -0.0404
 4836TIP3    H138703   0.415   7.396   9.078 -0.4317 -0.2086 -0.8134
 4836TIP3    H238704   0.557   7.367   9.123 -0.5728  0.3289 -0.0050
 4837TIP3   OH238705   6.266   5.636   7.575  0.5442  0.0459  0.3894
 4837TIP3    H138706   6.178   5.658   7.545 -0.0081 -2.1634  0.2648
 4837TIP3    H238707   6.268   5.541   7.578  3.3000 -0.0311 -0.7114
 4838TIP3   OH238708   6.445   0.481   7.723  0.5360  0.4388  0.5744
 4838TIP3    H138709   6.487   0.428   7.791  1.2093 -0.1566 -0.2899
 4838TIP3    H238710   6.390   0.418   7.676  0.8661  0.6343 -0.0745
 4839TIP3   OH238711   2.785   4.317   7.545 -0.0884  0.3902 -0.0351
 4839TIP3    H138712   2.787   4.290   7.453 -1.1776  0.2402 -0.0293
 4839TIP3    H238713   2.837   4.397   7.547  1.6414 -0.6817 -0.3881
 4840TIP3   OH238714   4.037   6.442   8.580  0.1419  0.1114 -0.4563
 4840TIP3    H138715   4.013   6.423   8.671  2.5564 -2.1350 -0.1893
 4840TIP3    H238716   3.970   6.399   8.528 -0.8589  0.7947  0.2318
 4841TIP3   OH238717   3.105   2.299   7.783  0.6287 -0.1469  0.7657
 4841TIP3    H138718   3.061   2.262   7.707 -0.1573 -0.7952  1.5273
 4841TIP3    H238719   3.115   2.226   7.843 -1.3905  0.9067  2.5086
 4842TIP3   OH238720   4.856   1.160   8.375  0.3978  0.2379 -0.2260
 4842TIP3    H138721   4.840   1.218   8.449  0.7592  2.8521 -2.0407
 4842TIP3    H238722   4.928   1.104   8.403 -1.6059 -1.1833  2.5113
 4843TIP3   OH238723   2.454   2.352   7.820 -0.8286 -0.0664  0.5826
 4843TIP3    H138724   2.398   2.379   7.893 -0.6413 -0.0853  0.7329
 4843TIP3    H238725   2.543   2.356   7.855 -0.7500 -0.2263  0.4032
 4844TIP3   OH238726   2.827   3.822   8.607  0.0145 -0.2610 -0.3782
 4844TIP3    H138727   2.734   3.799   8.606 -0.5275  1.7124  0.4009
 4844TIP3    H238728   2.843   3.857   8.519 -0.2757  0.4578 -0.1477
 4845TIP3   OH238729   1.608   2.513   8.908  0.4956 -0.1479 -0.2314
 4845TIP3    H138730   1.678   2.457   8.942 -1.0106 -2.0946 -0.2413
 4845TIP3    H238731   1.541   2.513   8.976 -0.3033  0.2049 -0.9985
 4846TIP3   OH238732   4.880   6.346   8.222 -0.0165  0.4966  0.1462
 4846TIP3    H138733   4.860   6.438   8.235 -0.0549  0.5171 -0.0562
 4846TIP3    H238734   4.863   6.305   8.307  1.4284  0.9194  0.6730
 4847TIP3   OH238735   1.226   4.616   7.301 -0.4762  0.4355 -0.2917
 4847TIP3    H138736   1.151   4.648   7.250  0.5376  1.4022 -1.2431
 4847TIP3    H238737   1.283   4.575   7.236  0.6099  1.2385  0.1197
 4848TIP3   OH238738   6.496   1.801   9.080 -0.2232 -0.4076  0.8603
 4848TIP3    H138739   6.516   1.730   9.019  0.1104  1.1601 -0.9591
 4848TIP3    H238740   6.508   1.763   9.167 -1.2643 -2.8826 -0.0196
 4849TIP3   OH238741   2.192   1.320   9.297  0.1236  0.1380  0.3521
 4849TIP3    H138742   2.149   1.332   9.381  0.6504  0.7966  0.5396
 4849TIP3    H238743   2.178   1.228   9.275  1.5817 -0.5554  2.0512
 4850TIP3   OH238744   2.572   1.197   9.005 -0.0163  0.2204 -0.3436
 4850TIP3    H138745   2.596   1.117   9.051 -0.3213  0.0632 -0.4572
 4850TIP3    H238746   2.595   1.181   8.914  3.1386  1.5144  0.0982
 4851TIP3   OH238747   1.697   5.622   9.247 -0.1712 -0.6337  0.1209
 4851TIP3    H138748   1.640   5.641   9.321  0.0694  0.8299 -0.0434
 4851TIP3    H238749   1.778   5.668   9.266  0.7733 -2.2053  0.0586
 4852TIP3   OH238750   5.620   4.814   8.084 -0.6160 -0.2731 -0.1236
 4852TIP3    H138751   5.578   4.862   8.013 -1.6771 -1.5054 -0.3721
 4852TIP3    H238752   5.562   4.828   8.159 -2.4655 -3.2032 -0.8267
 4853TIP3   OH238753   0.710   6.249   8.774 -0.4918 -0.6339 -0.2228
 4853TIP3    H138754   0.793   6.214   8.743 -0.9477 -1.4513 -0.5367
 4853TIP3    H238755   0.693   6.325   8.718  1.0484  0.8521  1.1743
 4854TIP3   OH238756   3.375   1.477   9.652  0.3866 -0.0797  0.3896
 4854TIP3    H138757   3.347   1.546   9.713  0.3334  0.4410 -0.2164
 4854TIP3    H238758   3.470   1.480   9.656  0.4013  0.5905 -0.2441
 4855TIP3   OH238759   6.460   5.458   9.164  0.7856 -0.4704  0.0825
 4855TIP3    H138760   6.548   5.483   9.193  0.6048 -0.4958  0.6653
 4855TIP3    H238761   6.457   5.484   9.072  1.3841 -0.4164  0.0724
 4856TIP3   OH238762   5.636   6.950   7.727 -0.0966 -0.4257 -0.2469
 4856TIP3    H138763   5.620   6.977   7.637  0.6121  0.5363 -0.1012
 4856TIP3    H238764   5.553   6.911   7.756 -0.5037 -0.2205 -1.1210
 4857TIP3   OH238765   2.890   1.627   7.979 -0.6916  0.3939  0.0274
 4857TIP3    H138766   2.950   1.696   7.950 -0.4594  0.9300  1.6696
 4857TIP3    H238767   2.938   1.546   7.964  0.0241  0.7526  0.3008
 4858TIP3   OH238768   3.612   4.033   8.508 -0.1921  0.1674 -0.6149
 4858TIP3    H138769   3.693   4.055   8.555  0.0625 -0.1649 -0.8920
 4858TIP3    H238770   3.630   4.057   8.417 -0.8121  1.1390 -0.4874
 4859TIP3   OH238771   7.188   4.590   7.254  0.4600  0.0695 -0.4765
 4859TIP3    H138772   7.236   4.670   7.276  0.6763  0.0545 -0.8904
 4859TIP3    H238773   7.224   4.523   7.312 -0.1311  0.3931  0.2933
 4860TIP3   OH238774   4.386   4.969   9.621 -0.1703 -0.4836  0.1183
 4860TIP3    H138775   4.458   4.990   9.681  0.3780 -1.7407 -0.0810
 4860TIP3    H238776   4.330   5.047   9.624  0.9864  0.3610  0.5680
 4861TIP3   OH238777   0.444   7.058   8.684  0.3558  0.9064  0.8382
 4861TIP3    H138778   0.492   7.099   8.613  0.6799  2.4682  1.9182
 4861TIP3    H238779   0.499   6.985   8.712  0.7387  0.9547  0.2063
 4862TIP3   OH238780   0.323   5.957   6.637  0.1030  0.4131 -0.1349
 4862TIP3    H138781   0.245   6.011   6.650 -0.4308 -0.5164  0.6769
 4862TIP3    H238782   0.393   6.005   6.680 -0.7714 -0.4722  2.4990
 4863TIP3   OH238783   1.161   1.150   9.170 -0.0145 -0.8120 -0.4772
 4863TIP3    H138784   1.153   1.145   9.266  1.6678  0.6948 -0.2072
 4863TIP3    H238785   1.256   1.151   9.155 -0.2644 -0.5308 -2.1357
 4864TIP3   OH238786   7.171   5.857   7.668 -0.2871  0.1131 -0.5434
 4864TIP3    H138787   7.170   5.950   7.689 -0.5613  0.1996 -0.9271
 4864TIP3    H238788   7.264   5.833   7.671 -0.2000  0.4347 -0.6012
 4865TIP3   OH238789   4.251   6.840   8.287 -0.2522  0.2446 -0.3965
 4865TIP3    H138790   4.291   6.849   8.373  0.0622  0.2690 -0.5426
 4865TIP3    H238791   4.325   6.825   8.228 -0.5191 -0.4875 -0.5584
 4866TIP3   OH238792   1.139   0.885   9.800 -0.7012  0.4599  0.4541
 4866TIP3    H138793   1.207   0.944   9.832  0.0448 -0.5686  0.8279
 4866TIP3    H238794   1.180   0.838   9.727 -1.7938  1.4782 -0.8578
 4867TIP3   OH238795   1.625   1.241   9.411  0.2801 -0.0290 -0.4551
 4867TIP3    H138796   1.647   1.284   9.329 -0.7804 -0.4778 -0.9949
 4867TIP3    H238797   1.647   1.149   9.397  1.2412  0.0798  0.2075
 4868TIP3   OH238798   6.050   0.023   8.200  0.4254 -0.1514  0.1959
 4868TIP3    H138799   6.098   0.088   8.251 -0.2016  0.0231  0.5770
 4868TIP3    H238800   6.098  -0.059   8.213  2.9217  0.6907 -2.5485
 4869TIP3   OH238801   6.501   1.301   7.131  0.0592  0.4956  0.1246
 4869TIP3    H138802   6.422   1.350   7.107 -0.7795 -0.4656  0.8126
 4869TIP3    H238803   6.512   1.237   7.061 -0.2398  0.1256  0.4057
 4870TIP3   OH238804   1.251   3.988   6.870 -0.0335  0.3026 -0.0408
 4870TIP3    H138805   1.156   3.977   6.868 -0.1703  1.3436  0.2364
 4870TIP3    H238806   1.284   3.905   6.904 -0.9227  0.3417  0.9562
 4871TIP3   OH238807   2.756   0.138   9.164 -0.0404 -0.4157 -0.4769
 4871TIP3    H138808   2.694   0.148   9.235 -2.2095 -1.3013 -2.1325
 4871TIP3    H238809   2.754   0.221   9.117  1.1200  0.0406  0.2216
 4872TIP3   OH238810   1.909   3.411   7.408 -0.3534  0.1639 -0.1483
 4872TIP3    H138811   1.870   3.443   7.327  0.4971  0.3197 -0.5068
 4872TIP3    H238812   1.928   3.319   7.391  0.0698  0.2638 -0.2225
 4873TIP3   OH238813   0.525   0.510   9.184 -0.4914 -0.5707 -0.2710
 4873TIP3    H138814   0.541   0.419   9.210 -0.3919 -0.9038 -1.4332
 4873TIP3    H238815   0.611   0.543   9.160 -0.3441  0.2029  1.1775
 4874TIP3   OH238816   4.911   4.465   8.393  0.5128  0.4021  0.3268
 4874TIP3    H138817   4.871   4.381   8.413  0.6326  0.2927  0.1150
 4874TIP3    H238818   4.991   4.443   8.345  0.7663  0.6197  0.6410
 4875TIP3   OH238819   0.084   2.889   8.691 -0.2671 -0.0854 -0.2800
 4875TIP3    H138820   0.017   2.938   8.644 -0.2154 -1.1672 -1.5547
 4875TIP3    H238821   0.097   2.937   8.772 -0.2692  1.9424 -1.4282
 4876TIP3   OH238822   5.821   6.637   7.472 -0.2552  0.4246 -0.0720
 4876TIP3    H138823   5.779   6.688   7.402 -0.8773 -1.2699 -0.9999
 4876TIP3    H238824   5.748   6.595   7.518  0.3142 -1.7840 -1.0831
 4877TIP3   OH238825   2.260   4.495   8.209  0.0056  0.1167 -0.2351
 4877TIP3    H138826   2.229   4.495   8.300 -0.5131  1.9491 -0.3753
 4877TIP3    H238827   2.181   4.495   8.156  0.3029 -0.0808 -0.6844
 4878TIP3   OH238828   3.967   4.131   9.070 -0.4427 -0.0390  0.3959
 4878TIP3    H138829   3.901   4.118   9.002  0.8330 -1.8224 -0.5775
 4878TIP3    H238830   3.994   4.223   9.061 -0.9153 -0.0156 -0.9380
 4879TIP3   OH238831   2.541   5.925   7.098 -0.5570 -0.1365 -0.3807
 4879TIP3    H138832   2.467   5.938   7.157 -2.7139 -0.4754 -2.8335
 4879TIP3    H238833   2.541   6.004   7.043  0.6911 -0.3133 -0.6575
 4880TIP3   OH238834   5.422   4.893   9.366  0.2347 -0.2776 -0.0663
 4880TIP3    H138835   5.350   4.911   9.426  0.6771  1.1997  0.0673
 4880TIP3    H238836   5.501   4.908   9.419  0.6296  0.1740 -0.7671
 4881TIP3   OH238837   0.103   2.810   9.521  0.0608  0.0380 -0.3414
 4881TIP3    H138838   0.063   2.870   9.459  1.4982  1.0472 -0.3409
 4881TIP3    H238839   0.116   2.729   9.472 -1.2998 -0.0786 -0.5314
 4882TIP3   OH238840   6.771   2.864   8.170  0.3586  0.5814  0.3531
 4882TIP3    H138841   6.704   2.823   8.225 -0.3003  0.5666 -0.4268
 4882TIP3    H238842   6.727   2.877   8.086  1.1280  1.2267  0.0395
 4883TIP3   OH238843   5.718   0.618   8.800  0.3692  0.0851 -0.3883
 4883TIP3    H138844   5.689   0.704   8.829  1.0325 -0.4405  2.0483
 4883TIP3    H238845   5.674   0.557   8.859  0.1974 -1.2689 -1.8298
 4884TIP3   OH238846   2.337   4.534   6.968  0.0238  0.7073 -0.0141
 4884TIP3    H138847   2.267   4.599   6.964 -0.2279  0.3896 -0.9186
 4884TIP3    H238848   2.318   4.474   6.896  0.9923  0.3760  0.0019
 4885TIP3   OH238849   6.020   2.128   8.040 -0.0714 -0.2019 -0.1590
 4885TIP3    H138850   6.098   2.091   7.998 -1.0083 -0.6835 -1.5495
 4885TIP3    H238851   6.026   2.100   8.131  2.1311  1.0195  0.1392
 4886TIP3   OH238852   4.860   6.853   9.523  0.0304 -0.0079  0.1164
 4886TIP3    H138853   4.850   6.904   9.443  1.3003 -0.1053 -0.1253
 4886TIP3    H238854   4.771   6.833   9.550 -0.4242 -0.3989 -1.5627
 4887TIP3   OH238855   6.616   4.316   7.930 -0.0376  0.0988 -0.5910
 4887TIP3    H138856   6.667   4.393   7.904 -0.1256 -0.6098 -3.2171
 4887TIP3    H238857   6.655   4.244   7.880  1.6223 -2.1944  3.5438
 4888TIP3   OH238858   4.561   4.347   8.141 -0.2929  0.0570 -0.3637
 4888TIP3    H138859   4.499   4.338   8.213 -0.6220 -1.0774 -0.7659
 4888TIP3    H238860   4.630   4.284   8.161 -0.7083 -0.7345 -1.3397
 4889TIP3   OH238861   0.426   1.469   6.997  0.2005  0.6562  0.0637
 4889TIP3    H138862   0.513   1.464   6.958  0.4336  0.1383  0.6352
 4889TIP3    H238863   0.369   1.425   6.935  0.5761 -0.2070  0.3111
 4890TIP3   OH238864   2.452   5.173   9.360  0.2991  0.1095  0.1610
 4890TIP3    H138865   2.434   5.221   9.280  0.2616 -0.0535  0.0702
 4890TIP3    H238866   2.547   5.159   9.360  0.3709  0.5874  0.4213
 4891TIP3   OH238867   7.006   1.868   7.732 -0.1556  0.4955 -0.0007
 4891TIP3    H138868   7.065   1.794   7.718 -0.3770  0.4810 -0.9557
 4891TIP3    H238869   6.956   1.845   7.811 -0.0644 -0.2689 -0.1587
 4892TIP3   OH238870   1.973   7.391   9.254  0.3493 -0.3616 -0.8082
 4892TIP3    H138871   1.976   7.486   9.262  1.3159 -0.3216 -1.4884
 4892TIP3    H238872   2.032   7.371   9.182  1.3308 -1.5785  0.2745
 4893TIP3   OH238873   7.473   4.561   9.639  0.0913  0.2605  0.5094
 4893TIP3    H138874   7.560   4.601   9.641 -0.3758  1.2627  1.2537
 4893TIP3    H238875   7.491   4.467   9.641  1.2426  0.3187 -2.3284
 4894TIP3   OH238876   6.640   6.611   9.660  0.6046  0.1283  0.1276
 4894TIP3    H138877   6.586   6.682   9.693  0.9945 -0.3842  2.0099
 4894TIP3    H238878   6.730   6.643   9.669  0.7523 -0.3349  0.3779
 4895TIP3   OH238879   6.857   3.344   7.291  0.0776  0.3610 -0.7044
 4895TIP3    H138880   6.943   3.382   7.304  0.2840 -0.6139  0.9933
 4895TIP3    H238881   6.865   3.294   7.210  0.7771  1.1328 -1.1298
 4896TIP3   OH238882   6.422   7.254   8.914  0.2299  0.2761  0.4721
 4896TIP3    H138883   6.459   7.264   8.826 -0.9381  0.8625  0.0189
 4896TIP3    H238884   6.498   7.243   8.971  1.0100 -0.2172 -0.6144
 4897TIP3   OH238885   7.273   5.461   9.697  0.6383  0.2925 -0.2660
 4897TIP3    H138886   7.364   5.475   9.725  0.0574 -0.6423  2.4057
 4897TIP3    H238887   7.248   5.543   9.654  2.0441  1.4724  1.0680
 4898TIP3   OH238888   0.882   5.761   8.092  0.5623 -0.2931 -0.4841
 4898TIP3    H138889   0.882   5.786   8.000  0.6137 -0.5279 -0.5477
 4898TIP3    H238890   0.875   5.666   8.091 -1.9982 -0.1648 -0.2106
 4899TIP3   OH238891   0.488   0.829   7.551 -0.6167 -0.1353 -0.2517
 4899TIP3    H138892   0.440   0.779   7.486 -3.3215 -2.6055  3.2073
 4899TIP3    H238893   0.559   0.770   7.579 -0.8292 -0.0470  0.5068
 4900TIP3   OH238894   7.204   4.664   7.583 -0.6186  0.2982  0.4856
 4900TIP3    H138895   7.225   4.723   7.656 -0.4239  0.0847  0.6029
 4900TIP3    H238896   7.178   4.582   7.625  0.5559 -0.1821  0.3059
 4901TIP3   OH238897   0.509   0.338   8.200  0.4695 -0.3523  0.0528
 4901TIP3    H138898   0.464   0.361   8.282  0.0940 -1.0884  0.0608
 4901TIP3    H238899   0.442   0.348   8.133  0.6150 -0.3202 -0.0869
 4902TIP3   OH238900   3.353   4.674   7.831  0.0583  0.0959  0.0293
 4902TIP3    H138901   3.347   4.729   7.753  1.6545  0.9059  0.4400
 4902TIP3    H238902   3.339   4.735   7.904 -1.1792 -0.6135  0.4179
 4903TIP3   OH238903   6.811   6.209   9.201 -0.2281  0.2064  0.4165
 4903TIP3    H138904   6.804   6.117   9.177 -0.0301  0.2692  0.1109
 4903TIP3    H238905   6.721   6.242   9.198 -0.3021  0.0170  0.5564
 4904TIP3   OH238906   4.965   6.786   7.060 -0.0826 -0.4586  0.5905
 4904TIP3    H138907   5.059   6.767   7.062 -0.1907 -1.0203  0.4997
 4904TIP3    H238908   4.956   6.855   6.994  0.1085 -1.3469 -0.3850
 4905TIP3   OH238909   6.679   6.724   7.677  0.2695  0.3219 -0.0590
 4905TIP3    H138910   6.766   6.741   7.713 -0.1240  0.5793  0.8052
 4905TIP3    H238911   6.677   6.629   7.665  0.0515  0.0761  1.6317
 4906TIP3   OH238912   1.711   2.615   9.577 -0.4221 -0.2528 -0.3807
 4906TIP3    H138913   1.630   2.600   9.528 -0.1836  0.1286 -0.9070
 4906TIP3    H238914   1.752   2.690   9.534  0.2671 -0.5104 -0.2003
 4907TIP3   OH238915   3.322   0.975   7.821 -0.4853 -0.2144  0.3855
 4907TIP3    H138916   3.380   0.939   7.755  0.1846  0.9200  0.3320
 4907TIP3    H238917   3.348   0.930   7.902  0.7550  0.5619  0.4399
 4908TIP3   OH238918   4.714   3.912   7.399 -0.0206  0.2654  0.3152
 4908TIP3    H138919   4.683   3.876   7.482  1.9747  0.3420  1.1695
 4908TIP3    H238920   4.719   4.007   7.415  0.0362  0.3170 -0.0110
 4909TIP3   OH238921   5.170   3.382   8.926 -0.1349 -0.2761 -0.1494
 4909TIP3    H138922   5.101   3.422   8.874  0.2315 -0.7858 -1.0510
 4909TIP3    H238923   5.188   3.445   8.996 -0.7991  0.3116 -0.5083
 4910TIP3   OH238924   1.541   6.110   9.235 -0.6994  0.3735 -0.3987
 4910TIP3    H138925   1.561   6.084   9.145  0.9086 -0.3277  0.1267
 4910TIP3    H238926   1.615   6.165   9.262 -0.1918 -0.9404  1.0771
 4911TIP3   OH238927   2.380   4.954   9.243 -0.4233  0.2297  0.1421
 4911TIP3    H138928   2.475   4.951   9.257  0.0817  1.1174 -2.5572
 4911TIP3    H238929   2.352   5.036   9.284  0.3689  1.0490 -0.9124
 4912TIP3   OH238930   1.766   0.557   9.218  0.2949  0.6637 -1.0132
 4912TIP3    H138931   1.726   0.617   9.155 -1.0499  0.3995 -0.4574
 4912TIP3    H238932   1.743   0.593   9.303 -1.4926 -1.1452 -0.6358
 4913TIP3   OH238933   3.778   4.753   8.401 -0.1310 -0.7632 -0.0553
 4913TIP3    H138934   3.694   4.707   8.391  0.4308 -1.5111 -1.8021
 4913TIP3    H238935   3.794   4.754   8.495 -1.7245 -1.2965  0.2576
 4914TIP3   OH238936   0.343   4.626   7.675  0.0384 -0.4473 -0.5936
 4914TIP3    H138937   0.353   4.657   7.585  0.4022  0.2585 -0.3191
 4914TIP3    H238938   0.402   4.551   7.680  3.5167  2.0612  0.2309
 4915TIP3   OH238939   1.329   3.816   7.491 -0.1419 -0.0798 -0.4825
 4915TIP3    H138940   1.248   3.772   7.515 -0.3992  0.6566  0.0450
 4915TIP3    H238941   1.363   3.766   7.417 -0.4062 -1.1664  0.1052
 4916TIP3   OH238942   1.693   2.119   8.009 -0.6676  0.1921 -0.9510
 4916TIP3    H138943   1.603   2.088   8.016 -0.2910 -0.5400  1.3445
 4916TIP3    H238944   1.702   2.184   8.079  1.1728 -1.4214  0.4237
 4917TIP3   OH238945   0.487   5.531   6.775 -0.3862 -0.0494 -0.1483
 4917TIP3    H138946   0.430   5.485   6.836 -0.1988 -0.5274 -0.3281
 4917TIP3    H238947   0.427   5.579   6.718 -0.6054 -0.5403 -0.3324
 4918TIP3   OH238948   7.015   2.942   8.082 -0.1775  0.1450  0.2150
 4918TIP3    H138949   7.067   2.895   8.147 -0.3201 -0.0688  0.1749
 4918TIP3    H238950   6.924   2.927   8.109 -0.3069 -1.0491 -0.7759
 4919TIP3   OH238951   5.671   5.233   9.417 -0.5409  0.0364  0.1745
 4919TIP3    H138952   5.641   5.184   9.341 -1.1748 -0.3549  0.6689
 4919TIP3    H238953   5.684   5.323   9.385  1.6222 -0.6337 -0.9864
 4920TIP3   OH238954   4.742   6.083   9.544 -0.3212 -0.5755 -0.0543
 4920TIP3    H138955   4.655   6.081   9.585 -0.4403 -0.8522 -0.3161
 4920TIP3    H238956   4.731   6.137   9.466 -0.5720 -1.6573 -0.7809
 4921TIP3   OH238957   6.387   4.458   8.611 -0.2934  0.4343  0.1149
 4921TIP3    H138958   6.436   4.417   8.682 -0.2120  1.3773  0.6250
 4921TIP3    H238959   6.295   4.452   8.639 -0.3706 -0.2470 -0.2663
 4922TIP3   OH238960   4.571   5.819   8.823  0.0956 -0.0051  0.0464
 4922TIP3    H138961   4.574   5.724   8.839  0.0058  0.1958  1.4123
 4922TIP3    H238962   4.480   5.843   8.840 -0.0275  0.2442 -0.9047
 4923TIP3   OH238963   4.274   1.096   9.024 -0.0877  0.1620  0.1679
 4923TIP3    H138964   4.305   1.016   8.983 -0.6661  0.0980 -0.1508
 4923TIP3    H238965   4.310   1.093   9.113  0.7621  0.0679 -0.1693
 4924TIP3   OH238966   7.138   3.666   6.720 -0.3874  0.5531 -0.3771
 4924TIP3    H138967   7.122   3.608   6.646  0.7093  1.7313 -1.6032
 4924TIP3    H238968   7.197   3.617   6.777 -0.6923 -0.1063 -0.6209
 4925TIP3   OH238969   5.472   3.585   9.287 -0.2160 -0.5513  0.0662
 4925TIP3    H138970   5.458   3.555   9.377  2.0746  2.1359  1.4722
 4925TIP3    H238971   5.547   3.534   9.256  0.1162 -0.2493  0.3639
 4926TIP3   OH238972   6.001   5.856   7.283  0.0295 -0.1581 -0.0245
 4926TIP3    H138973   5.925   5.803   7.310 -0.0203 -1.1535 -1.9642
 4926TIP3    H238974   5.975   5.946   7.299 -0.9436 -0.5681  0.8064
 4927TIP3   OH238975   0.218   1.138   9.003  0.2030  0.0314 -0.4740
 4927TIP3    H138976   0.252   1.161   8.916  0.5039 -1.5975 -0.8113
 4927TIP3    H238977   0.171   1.217   9.031  0.1421  0.6212 -2.0880
 4928TIP3   OH238978   0.213   6.300   7.228  0.4397  0.1912 -0.0416
 4928TIP3    H138979   0.143   6.318   7.166  0.0410 -1.0030  0.0479
 4928TIP3    H238980   0.293   6.298   7.175  0.2255  0.1450 -0.3613
 4929TIP3   OH238981   4.127   7.021   9.287 -0.0229  0.3036  0.0980
 4929TIP3    H138982   4.173   7.105   9.280  1.6540 -0.6546 -1.1878
 4929TIP3    H238983   4.193   6.960   9.322 -0.5932 -0.9143 -0.8565
 4930TIP3   OH238984   3.294   3.182   9.208 -0.2691 -0.0594 -0.5081
 4930TIP3    H138985   3.338   3.171   9.124 -1.1649  1.5178 -1.2254
 4930TIP3    H238986   3.342   3.253   9.251  0.5057 -1.1975  0.5701
 4931TIP3   OH238987   6.173   5.505   7.257 -0.3657 -0.3442  0.2942
 4931TIP3    H138988   6.090   5.552   7.270  0.5658  1.2809  0.6820
 4931TIP3    H238989   6.224   5.562   7.200  2.4541  1.3953  4.0704
 4932TIP3   OH238990   3.630   4.439   9.645  0.3513 -0.5619  0.0517
 4932TIP3    H138991   3.602   4.460   9.734  1.6371  0.4114  0.2530
 4932TIP3    H238992   3.708   4.385   9.657  1.7728  1.2783 -0.4272
 4933TIP3   OH238993   5.989   7.020   9.005 -0.2712  0.0928 -0.6135
 4933TIP3    H138994   6.037   7.079   8.946 -1.1366  2.0400  0.5468
 4933TIP3    H238995   6.009   7.053   9.093 -0.8554 -1.3185  0.0744
 4934TIP3   OH238996   0.121   6.356   9.735  0.1462  0.4647 -0.2915
 4934TIP3    H138997   0.105   6.276   9.785 -0.4138 -0.9860 -2.6463
 4934TIP3    H238998   0.213   6.378   9.753  0.1889 -0.4586  0.6931
 4935TIP3   OH238999   5.983   7.394   9.142  0.1369 -0.2409 -0.0697
 4935TIP3    H139000   5.990   7.455   9.215  0.8681 -1.0696  0.5737
 4935TIP3    H239001   5.931   7.321   9.177  2.0947 -1.5407  0.2877
 4936TIP3   OH239002   5.740   1.547   7.886 -0.2729 -0.2170 -0.5052
 4936TIP3    H139003   5.650   1.555   7.852 -0.8052  0.9155  1.0366
 4936TIP3    H239004   5.735   1.479   7.953 -0.3805  0.9061  0.6763
 4937TIP3   OH239005   6.447   4.874   9.257  0.0971  0.2410  0.4236
 4937TIP3    H139006   6.524   4.887   9.311  0.3197  0.1828  0.1217
 4937TIP3    H239007   6.450   4.945   9.193  0.9401 -0.8543 -0.7962
 4938TIP3   OH239008   0.157   5.319   7.792 -0.1634  0.6849 -0.0340
 4938TIP3    H139009   0.128   5.235   7.829  0.8771  0.9164  1.3828
 4938TIP3    H239010   0.170   5.301   7.699 -1.1053 -0.4073  0.0279
 4939TIP3   OH239011   0.185   4.805   8.501 -0.2967  0.2890  0.4735
 4939TIP3    H139012   0.124   4.851   8.559  1.7236  3.2076  0.5056
 4939TIP3    H239013   0.132   4.737   8.460 -3.2552  1.8241  1.4313
 4940TIP3   OH239014   7.111   5.210   8.160  0.0400  0.1302  0.0141
 4940TIP3    H139015   7.151   5.276   8.104 -0.0672  0.4324  0.2939
 4940TIP3    H239016   7.026   5.246   8.184 -0.7278 -0.8158 -1.1549
 4941TIP3   OH239017   0.306   4.314   7.660  0.2607 -0.3849 -0.1285
 4941TIP3    H139018   0.291   4.324   7.754  1.1116  0.7362 -0.1013
 4941TIP3    H239019   0.229   4.354   7.619  0.9753  1.2545  0.0712
 4942TIP3   OH239020   4.079   7.136   7.103 -0.4397  0.6821  0.5397
 4942TIP3    H139021   4.022   7.135   7.025 -0.5614  2.6206  0.5461
 4942TIP3    H239022   4.156   7.186   7.076  0.3399 -0.1579  1.1565
 4943TIP3   OH239023   3.426   3.780   9.465 -0.2356 -0.4973  0.2342
 4943TIP3    H139024   3.467   3.754   9.548  1.8111  0.1804 -0.4967
 4943TIP3    H239025   3.364   3.849   9.488  0.0485 -0.5689  1.2326
 4944TIP3   OH239026   1.012   6.377   7.897 -0.6060  0.0428  0.1125
 4944TIP3    H139027   0.929   6.390   7.943  0.4120  1.3485  1.6971
 4944TIP3    H239028   0.987   6.349   7.809 -2.6846 -0.7011  0.8760
 4945TIP3   OH239029   2.776   1.967   8.891 -0.0352  0.1635 -0.0456
 4945TIP3    H139030   2.755   1.948   8.982 -1.7273  0.5293 -0.3334
 4945TIP3    H239031   2.693   1.960   8.845  0.5909  1.0998 -1.3790
 4946TIP3   OH239032   2.605   4.337   8.592  0.1652  0.2739  0.2048
 4946TIP3    H139033   2.692   4.357   8.628  0.4472  1.2916 -0.9721
 4946TIP3    H239034   2.573   4.421   8.559 -0.6645 -0.3581 -0.6613
 4947TIP3   OH239035   3.284   5.361   8.815 -0.1107  0.5412  0.1337
 4947TIP3    H139036   3.289   5.267   8.834 -0.0171  0.5451  0.1287
 4947TIP3    H239037   3.308   5.368   8.723 -0.3008  0.5511  0.0835
 4948TIP3   OH239038   3.294   4.837   7.601 -0.0941  0.5422 -0.1731
 4948TIP3    H139039   3.252   4.907   7.650 -0.4281  0.1392  0.1274
 4948TIP3    H239040   3.374   4.876   7.566  0.7031  0.5517  1.5682
 4949TIP3   OH239041   4.957   6.999   9.073 -0.0328 -0.1092 -0.0093
 4949TIP3    H139042   4.886   7.033   9.018  0.4052  0.3587 -0.2853
 4949TIP3    H239043   4.954   6.904   9.059  0.0339 -0.0055 -0.8051
 4950TIP3   OH239044   4.889   0.524   8.850 -0.3253  0.1082  0.2818
 4950TIP3    H139045   4.815   0.559   8.899  0.6000  2.6577 -0.0005
 4950TIP3    H239046   4.850   0.491   8.769 -1.1111  2.9430 -0.6402
 4951TIP3   OH239047   6.673   6.066   8.425  0.0716 -0.0973 -0.5174
 4951TIP3    H139048   6.624   6.138   8.462 -0.9904 -0.9115 -0.2882
 4951TIP3    H239049   6.610   5.994   8.418  0.9676 -0.8579 -1.1855
 4952TIP3   OH239050   7.428   2.918   7.711 -0.0642  0.2902 -0.1520
 4952TIP3    H139051   7.357   2.968   7.669 -0.0296  0.1293 -0.4018
 4952TIP3    H239052   7.383   2.853   7.765 -0.1099  0.6889  0.2910
 4953TIP3   OH239053   0.288   4.665   8.963 -0.0084 -0.0018 -0.4688
 4953TIP3    H139054   0.194   4.681   8.961 -0.0528 -0.0674  0.6527
 4953TIP3    H239055   0.327   4.753   8.968 -0.1116 -0.0264  1.4686
 4954TIP3   OH239056   0.176   5.439   8.782  0.1171 -0.0943 -0.0183
 4954TIP3    H139057   0.215   5.483   8.706  1.0872 -0.1088  0.4624
 4954TIP3    H239058   0.172   5.347   8.756  0.2874 -0.0741 -0.1139
 4955TIP3   OH239059   1.881   1.064   8.067  0.4595  0.3651 -0.2203
 4955TIP3    H139060   1.812   1.049   8.131 -0.8241 -0.4556 -1.7404
 4955TIP3    H239061   1.894   0.979   8.025 -0.3525  1.3565 -2.6072
 4956TIP3   OH239062   6.537   3.604   9.000  0.7388 -0.1374  0.2898
 4956TIP3    H139063   6.514   3.598   9.093 -0.1524  0.4359  0.1252
 4956TIP3    H239064   6.593   3.528   8.984  0.1414 -0.7753  1.0913
 4957TIP3   OH239065   7.107   3.456   7.752 -0.0580  0.4929  0.5687
 4957TIP3    H139066   7.148   3.491   7.831 -0.4913  1.3856  0.4054
 4957TIP3    H239067   7.177   3.408   7.708  0.3670  0.5833  1.1390
 4958TIP3   OH239068   6.624   3.097   9.063  0.5810  0.2962 -0.1252
 4958TIP3    H139069   6.629   3.192   9.070  0.6261  0.2797  0.0673
 4958TIP3    H239070   6.550   3.072   9.119  1.3941  0.0995  0.9054
 4959TIP3   OH239071   1.383   0.419   7.962  0.2036  0.0126  0.5098
 4959TIP3    H139072   1.383   0.432   7.867 -0.1586  3.2290  0.8277
 4959TIP3    H239073   1.438   0.342   7.976  1.1982  0.1134 -2.2389
 4960TIP3   OH239074   2.153   6.576   9.300 -0.0422 -0.0576  0.2419
 4960TIP3    H139075   2.063   6.609   9.297 -0.0075  0.0512  0.4179
 4960TIP3    H239076   2.174   6.571   9.393 -0.0635 -0.6232  0.2192
 4961TIP3   OH239077   6.796   3.707   9.131 -0.2262 -0.1907 -0.5429
 4961TIP3    H139078   6.761   3.664   9.210 -1.3153  0.1305 -0.8310
 4961TIP3    H239079   6.885   3.672   9.123  0.5731  1.0598  1.7957
 4962TIP3   OH239080   6.671   5.551   9.328 -0.3276 -0.3758  0.3265
 4962TIP3    H139081   6.709   5.636   9.350 -0.3497 -0.1501 -0.4848
 4962TIP3    H239082   6.735   5.488   9.359  0.5387 -0.0107 -0.6439
 4963TIP3   OH239083   1.358   5.163   8.618 -0.2787  0.1012  0.2925
 4963TIP3    H139084   1.344   5.071   8.639 -0.3634  0.3464  1.3933
 4963TIP3    H239085   1.449   5.180   8.643  0.7823 -0.4066 -2.7769
 4964TIP3   OH239086   3.163   4.884   7.379 -0.4332  1.1712  0.2071
 4964TIP3    H139087   3.070   4.864   7.394 -0.2545  1.2431  1.4883
 4964TIP3    H239088   3.209   4.839   7.449  0.6073  0.3641 -0.9604
 4965TIP3   OH239089   2.011   3.426   8.248  0.0568  0.3864  0.3623
 4965TIP3    H139090   1.999   3.333   8.228 -0.0786  0.6718 -0.9731
 4965TIP3    H239091   2.098   3.431   8.286 -0.4063 -0.4421  1.5900
 4966TIP3   OH239092   6.400   7.064   8.440 -0.5152 -0.7974  0.7173
 4966TIP3    H139093   6.398   6.977   8.480 -1.2369 -2.1033 -1.9137
 4966TIP3    H239094   6.308   7.083   8.419 -0.1005 -0.6856 -1.1989
 4967TIP3   OH239095   3.980   4.372   8.054  0.5463  0.6248  0.4623
 4967TIP3    H139096   3.988   4.446   8.113  0.4255  0.6249  0.4767
 4967TIP3    H239097   3.889   4.371   8.027  0.4670  0.2733  0.7326
 4968TIP3   OH239098   0.057   4.720   7.662 -0.0168  0.0250 -0.4740
 4968TIP3    H139099   0.152   4.713   7.652 -0.1379 -0.7773 -1.1470
 4968TIP3    H239100   0.028   4.771   7.586 -0.3060 -1.2399 -1.2391
 4969TIP3   OH239101   4.968   2.392   9.419  0.3650  0.1109  0.2262
 4969TIP3    H139102   5.038   2.456   9.406  0.7299  0.0382  1.7447
 4969TIP3    H239103   5.006   2.325   9.476 -0.4836 -0.7089 -0.1427
 4970TIP3   OH239104   4.619   6.616   8.811 -0.0212 -0.0138 -0.0653
 4970TIP3    H139105   4.540   6.567   8.787  0.2335  0.3113 -1.6591
 4970TIP3    H239106   4.654   6.647   8.728 -0.1646  2.9033  0.8537
 4971TIP3   OH239107   3.370   0.097   8.376  0.7085  0.3598  0.5412
 4971TIP3    H139108   3.432   0.132   8.311  0.0459  1.2144  0.3622
 4971TIP3    H239109   3.423   0.086   8.455  0.9024  1.9735  0.6725
 4972TIP3   OH239110   3.821   7.115   9.599 -0.2691 -0.6072 -0.1787
 4972TIP3    H139111   3.858   7.143   9.515 -1.2850  0.3398 -0.3345
 4972TIP3    H239112   3.862   7.030   9.616  1.1482 -0.0924 -0.8410
 4973TIP3   OH239113   0.799   6.290   7.395  0.8080 -0.6208 -0.4524
 4973TIP3    H139114   0.787   6.354   7.325 -0.4428  0.0449  0.3315
 4973TIP3    H239115   0.766   6.208   7.359 -0.2885 -0.1739 -0.4950
 4974TIP3   OH239116   5.441   7.420   9.348  0.0984 -0.3862 -0.4296
 4974TIP3    H139117   5.412   7.498   9.302  0.6770  0.5063  0.6766
 4974TIP3    H239118   5.516   7.448   9.400 -0.3182 -1.4126  0.8046
 4975TIP3   OH239119   0.652   3.088   8.533  0.0044 -0.3478  0.1912
 4975TIP3    H139120   0.637   3.108   8.440 -1.1767  0.2981  0.5032
 4975TIP3    H239121   0.674   2.995   8.534  3.4753  0.2840 -1.0805
 4976TIP3   OH239122   6.763   0.195   6.710  0.7431 -0.1443 -0.0745
 4976TIP3    H139123   6.806   0.146   6.640 -1.8216 -0.7970 -1.2922
 4976TIP3    H239124   6.675   0.158   6.715  0.1811  1.3074  2.1052
 4977TIP3   OH239125   0.310   0.471   8.027 -0.2511 -0.0183 -0.3676
 4977TIP3    H139126   0.353   0.553   8.052 -1.6087  0.6441 -0.1003
 4977TIP3    H239127   0.325   0.464   7.933 -0.4486  0.7567 -0.4684
 4978TIP3   OH239128   3.930   1.308   9.437  0.4833  0.1216  0.0636
 4978TIP3    H139129   3.869   1.258   9.383 -0.5990 -0.0611  1.4024
 4978TIP3    H239130   4.012   1.259   9.431 -0.3180 -1.3441  0.6459
 4979TIP3   OH239131   2.899   3.931   9.473 -0.0746  0.0196  0.0829
 4979TIP3    H139132   2.896   3.938   9.377 -0.2986  0.3792  0.1152
 4979TIP3    H239133   2.971   3.869   9.490 -0.0774 -0.0981 -0.3180
 4980TIP3   OH239134   0.477   5.364   8.970 -0.2912  0.3235  0.2550
 4980TIP3    H139135   0.529   5.330   9.042 -1.2563 -1.3282  0.2192
 4980TIP3    H239136   0.477   5.459   8.983  2.3090  0.3581  0.5031
 4981TIP3   OH239137   6.346   3.750   8.194  0.0483 -0.2942 -1.0970
 4981TIP3    H139138   6.293   3.824   8.165 -0.7251  0.4620  1.8942
 4981TIP3    H239139   6.288   3.675   8.190 -0.3453 -0.0193 -0.6730
 4982TIP3   OH239140   7.450   3.758   8.445 -0.5952 -0.2812  0.0875
 4982TIP3    H139141   7.465   3.665   8.426  0.1809 -0.0052 -0.6967
 4982TIP3    H239142   7.497   3.774   8.526 -0.1853 -0.4171 -0.1237
 4983TIP3   OH239143   6.340   2.301   7.279 -0.1155  0.3556 -0.2276
 4983TIP3    H139144   6.301   2.237   7.218 -1.1714  1.3957 -0.6912
 4983TIP3    H239145   6.293   2.382   7.261  1.4103  1.3532  0.1371
 4984TIP3   OH239146   2.453   4.517   7.900 -0.0849 -0.3120  0.3180
 4984TIP3    H139147   2.441   4.571   7.978 -0.6391 -0.1699  0.1358
 4984TIP3    H239148   2.392   4.553   7.835 -1.4857 -1.9798  0.6122
 4985TIP3   OH239149   4.281   1.573   9.590 -0.0307  0.1452 -0.0358
 4985TIP3    H139150   4.274   1.614   9.677  1.2474 -1.7414  1.0524
 4985TIP3    H239151   4.346   1.627   9.544 -0.5812  1.0631  0.2378
 4986TIP3   OH239152   0.717   5.145   8.350  0.0508  0.2139 -0.0173
 4986TIP3    H139153   0.709   5.050   8.348  0.3041  0.1162  1.8663
 4986TIP3    H239154   0.653   5.174   8.415  1.4137  1.1060  0.9910
 4987TIP3   OH239155   3.355   6.680   9.145  1.4129  0.2325  0.2244
 4987TIP3    H139156   3.433   6.626   9.158 -0.1012 -1.8029  1.4850
 4987TIP3    H239157   3.282   6.618   9.149 -0.3169  2.1120 -0.4552
 4988TIP3   OH239158   3.932   5.909   8.655 -0.2935 -0.6193  0.1666
 4988TIP3    H139159   3.929   5.984   8.595 -1.3366 -0.1351  0.7981
 4988TIP3    H239160   3.905   5.835   8.601  3.4822 -1.1836 -1.2529
 4989TIP3   OH239161   0.923   1.114   7.617 -0.4231  0.8574 -0.4075
 4989TIP3    H139162   0.922   1.164   7.699  1.3012  0.1990  0.0480
 4989TIP3    H239163   0.871   1.037   7.636  1.1245  0.0065  0.5778
 4990TIP3   OH239164   3.511   1.131   9.489 -0.3375  0.2880  0.6479
 4990TIP3    H139165   3.598   1.137   9.451 -0.1560  0.1288  1.0432
 4990TIP3    H239166   3.456   1.182   9.429 -0.2487 -0.8102 -0.4103
 4991TIP3   OH239167   6.843   3.962   8.176  0.5944  0.3753 -0.3529
 4991TIP3    H139168   6.866   3.923   8.092 -0.4257  1.3090 -1.0876
 4991TIP3    H239169   6.752   3.934   8.191 -0.1023  2.2449 -0.8150
 4992TIP3   OH239170   0.600   6.925   8.222 -0.4946  0.0589  0.4269
 4992TIP3    H139171   0.664   6.867   8.263 -0.0514  0.2251 -0.0283
 4992TIP3    H239172   0.516   6.881   8.237 -0.0988 -1.0947 -0.5395
 4993TIP3   OH239173   2.641   4.830   7.804  0.0953  0.2369  0.0305
 4993TIP3    H139174   2.578   4.898   7.827 -1.4025 -0.8512 -0.7237
 4993TIP3    H239175   2.652   4.838   7.709 -0.8499 -1.1706 -0.2185
 4994TIP3   OH239176   0.507   0.339   7.144  0.3701  0.4719  0.0423
 4994TIP3    H139177   0.516   0.374   7.232 -0.2271 -2.0190  1.1893
 4994TIP3    H239178   0.587   0.365   7.098  0.3040  2.5312  1.0051
 4995TIP3   OH239179   1.933   4.835   7.787 -0.1520 -0.7089  0.3266
 4995TIP3    H139180   1.938   4.899   7.857 -0.3371 -1.8409  1.4015
 4995TIP3    H239181   2.022   4.832   7.751 -0.3913  0.9524 -0.5122
 4996TIP3   OH239182   1.679   2.984   9.742 -0.4572  0.1661  0.1662
 4996TIP3    H139183   1.774   2.975   9.734 -0.6774 -0.6118 -2.9125
 4996TIP3    H239184   1.662   2.976   9.836  2.2053 -3.1437  0.5683
 4997TIP3   OH239185   0.108   3.335   8.229 -0.1843 -0.3864 -0.3296
 4997TIP3    H139186   0.027   3.367   8.189 -1.0359 -0.0046  1.6370
 4997TIP3    H239187   0.092   3.242   8.243 -0.1371 -0.3838 -0.2608
 4998TIP3   OH239188   0.274   5.629   8.995 -0.4518  0.3097 -0.1379
 4998TIP3    H139189   0.256   5.549   8.947 -0.2621 -0.8257  1.6122
 4998TIP3    H239190   0.349   5.668   8.950 -1.2983  0.1661 -1.7323
 4999TIP3   OH239191   5.571   4.418   8.280  0.0569 -0.1691 -0.4346
 4999TIP3    H139192   5.529   4.473   8.214  3.0236  1.2992 -1.2995
 4999TIP3    H239193   5.543   4.455   8.364 -4.0603 -2.2809 -0.6183
 5000TIP3   OH239194   3.639   3.778   8.437 -0.3077  0.5067  0.1179
 5000TIP3    H139195   3.603   3.865   8.451  0.6437  1.1207 -0.9948
 5000TIP3    H239196   3.733   3.792   8.427 -0.0463 -0.7386  0.5626
 5001TIP3   OH239197   0.790   5.254   8.798  0.2413  0.5009  0.3824
 5001TIP3    H139198   0.813   5.163   8.778  1.1249  0.8397 -0.2455
 5001TIP3    H239199   0.758   5.252   8.888  0.4951 -0.3922  0.4628
 5002TIP3   OH239200   6.947   1.370   8.192 -0.2806  0.2819  0.0334
 5002TIP3    H139201   6.870   1.428   8.194 -0.0929  0.5283  0.1981
 5002TIP3    H239202   7.021   1.429   8.207  0.1070  0.3210 -1.7825
 5003TIP3   OH239203   2.734   7.238   7.708 -0.5178  0.4236 -0.3028
 5003TIP3    H139204   2.828   7.254   7.711 -0.4246 -0.0062 -0.6982
 5003TIP3    H239205   2.700   7.306   7.649 -0.2145 -0.3962 -1.4746
 5004TIP3   OH239206   2.468   3.356   9.574 -0.0941  0.1032  0.3074
 5004TIP3    H139207   2.442   3.278   9.622  0.4822  1.1094  2.3515
 5004TIP3    H239208   2.561   3.342   9.553 -0.3923 -0.4190 -0.7700
 5005TIP3   OH239209   5.526   1.094   8.977 -0.0972  0.3074  0.4412
 5005TIP3    H139210   5.435   1.123   8.988 -0.9588 -1.4693 -1.3577
 5005TIP3    H239211   5.562   1.152   8.910  0.3195  1.3256  1.4930
 5006TIP3   OH239212   2.259   6.723   7.060 -0.2068  0.2520  0.2282
 5006TIP3    H139213   2.276   6.672   6.981 -0.3564 -0.5764  0.7198
 5006TIP3    H239214   2.341   6.770   7.077  0.2630 -0.5703  0.3019
 5007TIP3   OH239215   1.074   5.878   7.326 -0.1866  0.3695  0.3810
 5007TIP3    H139216   1.009   5.809   7.309 -0.3472  0.3227  1.1187
 5007TIP3    H239217   1.156   5.831   7.336  0.2092  0.5299 -1.7245
 5008TIP3   OH239218   3.112   2.887   8.102  0.2912 -0.6766 -0.4369
 5008TIP3    H139219   3.149   2.802   8.124 -0.3487  0.0104  4.2328
 5008TIP3    H239220   3.185   2.948   8.112 -0.1363 -0.2745  0.3278
 5009TIP3   OH239221   6.823   0.957   6.515  0.5767  0.3032 -0.0129
 5009TIP3    H139222   6.750   0.903   6.545 -1.1551  1.7571 -1.4326
 5009TIP3    H239223   6.848   1.008   6.593 -0.3133  0.2044  0.3474
 5010TIP3   OH239224   4.335   4.568   9.704 -0.1964  0.5065 -0.4522
 5010TIP3    H139225   4.263   4.565   9.641 -0.3031  0.8657 -0.3526
 5010TIP3    H239226   4.375   4.654   9.690 -1.2713  1.3156  1.1179
 5011TIP3   OH239227   1.686   1.299   8.663 -0.6206  0.1822 -0.1437
 5011TIP3    H139228   1.679   1.391   8.688 -0.5203  0.1583 -0.0253
 5011TIP3    H239229   1.640   1.252   8.732  1.0344 -0.0070  0.8761
 5012TIP3   OH239230   0.045   1.081   9.606  0.0325  0.4502 -0.4643
 5012TIP3    H139231   0.124   1.030   9.590  0.5727  0.6993  1.2466
 5012TIP3    H239232  -0.013   1.023   9.655 -0.5075  0.5665 -0.9422
 5013TIP3   OH239233   1.916   5.594   9.701  0.3483  0.1255  0.2211
 5013TIP3    H139234   1.963   5.661   9.751  0.8253 -0.3364  0.4092
 5013TIP3    H239235   1.985   5.539   9.665  0.1254  1.3129 -2.2616
 5014TIP3   OH239236   3.341   7.233   7.982  0.0427 -0.2132 -0.4018
 5014TIP3    H139237   3.379   7.147   8.002 -2.4649 -1.2448  0.3889
 5014TIP3    H239238   3.310   7.265   8.066 -1.2036  0.3323 -1.0457
 5015TIP3   OH239239   5.209   7.269   9.298 -0.3884  0.1290  0.3130
 5015TIP3    H139240   5.149   7.322   9.245  0.9597 -0.2878 -1.7294
 5015TIP3    H239241   5.264   7.332   9.343 -0.3461  0.4851 -0.2322
 5016TIP3   OH239242   6.227   4.867   7.755  0.1987  0.4314 -0.2922
 5016TIP3    H139243   6.191   4.890   7.841  0.5766  0.1010 -0.0443
 5016TIP3    H239244   6.220   4.947   7.704  0.5096  0.7916  0.2290
 5017TIP3   OH239245   6.105   3.750   7.612  0.5481  0.1130 -0.5516
 5017TIP3    H139246   6.186   3.770   7.659  0.1673 -0.8017  0.5294
 5017TIP3    H239247   6.135   3.724   7.524  1.4091 -0.0843 -0.2134
 5018TIP3   OH239248   4.602   0.289   9.580 -0.0361  0.4280 -0.1186
 5018TIP3    H139249   4.621   0.212   9.634  1.7815  2.5497  2.5639
 5018TIP3    H239250   4.510   0.309   9.599  0.2785  0.5248  1.4792
 5019TIP3   OH239251   6.461   0.301   7.425 -0.4046  0.2454  0.1364
 5019TIP3    H139252   6.387   0.361   7.421 -1.5599 -1.1099  0.3297
 5019TIP3    H239253   6.421   0.215   7.440  0.9853 -0.9264 -2.1987
 5020TIP3   OH239254   6.825   3.705   7.976  0.3027  0.6066  0.0792
 5020TIP3    H139255   6.912   3.744   7.989  0.4623  0.6921 -1.1305
 5020TIP3    H239256   6.823   3.681   7.883 -1.1767  1.1155 -0.0488
 5021TIP3   OH239257   1.624   2.454   7.824  0.0094 -0.0880  0.0990
 5021TIP3    H139258   1.620   2.548   7.805 -2.2738  0.0864  1.0419
 5021TIP3    H239259   1.611   2.448   7.919 -0.7319 -1.3596 -0.0559
 5022TIP3   OH239260   5.037   4.151   8.741  0.2158 -0.3280 -0.3814
 5022TIP3    H139261   5.112   4.093   8.751  1.1086  0.7305 -0.7716
 5022TIP3    H239262   5.068   4.235   8.774 -0.8075  0.1186 -0.5425
 5023TIP3   OH239263   2.971   0.433   7.547  0.3391  0.7486 -0.1349
 5023TIP3    H139264   2.942   0.516   7.510 -2.6399 -0.2707 -0.3212
 5023TIP3    H239265   2.998   0.454   7.636 -1.8073  1.7107  0.3321
 5024TIP3   OH239266   2.981   6.212   8.499 -0.4325  0.0055  0.5126
 5024TIP3    H139267   3.048   6.241   8.437 -0.0088  0.9558  1.3767
 5024TIP3    H239268   2.909   6.183   8.444  0.7190 -1.1818 -0.4501
 5025TIP3   OH239269   5.753   2.667   6.836  0.4963  0.0770 -0.0416
 5025TIP3    H139270   5.684   2.602   6.821 -0.8218  1.1662  1.0149
 5025TIP3    H239271   5.832   2.628   6.798 -0.7239 -1.1411 -1.4384
 5026TIP3   OH239272   3.306   3.640   9.254  0.1588 -0.7047 -0.0342
 5026TIP3    H139273   3.369   3.669   9.188  2.7358 -3.5225  0.9736
 5026TIP3    H239274   3.339   3.677   9.336 -1.6346  0.7284  0.1193
 5027TIP3   OH239275   6.723   5.190   6.746 -0.3122  0.0505  0.2054
 5027TIP3    H139276   6.751   5.214   6.834  1.3726  0.2385 -0.3368
 5027TIP3    H239277   6.704   5.096   6.752 -1.1503  0.2525  0.9674
 5028TIP3   OH239278   2.952   0.751   7.048 -0.2882  0.3559  0.2573
 5028TIP3    H139279   3.029   0.769   6.993  2.0555 -1.3799  2.7117
 5028TIP3    H239280   2.897   0.695   6.994  1.9889 -1.4263 -0.3682
 5029TIP3   OH239281   3.233   3.145   8.446 -0.2520  0.2003 -0.4639
 5029TIP3    H139282   3.325   3.165   8.465  0.2153 -1.4019 -0.8993
 5029TIP3    H239283   3.232   3.052   8.424 -1.7585  0.4971 -1.9249
 5030TIP3   OH239284   6.723   2.387   8.595 -0.0218  0.4434  0.0322
 5030TIP3    H139285   6.758   2.394   8.506 -1.4977 -0.2498 -0.6450
 5030TIP3    H239286   6.746   2.299   8.623  0.4377  0.6600  0.3380
 5031TIP3   OH239287   3.727   6.336   7.862 -0.6184  0.8183  0.1895
 5031TIP3    H139288   3.651   6.380   7.823 -0.4177  1.1474  0.1611
 5031TIP3    H239289   3.689   6.269   7.918 -0.8991 -0.0237 -0.9719
 5032TIP3   OH239290   1.799   3.319   8.875  0.5311  0.5353 -0.1334
 5032TIP3    H139291   1.798   3.385   8.945  1.8927 -0.6075  1.0211
 5032TIP3    H239292   1.737   3.253   8.905  1.3629 -0.1181  0.1747
 5033TIP3   OH239293   3.177   4.730   9.350 -0.1390 -0.4425  0.9770
 5033TIP3    H139294   3.151   4.663   9.286  1.7415 -0.3752  0.0640
 5033TIP3    H239295   3.139   4.811   9.315  1.4404 -0.2789 -0.5311
 5034TIP3   OH239296   3.707   0.400   8.002 -0.0403  0.4839 -0.5532
 5034TIP3    H139297   3.645   0.388   7.930 -1.0523  1.9219  0.0390
 5034TIP3    H239298   3.787   0.429   7.960 -0.1894 -0.0216 -1.2055
 5035TIP3   OH239299   1.588   2.331   9.178 -0.2679  0.5421 -0.2517
 5035TIP3    H139300   1.658   2.361   9.120 -1.0932  1.5864 -0.7394
 5035TIP3    H239301   1.608   2.238   9.194  0.8746  0.6670 -0.8796
 5036TIP3   OH239302   0.309   4.553   8.270 -0.5374  0.4642  0.4135
 5036TIP3    H139303   0.268   4.499   8.339  0.4608 -0.9602 -0.0613
 5036TIP3    H239304   0.242   4.618   8.248 -0.7108  1.3673  3.1094
 5037TIP3   OH239305   2.918   7.501   9.306  0.6724 -0.6033  0.1244
 5037TIP3    H139306   2.965   7.569   9.354 -0.0480  0.4426 -0.5989
 5037TIP3    H239307   2.863   7.550   9.245 -0.5028 -1.8289  0.1758
 5038TIP3   OH239308   1.376   6.060   7.600  0.1198  0.0165 -0.2898
 5038TIP3    H139309   1.324   6.141   7.602 -0.0864 -0.1181  1.5122
 5038TIP3    H239310   1.425   6.065   7.518 -1.4201  0.9819 -1.1984
 5039TIP3   OH239311   2.044   3.577   7.593 -0.7443  0.2421  0.4075
 5039TIP3    H139312   2.013   3.654   7.545 -1.6253 -0.1353  0.3517
 5039TIP3    H239313   2.003   3.503   7.548 -0.1173 -0.2469  0.6252
 5040TIP3   OH239314   0.661   6.069   7.992 -0.1294  0.2889  0.9508
 5040TIP3    H139315   0.640   6.016   8.069 -0.1595  0.1680  0.8594
 5040TIP3    H239316   0.757   6.074   7.991 -0.1384  0.5069  1.1422
 5041TIP3   OH239317   0.563   6.637   8.141 -0.2041 -0.2221  0.0118
 5041TIP3    H139318   0.520   6.611   8.223  0.8089 -0.5479  0.4561
 5041TIP3    H239319   0.491   6.643   8.078 -0.8831 -0.9564  0.6775
 5042TIP3   OH239320   2.032   4.144   8.203 -0.0076  0.7552 -0.1881
 5042TIP3    H139321   2.110   4.133   8.258 -0.8790 -1.5035  0.6753
 5042TIP3    H239322   2.059   4.112   8.117 -0.3564 -1.4367  0.4765
 5043TIP3   OH239323   7.437   0.055   6.933  0.6314  0.4707  0.2204
 5043TIP3    H139324   7.421  -0.033   6.900  0.1828 -0.5833  3.0270
 5043TIP3    H239325   7.532   0.065   6.928  0.8998 -0.9805  1.6809
 5044TIP3   OH239326   5.629   0.022   8.770 -0.2966 -0.5758  0.6172
 5044TIP3    H139327   5.535   0.003   8.768 -0.2003 -1.1937  1.6708
 5044TIP3    H239328   5.650   0.030   8.863  0.6607 -0.2442  0.3816
 5045TIP3   OH239329   5.933   4.570   7.578  0.3767  0.1177  0.6315
 5045TIP3    H139330   6.013   4.618   7.595 -0.0122  1.1042 -0.2479
 5045TIP3    H239331   5.914   4.585   7.486 -0.2672 -0.9568  0.5660
 5046TIP3   OH239332   0.147   0.644   8.642 -0.1421 -0.7318 -0.9759
 5046TIP3    H139333   0.234   0.681   8.658 -0.3223 -1.4528  2.2362
 5046TIP3    H239334   0.087   0.702   8.690 -1.2992 -1.0600 -1.9702
 5047TIP3   OH239335   5.096   1.007   8.472  0.9307  0.0889  0.0015
 5047TIP3    H139336   5.155   0.932   8.470  1.3835  0.4250  0.4051
 5047TIP3    H239337   5.112   1.048   8.557 -0.2685 -0.1112  0.3359
 5048TIP3   OH239338   3.364   5.934   8.986  1.4600 -0.8678 -0.0783
 5048TIP3    H139339   3.426   5.863   9.003  0.5057 -1.6577  0.1945
 5048TIP3    H239340   3.391   5.969   8.902  3.4759  0.1127  0.9121
 5049TIP3   OH239341   3.154   1.442   7.875 -0.0472 -0.1555  0.6396
 5049TIP3    H139342   3.087   1.388   7.917 -0.7781 -0.8006 -1.2571
 5049TIP3    H239343   3.221   1.379   7.848 -1.3106 -0.3341 -2.3721
 5050TIP3   OH239344   6.759   7.292   6.961  0.5969 -0.5549 -0.8128
 5050TIP3    H139345   6.847   7.319   6.987 -0.2097  0.9113  0.5458
 5050TIP3    H239346   6.738   7.345   6.884  0.3217  0.2878 -0.1774
 5051TIP3   OH239347   1.548   1.781   8.931 -0.6008 -0.4164  0.1432
 5051TIP3    H139348   1.623   1.836   8.952  0.9566 -2.3762 -0.1022
 5051TIP3    H239349   1.487   1.797   9.003 -1.2660  3.2777 -1.0085
 5052TIP3   OH239350   0.800   6.568   9.072  0.1868  1.0810 -0.8357
 5052TIP3    H139351   0.890   6.548   9.095  0.2544  0.8530 -1.2888
 5052TIP3    H239352   0.781   6.650   9.119  1.0333  1.7973 -1.7093
 5053TIP3   OH239353   3.057   4.663   8.950  0.2282 -0.0304 -0.3778
 5053TIP3    H139354   3.146   4.636   8.929  0.7982  0.1233  1.6541
 5053TIP3    H239355   3.066   4.751   8.987 -0.9299  0.4994 -1.2580
 5054TIP3   OH239356   2.948   6.971   8.963 -0.3934 -0.0844  0.1444
 5054TIP3    H139357   3.044   6.974   8.957 -0.2387 -0.7670  1.6789
 5054TIP3    H239358   2.919   6.949   8.875  0.8513  0.2700 -0.3765
 5055TIP3   OH239359   4.487   3.482   8.631 -0.6887  0.2098  0.1695
 5055TIP3    H139360   4.578   3.455   8.644 -0.8838 -1.6650 -1.6958
 5055TIP3    H239361   4.457   3.508   8.718  2.0386  2.4495  0.5760
 5056TIP3   OH239362   3.523   1.431   8.273  0.1538  0.0659 -0.0592
 5056TIP3    H139363   3.608   1.476   8.269  0.4405 -0.5667 -1.5346
 5056TIP3    H239364   3.527   1.380   8.354  1.1920  0.0280 -0.1182
 5057TIP3   OH239365   4.562   0.274   8.952  0.0177 -0.2190  0.1085
 5057TIP3    H139366   4.482   0.307   8.909  0.1116 -1.3385 -0.9801
 5057TIP3    H239367   4.627   0.273   8.883  1.2279  1.3367  1.1484
 5058TIP3   OH239368   7.184   0.754   6.718  0.1059  0.2718  0.3493
 5058TIP3    H139369   7.132   0.835   6.712 -0.8426 -0.3810 -0.8328
 5058TIP3    H239370   7.257   0.777   6.775 -0.0793  1.9955 -0.0294
 5059TIP3   OH239371   5.734   3.168   8.501  0.4852 -0.3465  0.4505
 5059TIP3    H139372   5.724   3.223   8.423 -1.3944 -1.9210 -0.5032
 5059TIP3    H239373   5.783   3.092   8.470 -1.3645 -1.5800  0.4244
 5060TIP3   OH239374   2.925   5.062   9.583  0.0606 -0.2882  0.0518
 5060TIP3    H139375   2.977   5.015   9.517 -1.8322 -1.5964 -0.5785
 5060TIP3    H239376   2.989   5.119   9.627  2.3116 -2.7124  0.1872
 5061TIP3   OH239377   0.593   0.879   9.358 -0.3598  0.1544 -0.2443
 5061TIP3    H139378   0.544   0.886   9.440  0.0930  1.7349 -0.0696
 5061TIP3    H239379   0.666   0.821   9.378  0.4095  1.4511  0.8352
 5062TIP3   OH239380   0.171   7.498   7.768 -0.5335  0.0110 -0.5149
 5062TIP3    H139381   0.257   7.459   7.785  0.1424  2.2980  1.9245
 5062TIP3    H239382   0.172   7.519   7.675  1.1923 -0.8305 -0.7197
 5063TIP3   OH239383   5.140   1.147   7.937 -0.0245 -0.0166 -0.1367
 5063TIP3    H139384   5.094   1.173   8.017  1.4012  1.2309  0.3293
 5063TIP3    H239385   5.233   1.158   7.958  0.4678 -1.4980 -1.3653
 5064TIP3   OH239386   4.093   1.174   7.404 -0.2242  0.7278 -0.0255
 5064TIP3    H139387   4.178   1.159   7.363 -0.9779 -1.2159 -0.9472
 5064TIP3    H239388   4.044   1.227   7.341 -0.6252 -0.4418 -0.7184
 5065TIP3   OH239389   2.587   4.123   7.604  0.1161 -0.0468 -0.0882
 5065TIP3    H139390   2.661   4.068   7.633  0.7254 -0.3316 -2.0464
 5065TIP3    H239391   2.628   4.202   7.569 -0.2381 -1.0937 -3.1946
 5066TIP3   OH239392   6.450   0.261   8.528 -0.1766 -0.1313 -0.4182
 5066TIP3    H139393   6.369   0.281   8.481 -0.9534 -0.7051  0.6275
 5066TIP3    H239394   6.430   0.281   8.619  0.1948 -2.1830  0.1496
 5067TIP3   OH239395   3.409   4.323   8.948  0.3098 -0.0448 -0.1723
 5067TIP3    H139396   3.358   4.251   8.987 -0.0716  0.2818 -0.0527
 5067TIP3    H239397   3.457   4.282   8.877 -0.1543 -0.3607 -0.3134
 5068TIP3   OH239398   4.586   7.126   8.709 -0.4822  0.7901 -0.6337
 5068TIP3    H139399   4.531   7.054   8.678 -1.4675  1.3819 -0.3088
 5068TIP3    H239400   4.526   7.200   8.717  0.2394  1.2949  0.3336
 5069TIP3   OH239401   1.768   3.006   8.453 -0.1101  0.0917 -0.2614
 5069TIP3    H139402   1.743   2.935   8.512  0.6900  0.5105  0.6160
 5069TIP3    H239403   1.700   3.007   8.386 -1.2263 -0.1991  0.8253
 5070TIP3   OH239404   0.752   0.221   8.714 -0.1735  0.5848  0.3418
 5070TIP3    H139405   0.835   0.215   8.762 -0.1857 -0.2817  0.2579
 5070TIP3    H239406   0.685   0.196   8.778 -0.4610  2.0041  0.6312
 5071TIP3   OH239407   5.533   1.980   7.871  0.2544  0.6751  0.3463
 5071TIP3    H139408   5.595   2.041   7.910  0.5280 -0.2174  1.3687
 5071TIP3    H239409   5.583   1.935   7.803 -0.3937  2.6707 -1.5758
 5072TIP3   OH239410   0.908   4.392   9.216 -0.2084 -0.0527  0.2802
 5072TIP3    H139411   0.890   4.355   9.129  0.6340 -0.3058  0.2045
 5072TIP3    H239412   1.000   4.371   9.232 -0.1093  0.7822  0.8492
 5073TIP3   OH239413   5.932   1.099   8.412 -0.3018 -0.1541  0.2231
 5073TIP3    H139414   5.980   1.100   8.494  1.9893 -0.1158 -1.0351
 5073TIP3    H239415   5.984   1.154   8.353 -2.1794  0.3081 -1.1162
 5074TIP3   OH239416   3.628   0.317   8.986 -0.7635 -0.1494  0.3162
 5074TIP3    H139417   3.599   0.229   8.962 -0.4335 -0.2207  0.1780
 5074TIP3    H239418   3.616   0.322   9.080  1.3548 -1.1469  0.7020
 5075TIP3   OH239419   2.539   1.181   6.889 -0.1360 -0.3223  0.1946
 5075TIP3    H139420   2.553   1.274   6.905  1.3128 -0.4852 -0.0450
 5075TIP3    H239421   2.456   1.177   6.841  0.3027  0.9225 -0.6916
 5076TIP3   OH239422   2.970   2.945   7.862 -0.3962  0.5441 -0.1121
 5076TIP3    H139423   2.991   2.922   7.952  2.1366  1.8372 -0.2885
 5076TIP3    H239424   3.033   2.896   7.809 -1.7952 -0.1329 -1.2142
 5077TIP3   OH239425   4.369   3.615   7.386  0.0756  0.3559 -0.1003
 5077TIP3    H139426   4.457   3.645   7.363  1.3426 -1.6290  1.8157
 5077TIP3    H239427   4.371   3.521   7.370 -0.8801 -0.1257  2.2246
 5078TIP3   OH239428   1.681   2.105   8.417 -0.0749  0.2691  0.0151
 5078TIP3    H139429   1.654   2.015   8.433  0.7725  0.1008  0.6005
 5078TIP3    H239430   1.777   2.103   8.423  0.1893  0.6936 -2.7277
 5079TIP3   OH239431   7.500   4.203   8.505  0.5832  0.2644  0.0858
 5079TIP3    H139432   7.580   4.186   8.554  0.0067 -1.1634  0.5525
 5079TIP3    H239433   7.435   4.226   8.571  0.0126 -0.8924 -0.0451
 5080TIP3   OH239434   3.271   7.127   8.535 -0.5211 -0.2322  1.3291
 5080TIP3    H139435   3.286   7.091   8.622  0.3516  0.6571  1.5633
 5080TIP3    H239436   3.283   7.222   8.545 -0.3189 -0.1193  0.2312
 5081TIP3   OH239437   2.349   4.392   9.036 -0.2700 -0.3423  0.0777
 5081TIP3    H139438   2.377   4.463   9.094 -1.4357 -0.6441  1.0601
 5081TIP3    H239439   2.361   4.426   8.948 -2.2381  1.6969  0.5054
 5082TIP3   OH239440   0.597   5.277   7.509 -0.1406 -0.0549 -0.7598
 5082TIP3    H139441   0.641   5.209   7.560 -3.6156 -1.8263  0.1882
 5082TIP3    H239442   0.577   5.346   7.572 -0.9662 -0.4657 -0.5513
 5083TIP3   OH239443   3.063   3.788   9.279 -0.0324 -0.2386  0.6341
 5083TIP3    H139444   3.127   3.716   9.276 -0.3319 -0.4764 -1.2980
 5083TIP3    H239445   3.109   3.862   9.238 -0.2009  0.2848  1.3738
 5084TIP3   OH239446   5.754   3.823   8.518 -0.3941  0.1865  0.6417
 5084TIP3    H139447   5.693   3.828   8.445 -1.3821  0.8242  1.4818
 5084TIP3    H239448   5.804   3.743   8.502 -0.1091  0.6745 -1.0825
 5085TIP3   OH239449   3.854   4.568   9.415 -1.0208  0.4574 -0.1869
 5085TIP3    H139450   3.879   4.656   9.441 -1.7489  1.3958 -2.4662
 5085TIP3    H239451   3.767   4.556   9.454 -1.7922  1.5691 -1.4696
 5086TIP3   OH239452   0.377   0.219   9.477  0.1561  0.2166  0.3641
 5086TIP3    H139453   0.439   0.157   9.439  0.0199 -1.0674  2.1321
 5086TIP3    H239454   0.292   0.193   9.440  0.6108  2.5865 -2.8415
 5087TIP3   OH239455   5.997   4.906   7.358  0.1392  0.6800  0.1863
 5087TIP3    H139456   5.966   4.978   7.413  0.0695  0.1055  0.9195
 5087TIP3    H239457   6.090   4.923   7.348 -0.2764  2.1918 -1.6843
 5088TIP3   OH239458   0.345   0.759   8.339 -0.1946  0.2931 -0.5773
 5088TIP3    H139459   0.340   0.840   8.288  1.7758  0.1286 -1.0959
 5088TIP3    H239460   0.438   0.750   8.361 -0.1631 -2.3847 -1.4758
 5089TIP3   OH239461   4.445   3.388   7.970 -0.4086 -0.5526 -0.2243
 5089TIP3    H139462   4.470   3.342   8.050  0.2493  0.1305 -0.0283
 5089TIP3    H239463   4.478   3.331   7.900 -0.4244 -0.8431  0.0010
 5090TIP3   OH239464   2.062   3.996   9.216 -0.1182  0.0473 -0.1298
 5090TIP3    H139465   2.042   3.912   9.258 -0.3095  0.5327  0.7646
 5090TIP3    H239466   2.092   3.972   9.128  1.1719 -1.0598  0.5700
 5091TIP3   OH239467   3.537   3.266   8.646 -0.2271  0.2075  0.5676
 5091TIP3    H139468   3.534   3.171   8.657 -0.4395  0.1483  0.0483
 5091TIP3    H239469   3.577   3.279   8.560 -0.3488  0.5795  0.5635
 5092TIP3   OH239470   2.473   4.492   7.485 -0.8332  0.8819 -0.1651
 5092TIP3    H139471   2.457   4.422   7.548 -2.2709  1.5054  0.1925
 5092TIP3    H239472   2.386   4.524   7.462 -0.1977  3.9263  1.2438
 5093TIP3   OH239473   7.466   4.587   9.044  0.7555  0.1306 -0.2856
 5093TIP3    H139474   7.432   4.611   9.130  2.1945  0.0675  0.3297
 5093TIP3    H239475   7.415   4.509   9.019 -1.2095  1.4144 -0.5369
 5094TIP3   OH239476   2.105   6.034   9.715 -0.3535  0.2517 -0.0867
 5094TIP3    H139477   2.200   6.043   9.715 -0.3552  0.7252  1.8462
 5094TIP3    H239478   2.073   6.117   9.679 -0.0567  0.3982 -0.0147
 5095TIP3   OH239479   4.080   6.629   8.344 -0.3310 -0.3623 -0.9088
 5095TIP3    H139480   4.121   6.714   8.328  0.0273 -0.9152 -3.4371
 5095TIP3    H239481   3.998   6.650   8.388  1.1315  1.0005  1.3893
 5096TIP3   OH239482   5.752   1.040   9.175  0.3299 -0.4996 -0.2791
 5096TIP3    H139483   5.827   1.098   9.164  0.2930 -0.7035 -1.9251
 5096TIP3    H239484   5.695   1.061   9.101 -0.7167 -1.1061  0.3323
 5097TIP3   OH239485   3.172   1.469   7.196 -0.5011  0.8387 -0.2386
 5097TIP3    H139486   3.219   1.553   7.196  2.7394 -0.7933  0.1918
 5097TIP3    H239487   3.127   1.466   7.112 -2.3536  3.7336  0.5114
 5098TIP3   OH239488   3.884   4.222   6.694  0.3057  0.2700  0.9227
 5098TIP3    H139489   3.839   4.263   6.620  1.2089  1.5644  1.0476
 5098TIP3    H239490   3.831   4.145   6.716 -0.1365  0.0430 -0.8569
 5099TIP3   OH239491   0.666   5.928   6.908  0.6334  0.5781 -0.0107
 5099TIP3    H139492   0.759   5.912   6.924  0.2805  1.3608  3.3613
 5099TIP3    H239493   0.661   6.021   6.886  0.6260  0.4703 -0.4983
 5100TIP3   OH239494   2.189   5.035   6.504  0.2323  0.4646 -0.3761
 5100TIP3    H139495   2.170   5.127   6.486 -2.1524 -0.0346 -0.7002
 5100TIP3    H239496   2.270   5.018   6.455 -0.2915  1.9113 -1.8390
 5101TIP3   OH239497   5.259   1.098   8.251  0.0612 -0.4080 -0.1774
 5101TIP3    H139498   5.227   1.020   8.206 -0.1623  0.4177 -1.4822
 5101TIP3    H239499   5.201   1.106   8.327 -0.0458 -1.3829 -0.1399
 5102TIP3   OH239500   5.021   5.235   8.990 -0.4289  0.1593  0.0174
 5102TIP3    H139501   4.956   5.169   8.965 -0.1227 -0.1895  0.1380
 5102TIP3    H239502   5.076   5.192   9.055 -0.4359  0.6486  0.3526
 5103TIP3   OH239503   2.120   6.098   9.096  0.5141 -0.2901  0.7216
 5103TIP3    H139504   2.191   6.156   9.069  0.5979 -0.7225 -0.0262
 5103TIP3    H239505   2.148   6.063   9.181  1.8146 -1.4292 -0.1343
 5104TIP3   OH239506   0.849   0.112   9.218 -0.7641 -0.2305  0.2579
 5104TIP3    H139507   0.921   0.070   9.265 -0.9337  0.2122  0.9356
 5104TIP3    H239508   0.811   0.042   9.166 -1.0800 -0.9483  1.4022
 5105TIP3   OH239509   6.992   1.327   8.603  0.5019 -0.2108 -0.5438
 5105TIP3    H139510   7.011   1.238   8.572  0.4025 -0.7421  0.8168
 5105TIP3    H239511   7.062   1.345   8.666  1.5220  1.3885 -2.0561
 5106TIP3   OH239512   2.326   3.214   9.364  0.4417 -0.2926 -0.1393
 5106TIP3    H139513   2.353   3.295   9.406 -0.2761 -0.3698  0.5011
 5106TIP3    H239514   2.236   3.231   9.334 -0.8972 -1.7253  2.6150
 5107TIP3   OH239515   6.453   4.829   8.815 -0.2598  0.1595  0.6679
 5107TIP3    H139516   6.437   4.810   8.723 -0.5382  2.1962  0.2602
 5107TIP3    H239517   6.512   4.759   8.844 -0.5130 -0.7546 -0.9139
 5108TIP3   OH239518   3.944   3.777   8.487 -0.4603  0.0240  0.3322
 5108TIP3    H139519   3.940   3.857   8.435 -0.5962 -1.4901 -2.1514
 5108TIP3    H239520   3.966   3.807   8.575 -0.6212  2.7784 -0.4681
 5109TIP3   OH239521   7.358   3.783   9.017 -0.1677  0.0150 -0.0416
 5109TIP3    H139522   7.277   3.827   8.993 -1.1461 -2.1672 -1.0457
 5109TIP3    H239523   7.422   3.815   8.953 -0.4666  0.9870  0.1234
 5110TIP3   OH239524   4.102   4.339   7.529 -0.0370  0.9182  0.7421
 5110TIP3    H139525   4.147   4.288   7.461  0.2718  1.1991  0.7347
 5110TIP3    H239526   4.074   4.419   7.484 -1.1822  0.4275  0.5671
 5111TIP3   OH239527   6.664   0.420   7.299 -0.1659 -0.0428  0.3518
 5111TIP3    H139528   6.732   0.382   7.244  0.2390 -0.3979  1.0841
 5111TIP3    H239529   6.602   0.348   7.314  1.0226 -0.7051  2.4171
 5112TIP3   OH239530   2.317   3.615   7.537 -0.0785 -0.0225  0.0575
 5112TIP3    H139531   2.230   3.586   7.564 -0.4163  0.7073 -0.2466
 5112TIP3    H239532   2.313   3.710   7.539  0.5960  0.0199 -0.3344
 5113TIP3   OH239533   2.527   6.619   9.711  0.1889  0.2105 -0.4628
 5113TIP3    H139534   2.487   6.705   9.699 -0.2073  0.6336  2.8400
 5113TIP3    H239535   2.575   6.626   9.794  0.5361 -2.6255 -0.3109
 5114TIP3   OH239536   3.719   6.501   8.228 -0.4726 -0.2100 -0.0727
 5114TIP3    H139537   3.623   6.500   8.227 -0.4661 -0.9028 -0.9460
 5114TIP3    H239538   3.741   6.584   8.271 -1.4564 -0.2352  0.5295
 5115TIP3   OH239539   3.761   2.822   8.976  0.6414  0.4522 -0.3265
 5115TIP3    H139540   3.768   2.757   8.906 -0.9845  0.3367 -0.4200
 5115TIP3    H239541   3.824   2.890   8.952  1.0285 -0.2021 -1.2108
 5116TIP3   OH239542   6.218   6.426   8.083 -0.6296  0.0239  0.1135
 5116TIP3    H139543   6.265   6.456   8.161  0.8553  1.1684 -1.1453
 5116TIP3    H239544   6.274   6.358   8.046  0.0863  1.3464 -1.3711
 5117TIP3   OH239545   3.114   5.226   9.670 -0.6902  0.3805 -0.6436
 5117TIP3    H139546   3.042   5.281   9.699 -0.0216  1.3216 -0.7049
 5117TIP3    H239547   3.184   5.288   9.648  1.0343 -0.5613  1.7522
 5118TIP3   OH239548   3.741   0.912   8.771  0.0516 -0.6921  0.3308
 5118TIP3    H139549   3.709   0.826   8.742 -3.1614  0.6650 -0.6546
 5118TIP3    H239550   3.770   0.955   8.691 -0.1036 -0.2382  0.5143
 5119TIP3   OH239551   6.514   6.962   6.670  0.0470 -0.0761  0.3076
 5119TIP3    H139552   6.577   6.908   6.718 -1.3982 -0.1491  2.2124
 5119TIP3    H239553   6.516   7.047   6.715 -1.1247 -0.0482  0.3295
 5120TIP3   OH239554   3.669   1.491   9.651 -0.4628  0.7370 -0.0328
 5120TIP3    H139555   3.750   1.446   9.677 -1.3229 -0.5581  0.5145
 5120TIP3    H239556   3.662   1.474   9.557 -0.1573  0.7570 -0.0611
 5121TIP3   OH239557   6.192   7.148   9.359  0.2531  0.0919  0.4243
 5121TIP3    H139558   6.229   7.145   9.271  2.2635  0.3149  1.2222
 5121TIP3    H239559   6.126   7.078   9.360 -0.4687  0.6854 -1.5060
 5122TIP3   OH239560   4.580   1.086   7.333  0.2674  0.0488  0.4797
 5122TIP3    H139561   4.598   1.063   7.424  0.8934 -2.2866 -0.1781
 5122TIP3    H239562   4.667   1.095   7.293  0.0755 -2.1959 -0.5886
 5123TIP3   OH239563   0.774   6.399   8.010  0.5751 -0.1026  0.5328
 5123TIP3    H139564   0.694   6.392   7.959  0.8786 -1.5089  0.1931
 5123TIP3    H239565   0.748   6.374   8.099  0.3216  1.0091  0.7754
 5124TIP3   OH239566   0.677   6.648   6.544 -0.2280 -0.3486  0.1458
 5124TIP3    H139567   0.743   6.604   6.597  0.0448 -0.9630 -0.6793
 5124TIP3    H239568   0.720   6.726   6.511 -0.2097 -0.2741  0.3430
 5125TIP3   OH239569   2.183   4.118   6.896  0.2392 -0.2521  0.3787
 5125TIP3    H139570   2.237   4.174   6.840 -0.2652 -1.3724 -1.3275
 5125TIP3    H239571   2.097   4.159   6.895  0.2619 -0.2033  0.4379
 5126TIP3   OH239572   6.138   2.927   9.133  0.0859 -0.1803 -0.1383
 5126TIP3    H139573   6.202   2.862   9.161 -0.0779 -1.3826 -2.3264
 5126TIP3    H239574   6.053   2.885   9.146 -0.1061  0.2016 -0.1262
 5127TIP3   OH239575   7.384   5.897   7.043 -0.4611  0.4534  0.1094
 5127TIP3    H139576   7.446   5.921   6.974 -0.8281 -1.0030 -0.7773
 5127TIP3    H239577   7.298   5.910   7.004 -0.7123  1.1707  0.8729
 5128TIP3   OH239578   2.356   3.016   7.509 -0.0606  0.3675  0.1585
 5128TIP3    H139579   2.433   2.973   7.546  0.4064 -0.2750 -1.4475
 5128TIP3    H239580   2.284   2.954   7.524  0.6420 -1.1826 -2.3034
 5129TIP3   OH239581   7.383   4.383  19.276  0.7810  0.3540 -0.1736
 5129TIP3    H139582   7.371   4.295  19.311  1.4279 -0.0671 -0.9727
 5129TIP3    H239583   7.463   4.415  19.319  0.2026  0.8029  0.5864
 5130TIP3   OH239584   3.224   2.655   8.120 -0.6350  0.4240  0.2411
 5130TIP3    H139585   3.247   2.629   8.031 -0.2160 -0.6316  0.6444
 5130TIP3    H239586   3.162   2.589   8.150  0.5991 -0.2907  1.3590
 5131TIP3   OH239587   4.056   4.885   9.274  0.3964  0.1814  0.2859
 5131TIP3    H139588   3.987   4.900   9.209  1.6684  0.4406 -1.0670
 5131TIP3    H239589   4.010   4.848   9.349 -1.5936  2.4918  0.3561
 5132TIP3   OH239590   4.487   5.131   9.351  0.6318 -0.8295 -0.0480
 5132TIP3    H139591   4.553   5.198   9.330  1.2369 -1.3521  0.1592
 5132TIP3    H239592   4.503   5.110   9.443 -0.2003 -0.5545  0.1666
 5133TIP3   OH239593   1.945   5.850   9.545 -0.1347  0.0118  0.1677
 5133TIP3    H139594   2.015   5.914   9.557  0.2569  0.1936 -2.4657
 5133TIP3    H239595   1.864   5.902   9.551  0.1802  0.8625 -1.9941
 5134TIP3   OH239596   6.847   0.254   7.174 -0.8059  0.0345 -0.4248
 5134TIP3    H139597   6.942   0.248   7.183 -0.8788  0.3823  0.8070
 5134TIP3    H239598   6.813   0.187   7.233 -1.3249 -0.5683 -1.3953
 5135TIP3   OH239599   3.100   1.790   7.895  0.5654  0.3942 -0.4921
 5135TIP3    H139600   3.076   1.879   7.923 -2.8790 -0.1998 -1.0371
 5135TIP3    H239601   3.156   1.757   7.965 -2.0612  1.3807  2.3462
 5136TIP3   OH239602   0.629   4.150   8.266 -0.1450  0.0841  0.5751
 5136TIP3    H139603   0.613   4.204   8.189 -0.1409 -0.8012 -0.0590
 5136TIP3    H239604   0.641   4.061   8.232 -1.7019 -0.6181  1.7177
 5137TIP3   OH239605   0.712   2.322   9.353 -0.2099 -0.2803 -0.1439
 5137TIP3    H139606   0.650   2.331   9.280 -0.0348 -1.9766 -0.5659
 5137TIP3    H239607   0.727   2.411   9.383 -2.8591  0.2129 -0.0170
 5138TIP3   OH239608   0.850   3.704   7.751 -0.1998 -0.4314  0.6551
 5138TIP3    H139609   0.756   3.710   7.735  0.2579  0.4053 -2.1570
 5138TIP3    H239610   0.875   3.619   7.715  0.3990  0.1521 -0.3299
 5139TIP3   OH239611   6.187   0.820   8.106 -0.5374 -0.3304 -0.3202
 5139TIP3    H139612   6.246   0.790   8.175 -1.2088  1.2195  0.9981
 5139TIP3    H239613   6.211   0.768   8.029  1.2043 -1.1008  0.6897
 5140TIP3   OH239614   2.183   3.553   9.357  0.0264 -0.4560  0.3528
 5140TIP3    H139615   2.133   3.635   9.353  1.0723  0.1442 -2.2905
 5140TIP3    H239616   2.123   3.491   9.399 -1.5745  1.1110  0.5407
 5141TIP3   OH239617   3.677   1.842   7.622  0.2061 -0.1940 -0.1670
 5141TIP3    H139618   3.702   1.854   7.713 -1.1586  1.8639  0.0111
 5141TIP3    H239619   3.610   1.773   7.624  1.3017 -1.2856  0.1355
 5142TIP3   OH239620   6.673   3.803   8.873 -0.0268  0.6057  0.3033
 5142TIP3    H139621   6.667   3.843   8.960 -2.0399  2.5098 -0.6343
 5142TIP3    H239622   6.630   3.718   8.884 -0.4200  0.8953  1.1329
 5143TIP3   OH239623   1.045   2.570   8.290  0.4080 -0.2295 -0.0770
 5143TIP3    H139624   1.040   2.660   8.323  1.3653 -0.6482  1.3137
 5143TIP3    H239625   0.981   2.567   8.219  1.5494  2.0333 -1.3208
 5144TIP3   OH239626   1.387   6.681   7.448 -0.0381 -0.3023  0.2260
 5144TIP3    H139627   1.360   6.589   7.440 -1.0747  0.1815 -4.1334
 5144TIP3    H239628   1.315   6.723   7.495 -0.4985 -1.3779  0.5233
 5145TIP3   OH239629   4.495   4.376   9.055 -0.2961 -0.0668  0.0140
 5145TIP3    H139630   4.479   4.282   9.057 -1.4280  0.0704 -1.1275
 5145TIP3    H239631   4.445   4.411   9.129 -0.3200 -0.3123  0.1119
 5146TIP3   OH239632   4.052   0.030   6.698 -0.0730  0.0938  0.2157
 5146TIP3    H139633   4.063  -0.022   6.778  0.0847 -0.3323 -0.0808
 5146TIP3    H239634   4.132   0.082   6.692 -0.9963  1.7865  1.5120
 5147TIP3   OH239635   4.463   5.790   7.935  0.5402  0.4601 -0.4240
 5147TIP3    H139636   4.386   5.756   7.980  0.8237 -1.4248 -1.2401
 5147TIP3    H239637   4.434   5.872   7.895 -1.3452 -0.6384 -1.4536
 5148TIP3   OH239638   3.658   4.526   9.926  0.7543 -0.6772 -0.1992
 5148TIP3    H139639   3.677   4.554  10.016 -1.2093 -0.8959  0.3364
 5148TIP3    H239640   3.585   4.465   9.935 -3.2517  3.2638 -2.2518
 5149TIP3   OH239641   5.982   4.439   9.010  0.1970 -0.4661 -0.2108
 5149TIP3    H139642   5.974   4.358   8.959  0.7255 -1.1062  0.7160
 5149TIP3    H239643   5.905   4.439   9.067  1.1572 -1.2868  1.1353
 5150TIP3   OH239644   6.816   0.318   8.522  0.2175 -0.1493  0.0057
 5150TIP3    H139645   6.909   0.312   8.499  0.4905 -0.3149  1.0947
 5150TIP3    H239646   6.780   0.234   8.494  0.2309  0.1787 -1.0540
 5151TIP3   OH239647   3.463   0.125   8.956  0.3206 -0.4478 -0.5326
 5151TIP3    H139648   3.370   0.141   8.971  0.0920 -1.1004 -1.1924
 5151TIP3    H239649   3.489   0.067   9.028  0.6053  0.9716  0.5414
 5152TIP3   OH239650   1.310   6.035   8.361  0.0103  0.2477 -0.3826
 5152TIP3    H139651   1.240   5.977   8.330  0.4791 -0.1728 -0.6861
 5152TIP3    H239652   1.277   6.123   8.345 -0.7154  0.0681  0.0842
 5153TIP3   OH239653   3.057   3.767   7.559 -0.1596  0.2399  0.2720
 5153TIP3    H139654   2.996   3.756   7.631 -0.6903 -0.0242 -0.2128
 5153TIP3    H239655   3.010   3.820   7.494  0.3181  0.4976  0.1285
 5154TIP3   OH239656   3.547   0.812   7.939  0.6757  0.3957 -0.5444
 5154TIP3    H139657   3.518   0.874   8.006  0.5377  0.2472 -0.4651
 5154TIP3    H239658   3.628   0.850   7.904  1.6530 -0.3407  0.8491
 5155TIP3   OH239659   1.334   0.768   8.144  0.0376  0.5151  0.0255
 5155TIP3    H139660   1.328   0.801   8.234  1.2060 -1.1297  0.7558
 5155TIP3    H239661   1.404   0.702   8.147 -1.7278 -1.5578 -1.4753
 5156TIP3   OH239662   5.697   5.619   8.413  0.7528  0.2263 -0.4600
 5156TIP3    H139663   5.713   5.612   8.507 -0.7307  0.8103 -0.1438
 5156TIP3    H239664   5.689   5.529   8.383 -3.2769 -0.0172  0.8482
 5157TIP3   OH239665   6.694   2.766   7.726 -0.0204 -0.3536  0.3054
 5157TIP3    H139666   6.773   2.729   7.688 -0.1765 -2.4090  1.7753
 5157TIP3    H239667   6.628   2.757   7.657  1.2101  2.5674 -1.4022
 5158TIP3   OH239668   2.764   4.113   9.121 -0.2441  0.2441  0.4437
 5158TIP3    H139669   2.671   4.099   9.102 -0.9261  1.3535  2.6758
 5158TIP3    H239670   2.805   4.030   9.097 -1.9386 -0.5828  0.2021
 5159TIP3   OH239671   4.958   4.001   9.041 -0.2006 -0.8773  0.2695
 5159TIP3    H139672   5.025   4.069   9.037 -1.9806  0.9279 -1.9280
 5159TIP3    H239673   4.895   4.033   9.104 -0.4207 -1.1162  0.1747
 5160TIP3   OH239674   6.657   7.424   6.706  0.1421  0.0394  0.3614
 5160TIP3    H139675   6.586   7.484   6.731  1.1633  1.1176  0.7468
 5160TIP3    H239676   6.637   7.400   6.616 -1.2964 -0.5530  0.7997
 5161TIP3   OH239677   0.035   0.736   7.551 -0.0697 -0.3879  0.1180
 5161TIP3    H139678   0.026   0.661   7.492  0.8299 -1.3087  1.1108
 5161TIP3    H239679  -0.013   0.712   7.629  0.6274 -0.1338  0.6358
 5162TIP3   OH239680   2.027   0.778   9.288 -0.1822  0.2580  0.3053
 5162TIP3    H139681   2.050   0.772   9.196 -1.8743 -2.9506 -0.0463
 5162TIP3    H239682   2.096   0.729   9.333 -1.0548 -1.0603  0.2898
 5163TIP3   OH239683   7.477   0.198   7.590 -0.4380  0.2170  0.2740
 5163TIP3    H139684   7.469   0.255   7.514 -0.4668  0.7101  0.6382
 5163TIP3    H239685   7.559   0.150   7.577 -0.9329 -0.4209 -0.5394
 5164TIP3   OH239686   2.733   4.699   8.222 -0.0897  0.1865 -0.4643
 5164TIP3    H139687   2.640   4.695   8.245  0.0541 -0.1590  0.0733
 5164TIP3    H239688   2.762   4.608   8.221  0.9859  0.3863  2.5438
 5165TIP3   OH239689   2.127   4.581   8.825 -0.0297  0.6647 -0.5292
 5165TIP3    H139690   2.068   4.507   8.810 -0.0549  0.2073  1.5323
 5165TIP3    H239691   2.214   4.541   8.833  0.1011  0.9728 -0.4057
 5166TIP3   OH239692   6.538   5.473   7.742 -0.2952 -0.0961 -0.4980
 5166TIP3    H139693   6.575   5.486   7.655 -3.2260 -0.8840 -1.9708
 5166TIP3    H239694   6.558   5.382   7.763  1.2227  0.3481  0.1389
 5167TIP3   OH239695   5.800   7.411   8.025  0.4255  0.2483 -0.4478
 5167TIP3    H139696   5.893   7.396   8.042  0.1850 -1.6383 -0.6842
 5167TIP3    H239697   5.788   7.505   8.042  2.3440  0.5160 -0.3518
 5168TIP3   OH239698   6.370   2.234   7.866  0.7193  0.0148 -0.3261
 5168TIP3    H139699   6.359   2.139   7.860 -0.9135  0.0023  1.8562
 5168TIP3    H239700   6.322   2.268   7.790  2.0475 -0.8686 -1.6284
 5169TIP3   OH239701   5.687   6.451   8.680  0.5324  0.5866  0.4229
 5169TIP3    H139702   5.646   6.422   8.599  1.2253  2.1108 -0.5287
 5169TIP3    H239703   5.628   6.519   8.714  0.9728  0.9926  0.3903
 5170TIP3   OH239704   7.501   4.915   9.422  0.1999  0.6525 -0.2224
 5170TIP3    H139705   7.443   4.840   9.409  1.9329 -0.6204 -1.0569
 5170TIP3    H239706   7.457   4.968   9.488 -1.7115 -0.4168 -0.5450
 5171TIP3   OH239707   4.561   1.142   8.933  0.2603 -0.2185  0.0048
 5171TIP3    H139708   4.519   1.201   8.871 -0.3100  1.1418  1.5958
 5171TIP3    H239709   4.498   1.071   8.945  0.7334 -0.9432 -1.5437
 5172TIP3   OH239710   1.129   3.228   8.202  0.1502 -0.2075  0.1656
 5172TIP3    H139711   1.186   3.240   8.126  0.6044 -1.0554  0.3599
 5172TIP3    H239712   1.055   3.176   8.169 -0.3175  0.5320  0.0125
 5173TIP3   OH239713   1.246   3.065   7.377  0.3224  0.1063  0.7665
 5173TIP3    H139714   1.249   3.109   7.292 -0.8803  0.0258  0.6658
 5173TIP3    H239715   1.185   3.118   7.429 -0.5117 -0.9703  0.9078
 5174TIP3   OH239716   6.836   6.364   8.468  0.1926  0.2965 -0.2975
 5174TIP3    H139717   6.923   6.389   8.499 -0.3353  0.8044  0.8100
 5174TIP3    H239718   6.778   6.378   8.543 -1.5060  3.5365 -1.9989
 5175TIP3   OH239719   1.726   6.068   9.531 -0.3138  0.0249  0.2664
 5175TIP3    H139720   1.685   6.098   9.450  0.3223  0.7769  0.2098
 5175TIP3    H239721   1.769   6.146   9.567 -0.3442 -0.3606  1.1846
 5176TIP3   OH239722   2.133   2.987   8.526  0.2448  0.1216 -0.0163
 5176TIP3    H139723   2.209   3.030   8.565  0.3693 -0.1618  0.0485
 5176TIP3    H239724   2.083   3.059   8.487 -0.0680  0.4626  0.9711
 5177TIP3   OH239725   2.939   2.824   8.486  0.9112  0.0691 -0.5784
 5177TIP3    H139726   2.925   2.730   8.497  4.2255 -0.4913 -0.2910
 5177TIP3    H239727   3.033   2.833   8.471  0.5763  3.2976 -1.4265
 5178TIP3   OH239728   5.178   1.708   9.009  0.3922  0.3318  0.3891
 5178TIP3    H139729   5.268   1.728   8.984 -0.1101  0.9236 -1.0413
 5178TIP3    H239730   5.141   1.792   9.035  0.0601  0.2004  0.3467
 5179TIP3   OH239731   2.463   6.898   6.954  0.2480 -0.3446 -0.7490
 5179TIP3    H139732   2.426   6.830   6.898 -0.4675 -0.0321 -0.6716
 5179TIP3    H239733   2.406   6.974   6.940 -1.0957 -0.7931  1.7736
 5180TIP3   OH239734   6.397   2.030   9.239  0.1836 -0.0636 -0.6033
 5180TIP3    H139735   6.432   1.986   9.162 -0.2153  0.3262 -1.0185
 5180TIP3    H239736   6.429   2.120   9.232 -0.1960  0.0790 -0.5397
 5181TIP3   OH239737   2.123   2.102   9.402  0.1353 -0.2391 -0.0645
 5181TIP3    H139738   2.065   2.141   9.336 -1.3932  0.4079  1.5889
 5181TIP3    H239739   2.082   2.019   9.424 -0.4435  0.4147  1.4239
 5182TIP3   OH239740   5.101   4.679   8.696  0.3201 -0.3857  0.2818
 5182TIP3    H139741   5.091   4.769   8.664  0.2654 -0.6522 -0.4674
 5182TIP3    H239742   5.195   4.670   8.713  0.4801 -0.5001 -0.6145
 5183TIP3   OH239743   2.482   3.853   9.031 -0.4727  0.2241  0.6237
 5183TIP3    H139744   2.465   3.945   9.048  0.1224  0.2707  0.9907
 5183TIP3    H239745   2.569   3.851   8.991  0.2600 -0.3029  2.1594
 5184TIP3   OH239746   3.644   3.664   8.704 -0.5347  0.5001 -0.6070
 5184TIP3    H139747   3.661   3.710   8.621 -0.1803  1.9107  0.2163
 5184TIP3    H239748   3.707   3.592   8.704  0.0603  0.9992 -1.1762
 5185TIP3   OH239749   3.884   4.502   8.536  0.4322  0.3729 -0.2958
 5185TIP3    H139750   3.862   4.574   8.595  0.0336  0.0463 -0.0413
 5185TIP3    H239751   3.800   4.472   8.502  0.6513  0.5065 -0.9800
 5186TIP3   OH239752   2.589   6.143   9.499 -0.0948 -0.1534  0.6063
 5186TIP3    H139753   2.604   6.237   9.508  1.3163 -0.4249  1.5006
 5186TIP3    H239754   2.677   6.105   9.491 -0.6864 -1.3129 -0.8198
 5187TIP3   OH239755   2.343   2.679   8.080  0.3368  0.1925  0.5845
 5187TIP3    H139756   2.298   2.734   8.144 -0.9746  1.1133 -1.0313
 5187TIP3    H239757   2.433   2.711   8.078  0.6026 -0.3629  2.4785
 5188TIP3   OH239758   4.126   5.476   9.418 -0.4719 -0.1225  0.1808
 5188TIP3    H139759   4.104   5.383   9.414  0.1841 -0.3704  1.6191
 5188TIP3    H239760   4.221   5.478   9.414 -0.5104  0.7017 -2.3732
 5189TIP3   OH239761   6.680   0.455   8.729  0.3465  0.2212 -0.0732
 5189TIP3    H139762   6.608   0.394   8.744 -1.2273  1.8990 -0.4313
 5189TIP3    H239763   6.720   0.425   8.647 -0.1344 -0.5538 -0.0353
 5190TIP3   OH239764   1.118   0.190   6.648 -0.5011 -0.4477 -0.4167
 5190TIP3    H139765   1.169   0.270   6.632  1.2296 -1.6386 -1.1505
 5190TIP3    H239766   1.148   0.160   6.734  0.2226 -1.2615 -0.9388
 5191TIP3   OH239767   3.794   3.579   9.743 -0.7209  0.0503 -0.0243
 5191TIP3    H139768   3.862   3.567   9.676 -0.7816  2.6367 -0.6852
 5191TIP3    H239769   3.834   3.548   9.824  0.1922 -1.0654 -0.8707
 5192TIP3   OH239770   5.718   5.815   9.362 -0.0582 -0.0979  0.3219
 5192TIP3    H139771   5.628   5.846   9.357 -0.2184 -0.6817 -0.4874
 5192TIP3    H239772   5.716   5.728   9.323  1.4708  1.1828 -3.0241
 5193TIP3   OH239773   7.466   2.635   7.464  0.1096 -0.0821 -0.6141
 5193TIP3    H139774   7.503   2.573   7.400  0.0688 -0.8131  0.0512
 5193TIP3    H239775   7.453   2.582   7.543  0.4670  0.8891  0.1070
 5194TIP3   OH239776   1.727   1.784   6.791  0.2911  0.6132  0.1991
 5194TIP3    H139777   1.692   1.848   6.853  0.8992  2.8213 -1.5707
 5194TIP3    H239778   1.709   1.822   6.705  0.2613 -1.8784 -0.9846
 5195TIP3   OH239779   0.335   0.107   8.222 -0.5057  0.8610  0.0669
 5195TIP3    H139780   0.301   0.141   8.139  0.8302  1.0867 -0.4159
 5195TIP3    H239781   0.341   0.184   8.279 -0.1737  0.9571 -0.0876
 5196TIP3   OH239782   4.969   6.449   9.945  0.1724 -0.4604  0.3423
 5196TIP3    H139783   4.911   6.468   9.871 -0.4594 -2.0310  0.3944
 5196TIP3    H239784   5.038   6.396   9.907  1.2013  0.7655  0.4363
 5197TIP3   OH239785   4.360   5.818   7.420 -0.6889  0.6380  0.0418
 5197TIP3    H139786   4.449   5.846   7.442 -0.6944  1.7227 -1.1932
 5197TIP3    H239787   4.305   5.860   7.485 -0.3704  0.6406  0.3122
 5198TIP3   OH239788   6.894   3.201   9.228 -0.0304 -0.2158 -0.1868
 5198TIP3    H139789   6.916   3.193   9.135  3.5689 -0.0224  0.5200
 5198TIP3    H239790   6.936   3.282   9.255 -1.2291 -0.1490  1.6070
 5199TIP3   OH239791   4.151   5.814   9.698 -0.2043 -0.4023  0.4478
 5199TIP3    H139792   4.129   5.907   9.700  0.3784 -0.1944 -1.2770
 5199TIP3    H239793   4.066   5.769   9.702 -0.4319  0.1199  2.7491
 5200TIP3   OH239794   4.223   6.521   9.007 -0.0108  0.0103  0.1068
 5200TIP3    H139795   4.207   6.502   9.100  0.8199  1.7571  0.6539
 5200TIP3    H239796   4.212   6.615   9.000  1.6921  0.1562 -1.2032
 5201TIP3   OH239797   3.681   6.351   8.985 -0.7674  0.6703 -0.2763
 5201TIP3    H139798   3.660   6.265   9.021 -0.4125  0.3500 -0.8166
 5201TIP3    H239799   3.772   6.366   9.012 -0.4704  0.3882 -1.1012
 5202TIP3   OH239800   3.491   0.838   9.494 -0.4044 -0.1233 -0.1861
 5202TIP3    H139801   3.418   0.847   9.433 -0.8676 -1.3020  0.1600
 5202TIP3    H239802   3.462   0.887   9.572 -0.5683 -0.0936 -0.2638
 5203TIP3   OH239803   6.108   6.037   8.284 -0.4909 -0.1550 -0.3843
 5203TIP3    H139804   6.169   5.982   8.236 -0.9158 -0.3052 -0.7580
 5203TIP3    H239805   6.068   6.093   8.218 -0.7184 -0.0189 -0.1375
 5204TIP3   OH239806   0.824   6.902   6.695 -0.3656 -0.4298  0.2790
 5204TIP3    H139807   0.779   6.902   6.610 -1.5743 -1.7341  0.8858
 5204TIP3    H239808   0.916   6.892   6.672 -0.3054  2.1671 -0.9914
 5205TIP3   OH239809   0.430   2.593   9.373 -0.4463  0.2999  0.5066
 5205TIP3    H139810   0.337   2.610   9.352 -0.7677  0.6646  2.1222
 5205TIP3    H239811   0.427   2.530   9.445  0.5938 -0.1563  0.1625
 5206TIP3   OH239812   4.797   4.614   8.748 -0.5187 -0.2250  0.1175
 5206TIP3    H139813   4.760   4.609   8.660 -0.1061  0.8469 -0.1395
 5206TIP3    H239814   4.882   4.657   8.735 -0.0498 -0.8780  0.9294
 5207TIP3   OH239815   5.372   7.174   8.373 -0.2938  0.1300  0.5746
 5207TIP3    H139816   5.411   7.118   8.440  0.0255 -0.1746  0.1431
 5207TIP3    H239817   5.442   7.187   8.309 -0.7706 -0.0585  0.0097
 5208TIP3   OH239818   5.894   4.372   8.486  0.3438 -0.3616 -0.1782
 5208TIP3    H139819   5.840   4.413   8.419 -0.3628  2.0905  1.7230
 5208TIP3    H239820   5.860   4.283   8.494 -1.2379  0.1116 -1.3000
 5209TIP3   OH239821   1.834   4.712   7.288 -0.2989 -0.0043 -0.1277
 5209TIP3    H139822   1.744   4.709   7.255 -0.4094 -0.5448  0.2092
 5209TIP3    H239823   1.888   4.686   7.214 -0.6470 -2.6338  0.4565
 5210TIP3   OH239824   3.992   0.167   7.786 -0.3093 -0.3495 -0.3995
 5210TIP3    H139825   3.976   0.169   7.692  0.6106 -0.2410 -0.5647
 5210TIP3    H239826   3.912   0.131   7.824 -0.0629 -1.9699 -1.3630
 5211TIP3   OH239827   2.670   2.930   8.570  0.0638 -0.0254 -0.4076
 5211TIP3    H139828   2.664   3.025   8.572  0.1692  0.0000 -1.1531
 5211TIP3    H239829   2.758   2.912   8.537 -0.4665 -0.3710 -1.6840
 5212TIP3   OH239830   4.635   2.984   8.354  0.0810  0.2222  0.3578
 5212TIP3    H139831   4.542   2.961   8.364  0.6606 -2.0382  1.3280
 5212TIP3    H239832   4.640   3.075   8.384 -2.1560  1.2593 -2.0020
 5213TIP3   OH239833   3.231   4.973   8.752  0.0361 -0.2021 -0.4048
 5213TIP3    H139834   3.192   5.015   8.675  1.4625  0.9263 -0.5468
 5213TIP3    H239835   3.320   5.007   8.756 -0.2790  0.5261  2.2948
 5214TIP3   OH239836   4.743   5.042   8.764  0.2869 -0.0729 -0.5125
 5214TIP3    H139837   4.794   5.076   8.690 -1.2420  2.1706 -0.6238
 5214TIP3    H239838   4.672   4.993   8.723  1.9691 -2.8995 -0.3580
 5215TIP3   OH239839   4.610   6.072   7.722 -0.5126 -0.3331 -0.4763
 5215TIP3    H139840   4.545   6.123   7.771 -1.7901 -1.9801 -0.3561
 5215TIP3    H239841   4.671   6.137   7.688 -2.3399  1.3288 -0.7661
 5216TIP3   OH239842   2.700   6.949   9.482  0.4194  0.5393 -0.3917
 5216TIP3    H139843   2.752   6.949   9.563  2.1531  1.3423 -1.4558
 5216TIP3    H239844   2.764   6.961   9.412 -0.8752 -1.5083 -2.0502
 5217TIP3   OH239845   7.081   5.202   8.845  0.4911  0.2446 -0.2685
 5217TIP3    H139846   7.036   5.149   8.779  1.8970 -1.0709 -0.2205
 5217TIP3    H239847   7.012   5.224   8.908 -0.3913 -0.4258 -0.9611
 5218TIP3   OH239848   4.290   3.422   9.158  0.9993 -0.0868  0.8073
 5218TIP3    H139849   4.338   3.362   9.100  0.8674 -0.6967  1.3126
 5218TIP3    H239850   4.198   3.411   9.132  1.0664  0.6301  0.2465
 5219TIP3   OH239851   5.851   3.862   7.534  0.0741  0.0429  0.0762
 5219TIP3    H139852   5.923   3.854   7.598 -1.6387  0.2951  2.1483
 5219TIP3    H239853   5.858   3.782   7.482  0.5662 -1.0137  1.6714
 5220TIP3   OH239854   6.385   1.293   7.718  0.3232 -0.1068  0.2320
 5220TIP3    H139855   6.408   1.349   7.792  0.0455  1.8414 -1.0550
 5220TIP3    H239856   6.470   1.269   7.680  0.4930 -1.6957  1.5361
 5221TIP3   OH239857   0.093   1.203   7.342  0.1875 -0.2439 -0.6788
 5221TIP3    H139858   0.118   1.111   7.346  1.2917 -0.1279 -3.2101
 5221TIP3    H239859   0.031   1.208   7.269 -2.2655  0.5867  1.3234
 5222TIP3   OH239860   7.022   6.229   8.250 -0.5484 -0.2102  0.2477
 5222TIP3    H139861   7.089   6.290   8.220 -1.1861  0.8600  0.9116
 5222TIP3    H239862   6.992   6.266   8.333 -1.8836 -0.7049  0.0081
 5223TIP3   OH239863   3.498   0.252   9.247 -0.0124 -0.2265  0.2869
 5223TIP3    H139864   3.437   0.182   9.270 -0.2482  0.2226  1.0361
 5223TIP3    H239865   3.470   0.327   9.298 -0.3121  0.7016 -1.1817
 5224TIP3   OH239866   0.566   2.812   8.922  0.4079  0.3701 -0.2434
 5224TIP3    H139867   0.649   2.773   8.895 -0.1145  0.1276 -1.6071
 5224TIP3    H239868   0.521   2.743   8.970  0.7629  0.3122  0.0049
 5225TIP3   OH239869   2.087   1.194   8.178 -0.2408 -0.1047 -0.4186
 5225TIP3    H139870   2.068   1.179   8.270  0.2742 -0.4581 -0.3669
 5225TIP3    H239871   2.008   1.162   8.132 -0.4876  0.0546 -0.1067
 5226TIP3   OH239872   0.663   1.931   7.905  0.2693  0.5020 -0.1819
 5226TIP3    H139873   0.579   1.977   7.907  0.2484  0.4626 -0.1617
 5226TIP3    H239874   0.728   2.000   7.921  0.1685  0.3588  0.9320
 5227TIP3   OH239875   5.929   4.444   9.663 -0.3357 -0.5575 -0.0368
 5227TIP3    H139876   5.957   4.496   9.588  0.3167 -0.7896  0.0373
 5227TIP3    H239877   5.853   4.395   9.632 -1.2041  0.7135  0.0058
 5228TIP3   OH239878   0.687   3.011   7.453 -0.7240  0.3876  0.7415
 5228TIP3    H139879   0.609   2.964   7.482  0.3281 -1.8047  0.2402
 5228TIP3    H239880   0.760   2.963   7.492  0.4329  1.7222  0.3151
 5229TIP3   OH239881   3.665   2.407   7.635  0.4333  0.2006  0.7494
 5229TIP3    H139882   3.757   2.433   7.638  0.9094 -1.3012 -0.1416
 5229TIP3    H239883   3.661   2.327   7.687 -0.5805  0.7625  1.5879
 5230TIP3   OH239884   1.348   2.653   8.981  0.2276  0.3757 -0.1391
 5230TIP3    H139885   1.294   2.731   8.970 -0.4589 -0.0258  0.3025
 5230TIP3    H239886   1.389   2.639   8.896 -1.4161 -0.0801 -0.8963
 5231TIP3   OH239887   2.559   0.977   7.116  0.1181 -0.6130  0.2184
 5231TIP3    H139888   2.491   0.910   7.108 -0.4969 -0.1879  1.6613
 5231TIP3    H239889   2.542   1.038   7.044 -1.4396 -0.1629  0.9400
 5232TIP3   OH239890   5.976   0.473   8.741 -0.0957 -0.3200  0.0648
 5232TIP3    H139891   5.893   0.487   8.695 -0.3475  0.0095  0.6009
 5232TIP3    H239892   6.032   0.430   8.677 -0.8527 -1.0393 -0.1347
 5233TIP3   OH239893   0.399   2.665   6.790  0.0129  0.1961 -0.0041
 5233TIP3    H139894   0.448   2.739   6.826  0.7480 -0.6689  0.8357
 5233TIP3    H239895   0.313   2.701   6.771  0.8115  1.6613 -1.1317
 5234TIP3   OH239896   6.278   5.240   9.765 -0.3699 -0.0649  0.5383
 5234TIP3    H139897   6.303   5.199   9.682 -0.1452  1.0194  0.0523
 5234TIP3    H239898   6.337   5.202   9.830  0.9276  0.6595 -0.1732
 5235TIP3   OH239899   2.237   4.143   8.830 -0.2277 -0.4270  0.2952
 5235TIP3    H139900   2.150   4.162   8.794  0.5799  0.4792 -1.2765
 5235TIP3    H239901   2.232   4.173   8.921 -1.4824 -0.1691  0.1627
 5236TIP3   OH239902   0.424   4.771   6.719 -0.3966 -0.0029  0.4429
 5236TIP3    H139903   0.339   4.736   6.743 -0.0681 -1.2019 -0.0559
 5236TIP3    H239904   0.450   4.824   6.794 -1.7605  0.7398  0.4143
 5237TIP3   OH239905   6.911   4.477   8.070 -0.5381  0.1655 -0.6643
 5237TIP3    H139906   6.953   4.562   8.058 -1.3802  0.7038  0.0286
 5237TIP3    H239907   6.901   4.469   8.165  0.7249 -1.3256 -0.6166
 5238TIP3   OH239908   0.352   1.752   8.802 -0.3910 -0.0094 -0.1675
 5238TIP3    H139909   0.338   1.684   8.869 -0.3438  0.2266  0.0850
 5238TIP3    H239910   0.425   1.804   8.835  0.6054 -0.7785 -1.1230
 5239TIP3   OH239911   3.703   7.420   8.288  0.0228 -1.0765 -0.2327
 5239TIP3    H139912   3.745   7.506   8.299 -2.6949  0.5050 -1.2911
 5239TIP3    H239913   3.747   7.364   8.352  1.4382  1.2775  0.9997
 5240TIP3   OH239914   4.365   2.728   8.478  0.6328  0.0817 -0.6509
 5240TIP3    H139915   4.350   2.656   8.539 -1.3822  0.5147 -0.5433
 5240TIP3    H239916   4.296   2.718   8.412 -0.7131  2.7296  0.2105
 5241TIP3   OH239917   6.503   5.705   7.449  0.1375  0.1066 -0.1888
 5241TIP3    H139918   6.559   5.628   7.453  1.0251  0.7874  2.9705
 5241TIP3    H239919   6.425   5.681   7.499  0.1070  1.0080  0.2174
 5242TIP3   OH239920   1.245   6.752   8.704  0.2242  0.5701  0.4260
 5242TIP3    H139921   1.291   6.801   8.636  3.2559 -1.5806  0.7464
 5242TIP3    H239922   1.305   6.751   8.778 -0.4053 -2.1170  1.0033
 5243TIP3   OH239923   3.968   0.738   8.691  0.2036 -0.1074  0.0930
 5243TIP3    H139924   3.888   0.695   8.662 -1.2031  2.0973  0.4780
 5243TIP3    H239925   3.976   0.716   8.784  0.6558 -1.1617 -0.1782
 5244TIP3   OH239926   2.144   4.121   7.489  0.2320  0.3647 -0.1126
 5244TIP3    H139927   2.081   4.128   7.417 -0.9265  1.0022  0.9345
 5244TIP3    H239928   2.092   4.098   7.565  1.5439 -1.0429  0.4177
 5245TIP3   OH239929   2.520   3.953   8.376  0.2645 -0.4036  0.0696
 5245TIP3    H139930   2.482   4.003   8.449 -0.3095 -1.4173  0.4959
 5245TIP3    H239931   2.610   3.985   8.370  0.6658 -1.0061  1.9430
 5246TIP3   OH239932   1.735   0.130   2.179 -0.4691  0.4298  0.3203
 5246TIP3    H139933   1.706   0.137   2.271  0.7337 -0.4359  0.7871
 5246TIP3    H239934   1.689   0.053   2.146 -0.5353  0.4601  0.3407
 5247TIP3   OH239935   2.745   0.391   9.030 -0.0094  0.5257  0.7422
 5247TIP3    H139936   2.733   0.350   8.945  1.2728  1.3545  0.1263
 5247TIP3    H239937   2.706   0.478   9.020  1.4595  1.1883  0.4784
 5248TIP3   OH239938   2.270   4.036   7.138 -0.5682 -0.0984 -0.0356
 5248TIP3    H139939   2.259   4.058   7.045 -2.4040  0.5183  0.2922
 5248TIP3    H239940   2.333   4.101   7.170 -2.4078  1.8586 -0.1592
 5249TIP3   OH239941   3.193   0.051   9.033  0.4641 -0.1549 -0.3068
 5249TIP3    H139942   3.208  -0.043   9.034  2.3909  0.0498 -2.2925
 5249TIP3    H239943   3.101   0.061   9.009  0.5861 -1.5617 -1.4998
 5250TIP3   OH239944   7.417   5.356   8.870  0.1979  0.3193 -0.0198
 5250TIP3    H139945   7.336   5.399   8.843 -0.5583 -1.2456 -0.3458
 5250TIP3    H239946   7.483   5.391   8.811 -0.0645  2.1768  0.7312
 5251TIP3   OH239947   7.496   2.603   7.801  0.0620  0.2568 -0.1568
 5251TIP3    H139948   7.407   2.590   7.768 -0.5805 -1.4381  2.0537
 5251TIP3    H239949   7.490   2.587   7.895  2.2504  2.5969  0.5097
 5252TIP3   OH239950   1.845   5.383   7.029 -0.1429  0.1498  0.0285
 5252TIP3    H139951   1.883   5.467   7.006 -2.7166  1.6639  0.8944
 5252TIP3    H239952   1.819   5.344   6.945 -0.5514  1.0386 -0.2615
 5253TIP3   OH239953   6.280   6.859   8.028 -0.0836  0.7980 -0.1097
 5253TIP3    H139954   6.200   6.837   7.982 -0.3039 -2.1627  1.4419
 5253TIP3    H239955   6.350   6.821   7.974  0.0952  1.5535 -0.4146
 5254TIP3   OH239956   6.929   6.764   8.359 -0.1052  0.5883  0.2204
 5254TIP3    H139957   6.951   6.679   8.398 -1.0347  0.3971  0.3398
 5254TIP3    H239958   7.010   6.815   8.366  0.6556 -0.4926 -0.4312
 5255TIP3   OH239959   4.187   5.947   8.479  0.5183 -0.3898 -0.0379
 5255TIP3    H139960   4.180   6.038   8.510 -0.0358 -0.7389  0.9162
 5255TIP3    H239961   4.200   5.896   8.559 -0.4899 -1.2786 -0.4197
 5256TIP3   OH239962   2.186   5.327   8.309 -0.1597  0.3824  0.2978
 5256TIP3    H139963   2.223   5.404   8.266 -1.5726  1.9254  1.6697
 5256TIP3    H239964   2.116   5.298   8.250  0.6861 -0.1641 -0.4512
 5257TIP3   OH239965   7.491   0.040   7.965  0.5073  0.0167  0.5587
 5257TIP3    H139966   7.543   0.080   8.035  1.5633 -0.6531  0.1780
 5257TIP3    H239967   7.555   0.011   7.901 -0.4667  1.3281 -1.1113
 5258TIP3   OH239968   5.005   7.466   7.059 -0.1030 -0.5622 -0.3773
 5258TIP3    H139969   5.006   7.395   6.995  1.7023  0.1949 -1.2745
 5258TIP3    H239970   4.914   7.472   7.086 -0.6663 -1.8888 -1.7717
 5259TIP3   OH239971   5.046   4.088   8.148 -0.3053  0.2988 -0.3053
 5259TIP3    H139972   5.129   4.057   8.183 -0.7029  2.4340  2.8940
 5259TIP3    H239973   4.981   4.025   8.180 -0.3758  0.9108  0.7876
 5260TIP3   OH239974   7.017   5.614   6.833 -0.5926 -0.8409  0.3810
 5260TIP3    H139975   6.950   5.602   6.900 -0.2305 -2.3175  0.5097
 5260TIP3    H239976   7.045   5.525   6.810  2.1305 -0.2838  1.1676
 5261TIP3   OH239977   6.467   2.827   8.812 -0.0067  0.9696  0.9854
 5261TIP3    H139978   6.448   2.766   8.884 -0.6339  0.8287  0.7035
 5261TIP3    H239979   6.422   2.908   8.836 -0.2272  0.9184  0.7485
 5262TIP3   OH239980   1.695   4.870   7.673 -0.0383 -0.2770  0.0353
 5262TIP3    H139981   1.719   4.785   7.638  1.4706 -0.0461  0.4337
 5262TIP3    H239982   1.778   4.907   7.705 -0.9404  0.5895  1.4743
 5263TIP3   OH239983   2.109   5.734   8.323  0.3735  0.1118 -0.7713
 5263TIP3    H139984   2.110   5.711   8.230 -0.2759  0.6278 -0.9103
 5263TIP3    H239985   2.137   5.654   8.368  0.3586 -0.2444 -1.3871
 5264TIP3   OH239986   1.161   4.937   7.505 -0.3973  0.1557  0.0525
 5264TIP3    H139987   1.161   5.021   7.551 -1.5936 -0.1487  0.6394
 5264TIP3    H239988   1.253   4.911   7.503 -0.0584  1.2731  0.2368
 5265TIP3   OH239989   6.995   6.055   9.846 -0.0520  0.9362 -0.1110
 5265TIP3    H139990   6.961   6.144   9.836  0.5748  1.1794 -0.1104
 5265TIP3    H239991   7.086   6.067   9.874 -0.5845  0.3068  2.1575
 5266TIP3   OH239992   1.848   0.932   8.519  0.1518  0.4132  0.3012
 5266TIP3    H139993   1.792   0.866   8.559  0.2190 -0.3057 -0.7297
 5266TIP3    H239994   1.929   0.885   8.497 -0.3982  0.3602 -1.9208
 5267TIP3   OH239995   7.254   4.210   9.264 -0.0732  0.6150 -0.1027
 5267TIP3    H139996   7.162   4.205   9.292 -0.0319 -0.3883 -0.1390
 5267TIP3    H239997   7.281   4.119   9.252 -0.0316  0.9278 -3.3068
 5268TIP3   OH239998   5.162   4.914   9.189  0.1265 -0.7285 -0.0735
 5268TIP3    H139999   5.168   4.886   9.280  1.1106  0.5918  0.3002
 5268TIP3    H240000   5.130   5.004   9.194 -0.8414 -0.9857 -1.1048
 5269TIP3   OH240001   3.435   5.233   8.150 -0.0197 -0.0957  0.3665
 5269TIP3    H140002   3.408   5.323   8.132 -0.3376  0.1343  1.8514
 5269TIP3    H240003   3.466   5.234   8.241  0.9106 -1.2796  0.0896
 5270TIP3   OH240004   6.224   7.075   7.156  0.4381 -0.1305  0.0502
 5270TIP3    H140005   6.314   7.092   7.131 -0.1036  1.2389 -1.1385
 5270TIP3    H240006   6.224   7.077   7.252  1.2832  2.2219  0.0520
 5271TIP3   OH240007   5.133   6.771   8.359  0.0810 -0.3148  0.4420
 5271TIP3    H140008   5.094   6.685   8.376 -0.3153 -0.4384 -0.9665
 5271TIP3    H240009   5.198   6.754   8.291 -1.1428  0.7257 -1.0532
 5272TIP3   OH240010   7.296   5.358   7.748 -0.6402 -0.1279 -0.0237
 5272TIP3    H140011   7.267   5.341   7.837 -0.5714 -2.5402 -0.3997
 5272TIP3    H240012   7.358   5.430   7.756 -1.6877  0.6327  1.6617
 5273TIP3   OH240013   0.259   5.530   8.514 -0.1906  0.4699  0.4990
 5273TIP3    H140014   0.268   5.460   8.450 -2.8681  0.3540  0.1347
 5273TIP3    H240015   0.326   5.512   8.580 -0.2059 -1.9195 -0.0579
 5274TIP3   OH240016   5.537   3.628   7.309  0.4604  0.1825  0.1520
 5274TIP3    H140017   5.464   3.571   7.285  0.3804  0.9135 -1.4614
 5274TIP3    H240018   5.504   3.717   7.297  0.5809  0.6586  2.6507
 5275TIP3   OH240019   1.103   6.047   9.225 -0.9437 -0.4406 -0.5391
 5275TIP3    H140020   1.040   5.976   9.212 -0.7604 -0.4630 -1.3549
 5275TIP3    H240021   1.113   6.087   9.139  0.0025 -0.3025 -0.3797
 5276TIP3   OH240022   6.894   3.184   6.560  0.5922 -0.0164  0.1141
 5276TIP3    H140023   6.857   3.096   6.557  0.5448  0.0277 -0.6025
 5276TIP3    H240024   6.905   3.202   6.654  0.5623 -0.7620  0.2639
 5277TIP3   OH240025   7.080   2.480   8.220  0.0836  0.0518 -0.0992
 5277TIP3    H140026   7.063   2.541   8.149  0.6376 -1.6102 -1.7468
 5277TIP3    H240027   7.165   2.442   8.200 -0.6142 -1.8816  0.3669
 5278TIP3   OH240028   2.006   3.380   9.462  0.1297 -0.7589  0.6429
 5278TIP3    H140029   1.992   3.294   9.502  0.1523 -1.4089 -0.6792
 5278TIP3    H240030   1.918   3.414   9.446  0.1211 -0.3120  1.6075
 5279TIP3   OH240031   4.154   6.898   7.229 -0.5910  0.5349 -0.0643
 5279TIP3    H140032   4.115   6.977   7.192 -0.8279  0.6216  0.3541
 5279TIP3    H240033   4.092   6.828   7.209 -0.3806  0.4557 -0.4357
 5280TIP3   OH240034   7.052   1.448   7.806  0.3130 -0.3707 -0.0646
 5280TIP3    H140035   7.006   1.519   7.852  0.1517 -0.9550  0.7034
 5280TIP3    H240036   6.983   1.385   7.784  0.5951 -0.7852  0.2133
 5281TIP3   OH240037   5.802   6.834   9.079  0.5971  0.3200  0.1013
 5281TIP3    H140038   5.856   6.906   9.048 -0.6976  2.1211  1.8203
 5281TIP3    H240039   5.743   6.873   9.143 -1.1679 -1.9947  0.0396
 5282TIP3   OH240040   6.905   2.620   8.041 -0.5033 -0.3010  1.0295
 5282TIP3    H140041   6.977   2.651   7.987 -1.9491  0.6160 -0.4599
 5282TIP3    H240042   6.861   2.699   8.071 -2.5782 -0.7729 -0.5045
 5283TIP3   OH240043   3.738   1.195   7.442  0.4243  0.4462  0.0642
 5283TIP3    H140044   3.644   1.176   7.437  0.2805  0.6152  1.6213
 5283TIP3    H240045   3.777   1.143   7.372 -0.4639 -2.2102  1.4253
 5284TIP3   OH240046   1.251   0.376   7.638  0.0700  0.2788 -0.3863
 5284TIP3    H140047   1.198   0.297   7.643 -1.1027  1.1026  2.0629
 5284TIP3    H240048   1.335   0.347   7.604 -1.0059 -1.5996 -1.5948
 5285TIP3   OH240049   5.430   3.281   8.829 -0.1304  0.1422  0.1798
 5285TIP3    H140050   5.499   3.345   8.811  0.5819 -0.3944  0.8984
 5285TIP3    H240051   5.360   3.331   8.871  0.0641  0.5972 -0.0429
 5286TIP3   OH240052   7.012   4.391   9.224 -0.2709 -0.1952 -0.1075
 5286TIP3    H140053   7.080   4.440   9.271  1.1117 -1.2525 -0.9296
 5286TIP3    H240054   6.970   4.338   9.292  0.6511 -0.5466  0.2067
 5287TIP3   OH240055   4.022   1.871   8.354 -0.0267  0.2376  0.1452
 5287TIP3    H140056   3.946   1.924   8.333 -0.3104  0.2552  1.1437
 5287TIP3    H240057   4.056   1.843   8.270 -0.6557  0.9067 -0.3426
 5288TIP3   OH240058   1.201   2.698   9.576 -0.0289  0.1167 -0.1006
 5288TIP3    H140059   1.259   2.772   9.596 -1.4821  1.3613 -0.3318
 5288TIP3    H240060   1.143   2.693   9.652 -0.8560  0.1433 -0.7286
 5289TIP3   OH240061   5.907   0.610   9.497  0.0487  0.0587 -0.1899
 5289TIP3    H140062   5.901   0.643   9.408  2.4276  1.3235  0.0375
 5289TIP3    H240063   5.933   0.686   9.550 -0.5883 -0.8148  1.4614
 5290TIP3   OH240064   6.643   0.192   8.279 -0.1974  0.2094  0.6596
 5290TIP3    H140065   6.613   0.270   8.233  0.9421 -0.6936 -1.7801
 5290TIP3    H240066   6.708   0.153   8.221 -0.1249 -2.1213  2.1672
 5291TIP3   OH240067   1.036   0.319   9.145 -0.3035  0.2437  0.1933
 5291TIP3    H140068   0.965   0.255   9.146 -0.9015  0.8970 -0.1102
 5291TIP3    H240069   1.053   0.335   9.053 -0.6476  1.0560  0.2637
 5292TIP3   OH240070   2.951   5.440   8.200  0.0842  0.1899 -0.0881
 5292TIP3    H140071   2.975   5.452   8.108  0.2627 -0.0427 -0.0730
 5292TIP3    H240072   3.032   5.409   8.242  0.1560  0.8101  0.2572
 5293TIP3   OH240073   3.196   5.339   7.916  0.2398  0.1856 -0.1632
 5293TIP3    H140074   3.266   5.391   7.955 -0.9268  1.1960  0.6361
 5293TIP3    H240075   3.180   5.380   7.831  1.1993 -0.6009 -0.7501
 5294TIP3   OH240076   2.557   4.359   9.277  0.3609 -0.7414  0.0941
 5294TIP3    H140077   2.498   4.298   9.322 -0.7998  0.7133  0.6060
 5294TIP3    H240078   2.641   4.346   9.319 -0.6641  0.5075  2.7308
 5295TIP3   OH240079   3.042   5.163   8.041 -0.3628 -0.4309  0.1242
 5295TIP3    H140080   2.972   5.162   7.975 -0.1524 -0.5251 -0.0980
 5295TIP3    H240081   3.104   5.229   8.009 -0.7038  0.1846  0.6963
 5296TIP3   OH240082   2.300   2.653   7.467  0.2089 -0.5556 -0.0865
 5296TIP3    H140083   2.240   2.723   7.494  2.2367  1.3479 -0.1812
 5296TIP3    H240084   2.330   2.614   7.550  1.0019  0.4650  0.1317
 5297TIP3   OH240085   6.830   2.563   9.036 -0.1551 -0.4765 -0.0738
 5297TIP3    H140086   6.839   2.539   8.944 -0.2416  2.5886 -0.9704
 5297TIP3    H240087   6.829   2.658   9.036 -1.6204 -0.3940  2.9876
 5298TIP3   OH240088   7.496   2.654   8.074 -0.3082  0.2599  0.5946
 5298TIP3    H140089   7.583   2.618   8.089  0.3550  1.6982  0.4031
 5298TIP3    H240090   7.437   2.598   8.124  0.5682 -1.4512 -0.2205
 5299TIP3   OH240091   6.707   5.567   7.541  0.3385 -0.1859  0.2786
 5299TIP3    H140092   6.778   5.578   7.605  0.1720  1.7427  0.1862
 5299TIP3    H240093   6.736   5.618   7.465  0.3823 -2.1740 -1.1001
 5300TIP3   OH240094   0.679   4.309   9.720  0.1445  0.1584  0.0535
 5300TIP3    H140095   0.639   4.293   9.635  0.1994 -0.1658  0.0879
 5300TIP3    H240096   0.727   4.391   9.709  0.2165  0.0784 -0.2497
 5301TIP3   OH240097   1.627   1.741   7.552  0.3093  0.1138 -0.3165
 5301TIP3    H140098   1.697   1.768   7.611  0.3041 -0.1782 -0.1722
 5301TIP3    H240099   1.672   1.704   7.476  0.3225 -0.7380  0.0867
 5302TIP3   OH240100   5.843   4.685   7.362  0.6165 -0.3018 -0.6789
 5302TIP3    H140101   5.906   4.757   7.362 -0.7937  0.9763 -1.2288
 5302TIP3    H240102   5.851   4.645   7.276  0.3344  0.1854 -0.9356
 5303TIP3   OH240103   2.740   3.954   7.806  0.1841  0.0926 -0.4205
 5303TIP3    H140104   2.811   4.013   7.778 -0.2825  0.0134 -1.8759
 5303TIP3    H240105   2.778   3.866   7.799 -0.4050 -0.0565 -2.5375
 5304TIP3   OH240106   3.277   5.320   8.550  0.3788  0.6899  0.1018
 5304TIP3    H140107   3.265   5.373   8.471  0.8051  1.0567  0.2788
 5304TIP3    H240108   3.188   5.299   8.577  0.0851  2.8507  1.0380
 5305TIP3   OH240109   6.016   1.097   9.170 -0.0378  0.1055 -0.1196
 5305TIP3    H140110   6.054   1.177   9.134 -1.4043  0.9014  0.1748
 5305TIP3    H240111   6.052   1.092   9.259  0.6063 -0.0171 -0.3743
 5306TIP3   OH240112   4.801   2.911   9.268 -0.2247  0.5089 -1.0688
 5306TIP3    H140113   4.744   2.863   9.329  1.3812 -1.0346 -0.7204
 5306TIP3    H240114   4.740   2.957   9.210 -1.8678 -1.4601 -1.0147
 5307TIP3   OH240115   5.159   1.126   7.630 -0.5792  0.4066 -0.3601
 5307TIP3    H140116   5.179   1.119   7.724  2.8284 -0.1591 -1.0019
 5307TIP3    H240117   5.072   1.086   7.622 -0.0006 -1.7666  2.2541
 5308TIP3   OH240118   1.800   0.261   7.960 -0.2891  0.1821 -0.1392
 5308TIP3    H140119   1.850   0.205   8.020  0.1826 -1.0278 -1.5852
 5308TIP3    H240120   1.864   0.321   7.924 -0.6715  1.2604  0.9098
 5309TIP3   OH240121   2.592   6.510   7.596 -0.0463 -0.1117 -0.0315
 5309TIP3    H140122   2.614   6.441   7.533 -1.9415 -1.2993  0.5209
 5309TIP3    H240123   2.673   6.526   7.644  0.8971 -0.6405 -1.4031
 5310TIP3   OH240124   6.013   1.167   7.997 -0.0595 -0.1426 -0.5419
 5310TIP3    H140125   5.941   1.107   7.979 -0.6679 -0.4055  2.3285
 5310TIP3    H240126   5.974   1.240   8.044  1.1264  1.2206 -1.5458
 5311TIP3   OH240127   0.538   1.472   9.311  0.0648  0.6741  0.2578
 5311TIP3    H140128   0.525   1.561   9.278  2.1205  0.4598 -1.3310
 5311TIP3    H240129   0.633   1.461   9.314 -0.1330 -1.6305 -0.0252
 5312TIP3   OH240130   3.407   1.188   8.737 -0.0355  0.4918 -0.1480
 5312TIP3    H140131   3.478   1.160   8.795  0.8661  1.1442 -0.8979
 5312TIP3    H240132   3.406   1.284   8.746  0.2426  0.6207 -1.3137
 5313TIP3   OH240133   2.425   2.183   8.227  0.0911  0.1929  0.0944
 5313TIP3    H140134   2.346   2.143   8.263  0.2835 -2.1503 -1.7920
 5313TIP3    H240135   2.396   2.264   8.187 -1.1829 -0.1383  0.3138
 5314TIP3   OH240136   2.972   5.074   7.624  0.1284  0.3869  0.3323
 5314TIP3    H140137   2.988   5.058   7.717  1.1689 -0.9356 -0.0472
 5314TIP3    H240138   2.935   4.993   7.590  0.6853  0.5029 -0.6111
 5315TIP3   OH240139   0.169   6.150   8.353  0.4547  0.4584 -0.6237
 5315TIP3    H140140   0.186   6.058   8.368  0.6974  0.4692 -0.8310
 5315TIP3    H240141   0.134   6.154   8.264  1.3447  0.6716 -0.9742
 5316TIP3   OH240142   7.352   6.661   9.375 -0.4400 -0.0269  0.2023
 5316TIP3    H140143   7.446   6.649   9.386 -0.1906 -0.2032 -1.7494
 5316TIP3    H240144   7.336   6.753   9.394  0.3337  0.2858 -0.6284
 5317TIP3   OH240145   0.107   2.424   7.339 -0.1408  0.3795 -0.5616
 5317TIP3    H140146   0.118   2.462   7.251 -0.7028  0.1961 -0.7134
 5317TIP3    H240147   0.064   2.340   7.324  1.3675 -0.4948 -0.2525
 5318TIP3   OH240148   1.632   4.506   9.539  0.2223  0.0131 -0.3088
 5318TIP3    H140149   1.702   4.524   9.475  0.5862  0.2423  0.1463
 5318TIP3    H240150   1.636   4.580   9.600 -1.8952  1.2203 -1.5132
 5319TIP3   OH240151   0.394   1.650   7.783  0.2367  0.1352  0.4470
 5319TIP3    H140152   0.354   1.564   7.794 -1.0992  0.6735  0.0256
 5319TIP3    H240153   0.488   1.633   7.779 -0.0699 -1.4384 -0.9088
 5320TIP3   OH240154   0.604   4.492   7.887  0.0092  0.0075 -0.7244
 5320TIP3    H140155   0.595   4.496   7.792 -1.5646  0.3086 -0.5870
 5320TIP3    H240156   0.589   4.582   7.917 -3.1260 -0.6231  0.0159
 5321TIP3   OH240157   6.718   2.045   8.755  0.2671 -0.1124 -0.4527
 5321TIP3    H140158   6.741   2.125   8.802  0.4549  0.1895 -1.0439
 5321TIP3    H240159   6.715   1.977   8.822 -2.3044  0.8219  0.4741
 5322TIP3   OH240160   6.296   6.813   6.818 -0.7093 -0.5475 -0.2136
 5322TIP3    H140161   6.376   6.862   6.799 -0.4641  0.5978  3.0988
 5322TIP3    H240162   6.327   6.726   6.843 -0.4762 -0.1671  0.8645
 5323TIP3   OH240163   2.198   5.172   9.763  0.2760  0.2374 -0.5445
 5323TIP3    H140164   2.274   5.150   9.708 -0.5989 -1.1024 -1.2846
 5323TIP3    H240165   2.139   5.219   9.704  0.1023  0.3994 -0.2421
 5324TIP3   OH240166   7.397   7.102   8.334 -0.1537 -0.4066 -0.0540
 5324TIP3    H140167   7.309   7.104   8.372 -0.0877  4.3514  0.3562
 5324TIP3    H240168   7.387   7.138   8.246  1.5224  2.3190  0.7462
 5325TIP3   OH240169   4.051   0.529   7.993  0.1186  0.4469 -0.0453
 5325TIP3    H140170   4.064   0.434   7.998 -0.1103  0.4148 -0.0438
 5325TIP3    H240171   4.068   0.560   8.082  0.0727  0.3922 -0.0171
 5326TIP3   OH240172   2.324   2.421   8.056  0.3500  0.1597  0.1884
 5326TIP3    H140173   2.232   2.397   8.057  0.3277  0.2520  0.6010
 5326TIP3    H240174   2.325   2.515   8.071  0.3916  0.6087 -2.3122
 5327TIP3   OH240175   1.458   1.346   9.601  0.1903  0.0165  0.5869
 5327TIP3    H140176   1.501   1.283   9.542  0.5883  0.5289  0.3183
 5327TIP3    H240177   1.501   1.429   9.582 -0.7861  0.5044  0.4590
 5328TIP3   OH240178   5.056   2.919   8.276  0.0904  0.5454  0.1956
 5328TIP3    H140179   5.094   2.992   8.326 -0.2400 -0.2599  1.6837
 5328TIP3    H240180   4.978   2.956   8.236 -0.2164  0.9640  1.1491
 5329TIP3   OH240181   6.597   7.428   7.153  0.4698 -0.1476  0.0373
 5329TIP3    H140182   6.624   7.511   7.114  1.8781 -0.4861  0.2478
 5329TIP3    H240183   6.621   7.361   7.089 -0.4750 -0.4314 -0.0476
 5330TIP3   OH240184   1.883   2.323   7.783  0.2868 -0.1540 -0.2324
 5330TIP3    H140185   1.798   2.345   7.819  0.2499  0.4456 -0.6671
 5330TIP3    H240186   1.915   2.405   7.745  1.6747 -0.0183  1.1422
 5331TIP3   OH240187   2.184   4.924   7.705  0.0686  0.3069 -0.4872
 5331TIP3    H140188   2.121   4.967   7.647  1.3712  0.6480 -1.7293
 5331TIP3    H240189   2.255   4.988   7.713 -0.2918  0.4901  1.9651
 5332TIP3   OH240190   4.321   4.542   8.603 -0.2205 -0.1401  0.3430
 5332TIP3    H140191   4.231   4.521   8.629 -0.4599  1.0400  0.5392
 5332TIP3    H240192   4.374   4.511   8.676 -0.3324 -1.9377 -0.3070
 5333TIP3   OH240193   3.795   0.038   9.738  0.0404  0.2356  0.3122
 5333TIP3    H140194   3.793   0.075   9.650  0.1052  0.0070  0.2151
 5333TIP3    H240195   3.704   0.043   9.767 -0.5541 -2.2097 -0.8289
 5334TIP3   OH240196   0.908   1.020   7.894 -0.4087 -0.1745  0.6851
 5334TIP3    H140197   0.914   0.940   7.842 -0.6901  0.1467  0.1437
 5334TIP3    H240198   0.995   1.030   7.933 -0.2071 -0.4462  0.3106
 5335TIP3   OH240199   0.761   5.063   7.912 -0.0034  0.0085  0.5879
 5335TIP3    H140200   0.744   5.052   7.818  0.7018  1.7510  0.2119
 5335TIP3    H240201   0.806   4.983   7.938 -0.1929 -0.4953 -0.5762
 5336TIP3   OH240202   7.435   2.848   8.950 -0.1047  0.0460  0.0637
 5336TIP3    H140203   7.385   2.885   8.877 -0.4846  1.3286  0.9308
 5336TIP3    H240204   7.375   2.785   8.990 -0.2319  0.0190 -0.1651
 5337TIP3   OH240205   0.918   3.363   9.396  0.4274  0.0177 -0.3060
 5337TIP3    H140206   0.995   3.355   9.452  1.0793 -1.2242 -1.3416
 5337TIP3    H240207   0.845   3.336   9.452  0.8000  0.6311  0.4971
 5338TIP3   OH240208   5.340   5.758   7.000 -0.3080 -0.0467  0.1719
 5338TIP3    H140209   5.282   5.782   6.928  0.8672  2.6843  0.0275
 5338TIP3    H240210   5.428   5.776   6.968  0.5133 -1.8645  1.2125
 5339TIP3   OH240211   1.563   7.499   7.452 -0.4293  0.3247 -0.3491
 5339TIP3    H140212   1.520   7.470   7.371 -0.7093  0.3036 -0.1938
 5339TIP3    H240213   1.656   7.482   7.437 -0.4888  0.2416 -0.6342
 5340TIP3   OH240214   3.584   1.217   7.968 -0.2524  0.1635 -0.3015
 5340TIP3    H140215   3.630   1.217   7.884  0.0670 -0.0381 -0.1310
 5340TIP3    H240216   3.653   1.234   8.032 -0.7480  2.1210 -0.2155
 5341TIP3   OH240217   1.366   5.920   8.634  0.4207 -0.2427 -0.0384
 5341TIP3    H140218   1.331   5.968   8.558 -0.5831 -0.5071  0.2386
 5341TIP3    H240219   1.364   5.828   8.607 -1.0264 -0.4573  0.6852
 5342TIP3   OH240220   6.665   0.184   7.717  0.3264  0.8946  0.4704
 5342TIP3    H140221   6.630   0.163   7.630  1.6239 -0.5989  0.2644
 5342TIP3    H240222   6.760   0.181   7.706  0.5157 -0.1199  2.1140
 5343TIP3   OH240223   5.236   5.928   8.917  0.2003  0.2271  0.0852
 5343TIP3    H140224   5.257   5.957   8.828  0.3827 -0.4364 -0.0949
 5343TIP3    H240225   5.321   5.918   8.959  0.1467 -0.1930  0.0948
 5344TIP3   OH240226   2.234   2.998   9.679 -0.8904 -0.3270  0.1668
 5344TIP3    H140227   2.171   2.987   9.609 -1.5209 -1.7603  0.9194
 5344TIP3    H240228   2.240   3.093   9.691 -3.2079 -0.1387  0.3282
 5345TIP3   OH240229   3.730   5.596   9.375 -0.5303  0.5435 -0.3918
 5345TIP3    H140230   3.685   5.672   9.339 -1.8302  0.4688  1.0032
 5345TIP3    H240231   3.821   5.625   9.384 -0.7420  1.4825 -1.0858
 5346TIP3   OH240232   0.700   1.494   8.821  0.0393  0.3635 -0.5629
 5346TIP3    H140233   0.763   1.489   8.893  0.4960  2.9953 -0.6629
 5346TIP3    H240234   0.700   1.587   8.796 -2.8887  0.2151 -1.4777
 5347TIP3   OH240235   4.121   6.645   7.865 -0.3621 -0.5141  0.3196
 5347TIP3    H140236   4.067   6.582   7.914 -1.8798  1.1622  0.9258
 5347TIP3    H240237   4.130   6.719   7.925  2.4950 -0.6263  0.1304
 5348TIP3   OH240238   7.208   0.567   8.510 -0.2483 -0.0788 -0.3163
 5348TIP3    H140239   7.155   0.512   8.568 -3.6212  0.6934 -2.3879
 5348TIP3    H240240   7.228   0.510   8.435  2.1715 -0.4103  0.4992
 5349TIP3   OH240241   7.408   2.653   7.135  0.0957 -0.1530  0.0860
 5349TIP3    H140242   7.490   2.702   7.140 -0.0748  0.2507 -0.9495
 5349TIP3    H240243   7.435   2.563   7.115  0.3472 -0.2770  0.9522
 5350TIP3   OH240244   5.505   2.586   8.701 -0.0672  0.3522  0.1459
 5350TIP3    H140245   5.580   2.530   8.721 -0.4571 -0.7114 -1.2059
 5350TIP3    H240246   5.440   2.565   8.768 -0.4391 -1.3111 -0.6929
 5351TIP3   OH240247   6.808   5.198   6.998  0.3231  0.1471 -0.1926
 5351TIP3    H140248   6.894   5.207   7.038  1.4831 -0.4793 -2.3743
 5351TIP3    H240249   6.749   5.184   7.071  2.0876  0.4257  1.3638
 5352TIP3   OH240250   7.112   3.868   7.608  0.4248 -0.2984  0.5055
 5352TIP3    H140251   7.064   3.852   7.689 -2.3677 -1.4194 -1.1845
 5352TIP3    H240252   7.112   3.782   7.564  2.8022  0.0252 -0.2297
 5353TIP3   OH240253   3.056   6.895   8.498 -0.6349  0.5559  0.2873
 5353TIP3    H140254   3.061   6.865   8.407 -0.3550  0.7430  0.2405
 5353TIP3    H240255   3.110   6.974   8.501 -0.7966  0.6567  0.5724
 5354TIP3   OH240256   0.506   1.727   9.216 -0.2799  0.0315  0.4743
 5354TIP3    H140257   0.490   1.760   9.305  1.4102 -0.6152  1.0531
 5354TIP3    H240258   0.559   1.795   9.175 -2.9431  1.4483 -0.9196
 5355TIP3   OH240259   7.034   5.685   9.336  0.1095 -0.2567 -0.6816
 5355TIP3    H140260   7.069   5.759   9.385  0.1621 -1.1836  0.7349
 5355TIP3    H240261   6.982   5.725   9.266 -1.6430  1.1867  1.2957
 5356TIP3   OH240262   4.103   0.142   7.372 -0.3741 -0.3483  0.0934
 5356TIP3    H140263   4.168   0.073   7.362  3.4632  2.5538  2.1486
 5356TIP3    H240264   4.088   0.175   7.283 -1.2910 -2.8001 -0.7401
 5357TIP3   OH240265   6.871   1.688   7.888 -0.0711  0.4165 -0.3465
 5357TIP3    H140266   6.791   1.640   7.866  0.5154  0.1674 -2.0931
 5357TIP3    H240267   6.861   1.711   7.980 -1.9074 -0.0770 -0.3919
 5358TIP3   OH240268   6.310   5.623   8.678  0.7693 -0.0947 -0.4668
 5358TIP3    H140269   6.297   5.696   8.738  0.3278 -1.0594  0.6614
 5358TIP3    H240270   6.340   5.663   8.597 -0.1825  1.4078 -0.1219
 5359TIP3   OH240271   4.816   7.363   7.864 -0.5891 -0.0894  0.1835
 5359TIP3    H140272   4.759   7.352   7.940  0.3013  0.8012  1.0100
 5359TIP3    H240273   4.828   7.458   7.857  2.0681 -0.2888  1.0522
 5360TIP3   OH240274   6.550   7.315   9.259 -0.0451  0.2708  0.3951
 5360TIP3    H140275   6.568   7.305   9.353  0.9814  1.2799  0.3261
 5360TIP3    H240276   6.559   7.227   9.224  1.9750  0.2406  0.8746
 5361TIP3   OH240277   0.456   6.690   6.925  0.2930 -0.6439  0.2016
 5361TIP3    H140278   0.533   6.745   6.911 -1.1489  1.1025 -1.6485
 5361TIP3    H240279   0.422   6.717   7.011  1.2503 -0.8012  0.6330
 5362TIP3   OH240280   3.958   2.664   8.554  0.8663 -0.6663 -0.0450
 5362TIP3    H140281   3.913   2.668   8.470  0.2969 -1.5191  0.2082
 5362TIP3    H240282   4.000   2.750   8.563 -1.2860  0.4286  0.0513
 5363TIP3   OH240283   4.029   0.919   9.490 -0.3597  0.2329 -0.1333
 5363TIP3    H140284   4.067   1.003   9.466  1.2994 -0.7917 -1.2709
 5363TIP3    H240285   4.102   0.868   9.523 -0.8479 -1.5429 -1.6302
 5364TIP3   OH240286   5.653   3.947   7.683 -0.0713 -0.2669  0.2663
 5364TIP3    H140287   5.688   4.006   7.750 -1.7408 -0.4372  1.3539
 5364TIP3    H240288   5.729   3.927   7.627  0.9885  1.2566  1.0592
 5365TIP3   OH240289   5.298   4.151   7.611 -0.0874  0.4418 -0.2566
 5365TIP3    H140290   5.233   4.219   7.595  0.3814  0.4941 -2.1812
 5365TIP3    H240291   5.378   4.185   7.573  0.4574 -0.6575 -0.1258
 5366TIP3   OH240292   6.165   2.980   9.571  0.0488 -0.0591  0.6539
 5366TIP3    H140293   6.069   2.979   9.568 -0.0552  2.4099  1.2629
 5366TIP3    H240294   6.186   3.038   9.644  1.9723  1.7084 -1.1684
 5367TIP3   OH240295   6.151   0.069   9.031  0.2433  0.6768 -0.4229
 5367TIP3    H140296   6.096   0.136   8.991  0.4318  1.4707  0.5839
 5367TIP3    H240297   6.089   0.001   9.059 -0.1880  1.3164  0.2255
 5368TIP3   OH240298   5.904   5.905   8.101 -0.4032  0.2232  0.2946
 5368TIP3    H140299   5.901   5.932   8.192  1.3228 -1.9182  1.0829
 5368TIP3    H240300   5.980   5.950   8.064 -0.0231 -0.2882  0.4406
 5369TIP3   OH240301   6.383   2.116   9.621 -0.4102  0.2083  0.4857
 5369TIP3    H140302   6.459   2.126   9.564 -0.9041  0.1794 -0.1960
 5369TIP3    H240303   6.354   2.206   9.639 -2.1135  0.2535 -1.9006
 5370TIP3   OH240304   2.556   4.823   6.520  0.2156  0.0333 -0.5321
 5370TIP3    H140305   2.590   4.859   6.601 -3.0367  0.0116  1.0367
 5370TIP3    H240306   2.578   4.730   6.524  0.3493  0.0915  0.1901
 5371TIP3   OH240307   3.544   7.374   7.332 -0.1233  0.3737  0.0140
 5371TIP3    H140308   3.519   7.452   7.383  0.3564  0.2644  0.4260
 5371TIP3    H240309   3.541   7.403   7.241  1.2553  1.2358  0.2192
 5372TIP3   OH240310   1.634   7.226   7.284  0.1816  0.4837  0.2514
 5372TIP3    H140311   1.543   7.220   7.312  0.2795  1.5034  0.8119
 5372TIP3    H240312   1.641   7.161   7.214 -1.5023  1.7558 -1.2035
 5373TIP3   OH240313   0.382   6.452   9.599  1.0148 -0.6604 -0.0052
 5373TIP3    H140314   0.389   6.418   9.509 -0.2651 -1.8786  0.3237
 5373TIP3    H240315   0.439   6.394   9.650 -1.2646 -2.5492  0.5778
 5374TIP3   OH240316   7.392   2.104   9.114 -0.7510 -0.0092  0.1924
 5374TIP3    H140317   7.461   2.129   9.054  0.1472 -1.0401  0.7596
 5374TIP3    H240318   7.347   2.186   9.134  0.7446  0.8115  0.3486
 5375TIP3   OH240319   3.727   4.353   7.936 -0.1686 -1.0179  0.2944
 5375TIP3    H140320   3.688   4.273   7.970 -1.3516 -0.7280 -0.3032
 5375TIP3    H240321   3.654   4.399   7.895  0.5194  0.2849  0.4711
 5376TIP3   OH240322   3.993   3.134   9.616 -0.5542 -0.2941  0.1212
 5376TIP3    H140323   4.036   3.065   9.667  0.0448  0.7070  1.0069
 5376TIP3    H240324   3.915   3.091   9.580 -0.1599 -1.4517  0.5843
 5377TIP3   OH240325   0.098   4.386   7.489  0.2063 -0.3717  0.0272
 5377TIP3    H140326   0.087   4.469   7.443 -0.9141 -0.9391 -0.7802
 5377TIP3    H240327   0.026   4.384   7.552 -1.3222 -1.7486 -1.6182
 5378TIP3   OH240328   1.202   3.534   8.206  0.4876 -0.5972 -0.1848
 5378TIP3    H140329   1.193   3.626   8.183  2.0492 -0.8439 -1.9860
 5378TIP3    H240330   1.130   3.517   8.267  0.6384  1.9823  0.8133
 5379TIP3   OH240331   3.320   0.230   7.659 -0.2483  0.3555 -0.3045
 5379TIP3    H140332   3.389   0.279   7.703 -0.5384  0.9623 -0.5197
 5379TIP3    H240333   3.256   0.212   7.727 -1.0632  1.9503 -0.6069
 5380TIP3   OH240334   4.215   4.670   8.288 -0.0078  0.5150 -0.3598
 5380TIP3    H140335   4.279   4.652   8.219  0.2395 -0.3604  0.0816
 5380TIP3    H240336   4.189   4.583   8.319  0.3025  0.9062  1.0383
 5381TIP3   OH240337   7.400   3.334   8.717  0.8380 -0.2258  0.1487
 5381TIP3    H140338   7.406   3.391   8.794 -0.9099  1.3130 -0.7887
 5381TIP3    H240339   7.447   3.380   8.649  2.2078 -1.4947  0.1893
 5382TIP3   OH240340   0.482   6.729   9.677 -0.2777 -0.1093  0.2792
 5382TIP3    H140341   0.558   6.691   9.721 -0.6024  0.7756  1.6680
 5382TIP3    H240342   0.407   6.686   9.718 -0.5596 -0.4989 -0.6235
 5383TIP3   OH240343   7.074   2.424   8.529  0.4801 -0.5305 -0.0922
 5383TIP3    H140344   7.044   2.337   8.506 -0.7417  0.0511 -0.7777
 5383TIP3    H240345   7.067   2.474   8.447 -3.7128  1.5271  1.2428
 5384TIP3   OH240346   7.223   0.468   6.639  0.4928 -0.0636  0.0550
 5384TIP3    H140347   7.203   0.562   6.635 -0.8130 -0.3247  0.0555
 5384TIP3    H240348   7.283   0.460   6.712  0.2069  0.7157  0.3917
 5385TIP3   OH240349   4.712   2.929   7.793  1.0944 -0.4283  0.3599
 5385TIP3    H140350   4.779   2.915   7.726  1.4350  2.1790  0.0805
 5385TIP3    H240351   4.629   2.909   7.749  1.4241 -0.2039 -0.3677
 5386TIP3   OH240352   0.989   3.289   8.857  0.5751  0.3159 -0.0508
 5386TIP3    H140353   0.935   3.366   8.876 -0.1001  0.3214 -1.8770
 5386TIP3    H240354   0.977   3.233   8.934 -2.7336 -0.0542 -0.6623
 5387TIP3   OH240355   0.972   6.386   8.342 -0.3815  0.0540  0.2368
 5387TIP3    H140356   1.046   6.350   8.392  0.3340  0.6693 -0.3605
 5387TIP3    H240357   1.012   6.447   8.280 -1.3155 -0.1823 -0.6291
 5388TIP3   OH240358   4.980   5.373   8.093 -0.4503 -0.2589  0.7832
 5388TIP3    H140359   5.070   5.406   8.101 -0.5668  0.0807  0.7234
 5388TIP3    H240360   4.943   5.424   8.021 -0.8521 -0.0403  1.1464
 5389TIP3   OH240361   2.471   7.399   9.487 -0.0023 -0.1724  0.3702
 5389TIP3    H140362   2.416   7.412   9.409 -2.5518  0.9958  2.2180
 5389TIP3    H240363   2.444   7.314   9.521  0.2197 -0.1369  0.6369
 5390TIP3   OH240364   6.869   0.645   8.982 -0.0642 -0.2626  0.0675
 5390TIP3    H140365   6.907   0.557   8.973 -0.1146 -0.1017 -2.3416
 5390TIP3    H240366   6.941   0.705   8.964  0.0508  0.2535  2.0317
 5391TIP3   OH240367   4.092   2.711   1.009  0.4718 -0.4392  0.0672
 5391TIP3    H140368   4.007   2.688   1.046 -0.2962  3.8936  1.5688
 5391TIP3    H240369   4.084   2.690   0.915 -2.1300 -0.4856  0.2298
 5392TIP3   OH240370   2.491   2.495   2.042 -0.5606  0.5840 -0.1754
 5392TIP3    H140371   2.582   2.503   2.015 -0.6217 -0.4642 -0.7744
 5392TIP3    H240372   2.492   2.513   2.136  0.4254 -0.3136  0.0103
 5393TIP3   OH240373   3.775   4.608   3.335 -0.0531  0.1757 -0.2265
 5393TIP3    H140374   3.717   4.598   3.410 -1.0056 -0.9037 -1.0595
 5393TIP3    H240375   3.788   4.702   3.326 -2.0767  0.4895 -0.2888
 5394TIP3   OH240376   3.566   6.112   1.000  0.1224  0.0489  0.1073
 5394TIP3    H140377   3.508   6.037   1.005  0.4778 -0.5391 -2.9847
 5394TIP3    H240378   3.511   6.183   0.967  0.5026  0.2800 -0.0397
 5395TIP3   OH240379   4.579   2.437   1.873  0.0689  0.0716  0.2532
 5395TIP3    H140380   4.503   2.453   1.818 -0.5492 -1.0381  0.7507
 5395TIP3    H240381   4.589   2.342   1.873  2.9082  0.2534 -1.7037
 5396TIP3   OH240382   5.939   3.247   2.139 -0.1764  0.0778  0.0741
 5396TIP3    H140383   5.890   3.327   2.121 -1.5312 -1.0362 -1.5525
 5396TIP3    H240384   5.971   3.257   2.229 -0.8715  2.1208  0.1344
 5397TIP3   OH240385   4.706   7.435   0.681 -0.1951  0.3031  0.0046
 5397TIP3    H140386   4.670   7.347   0.693 -0.1826  0.4942  1.6876
 5397TIP3    H240387   4.786   7.435   0.734 -0.8622  1.6982  1.0778
 5398TIP3   OH240388   5.602   4.716   1.154 -0.0003 -0.5084 -0.1156
 5398TIP3    H140389   5.570   4.667   1.229  1.4075 -1.3229 -0.0075
 5398TIP3    H240390   5.673   4.770   1.189  1.1265 -1.4036 -0.9481
 5399TIP3   OH240391   6.515   4.644   2.242 -0.3871  0.1879 -0.5102
 5399TIP3    H140392   6.570   4.605   2.175 -0.7354 -0.1266 -0.6155
 5399TIP3    H240393   6.577   4.681   2.305 -0.0425  1.9093 -1.7991
 5400TIP3   OH240394   2.751   2.294   0.816 -0.3362 -0.0525 -0.4627
 5400TIP3    H140395   2.726   2.208   0.849 -0.6731  0.2968  0.2041
 5400TIP3    H240396   2.766   2.280   0.722  0.7097 -1.0776 -0.1730
 5401TIP3   OH240397   4.764   2.287   2.432 -0.6531  0.1161 -0.4142
 5401TIP3    H140398   4.759   2.321   2.522  0.7057 -0.4137 -0.1025
 5401TIP3    H240399   4.737   2.195   2.440 -1.0708  0.2168 -0.6529
 5402TIP3   OH240400   2.091   2.988   1.194 -0.0398  0.3481 -0.1746
 5402TIP3    H140401   2.095   2.907   1.144  0.0998  0.4957 -0.4010
 5402TIP3    H240402   2.161   2.979   1.259  1.3974  1.1758 -1.5334
 5403TIP3   OH240403   2.275   2.596   1.568 -0.2042 -0.6681  0.2257
 5403TIP3    H140404   2.314   2.559   1.489  0.6781  0.3824  0.1272
 5403TIP3    H240405   2.344   2.588   1.634 -0.3487 -0.1098  0.4525
 5404TIP3   OH240406   0.927   2.952   0.573 -0.4087 -0.5099 -0.2162
 5404TIP3    H140407   0.841   2.984   0.547 -0.4867  0.0687  0.7104
 5404TIP3    H240408   0.969   3.027   0.615 -0.0931 -1.2548  0.8370
 5405TIP3   OH240409   1.798   1.003   3.337  0.1479  0.0025  0.1608
 5405TIP3    H140410   1.855   1.079   3.327  0.9730 -0.5855  0.3669
 5405TIP3    H240411   1.804   0.957   3.254  1.3948 -1.0206  0.7897
 5406TIP3   OH240412   3.372   6.930   3.434 -0.4914 -0.0401  0.1203
 5406TIP3    H140413   3.390   7.012   3.389  1.2909 -0.5621 -0.1974
 5406TIP3    H240414   3.368   6.954   3.527  0.1869  0.3898  0.0473
 5407TIP3   OH240415   5.988   2.586   1.376  0.1412  0.3128  0.3431
 5407TIP3    H140416   6.063   2.526   1.383 -0.8655 -0.9136  1.1820
 5407TIP3    H240417   5.961   2.580   1.285  0.1020 -0.4740  0.3964
 5408TIP3   OH240418   0.910   3.426   2.181  0.5447  0.1351 -0.0064
 5408TIP3    H140419   0.941   3.476   2.257  0.2138 -0.1989  0.3577
 5408TIP3    H240420   0.885   3.493   2.117 -0.0825  0.4480  0.5498
 5409TIP3   OH240421   4.234   6.866   1.636  0.4772 -0.1712 -0.1162
 5409TIP3    H140422   4.303   6.865   1.570  1.2693  3.7409  0.3713
 5409TIP3    H240423   4.153   6.876   1.586  0.5739 -1.5484 -0.5811
 5410TIP3   OH240424   5.508   6.411   1.112  0.3415 -0.0581 -0.1989
 5410TIP3    H140425   5.437   6.370   1.160  0.1477 -0.4604 -0.8222
 5410TIP3    H240426   5.524   6.493   1.158 -0.7448  0.1908 -0.2490
 5411TIP3   OH240427   4.785   1.979   2.542 -0.1538 -0.1670 -0.4749
 5411TIP3    H140428   4.744   2.019   2.619 -3.1572 -0.6907 -1.6396
 5411TIP3    H240429   4.718   1.988   2.473  1.7644 -1.1751 -2.5743
 5412TIP3   OH240430   5.295   3.432   1.752  0.2431  0.7455 -0.1118
 5412TIP3    H140431   5.322   3.492   1.683  0.6566  1.5610  0.7423
 5412TIP3    H240432   5.206   3.406   1.728  0.1405  1.5195 -0.6076
 5413TIP3   OH240433   4.636   4.684   0.997  0.1428  0.0120  0.1133
 5413TIP3    H140434   4.546   4.713   0.981  0.2808  0.1915 -0.3461
 5413TIP3    H240435   4.664   4.735   1.072 -0.5403 -0.9062  1.0287
 5414TIP3   OH240436   1.051   3.331   0.968  0.0289 -0.0468 -0.2027
 5414TIP3    H140437   1.133   3.319   1.017 -1.2311 -0.3889  1.9575
 5414TIP3    H240438   1.004   3.249   0.982 -0.9062  0.3489 -0.9841
 5415TIP3   OH240439   1.781   3.577   0.665 -0.1076  0.2770 -0.1589
 5415TIP3    H140440   1.695   3.606   0.694 -0.7869 -0.8130 -1.0215
 5415TIP3    H240441   1.777   3.482   0.669  1.3012  0.2143  0.4263
 5416TIP3   OH240442   4.219   0.997   2.817 -0.5055 -0.0412 -0.4332
 5416TIP3    H140443   4.211   0.914   2.864  4.9455 -0.5244  0.2649
 5416TIP3    H240444   4.186   1.063   2.878  2.5889 -1.0524  2.6341
 5417TIP3   OH240445   7.374   7.408   1.354 -0.1084 -0.3529  0.1403
 5417TIP3    H140446   7.353   7.354   1.430 -0.0174 -0.2799  0.2179
 5417TIP3    H240447   7.373   7.347   1.281 -0.5995 -0.3479  0.1401
 5418TIP3   OH240448   6.173   1.141   1.217  0.0468 -0.4608 -0.1418
 5418TIP3    H140449   6.265   1.166   1.218  0.1659 -0.8941  0.7450
 5418TIP3    H240450   6.155   1.119   1.126  0.6043  0.3959 -0.4693
 5419TIP3   OH240451   4.470   4.791   2.674  0.0136  0.6145 -0.6008
 5419TIP3    H140452   4.443   4.822   2.760  0.0755  1.1413 -0.7670
 5419TIP3    H240453   4.439   4.700   2.670  1.2646  0.0945  0.5377
 5420TIP3   OH240454   4.532   4.222   2.220 -0.1452 -0.6633 -0.1950
 5420TIP3    H140455   4.619   4.182   2.226 -1.3817 -3.5135  0.2560
 5420TIP3    H240456   4.515   4.256   2.308 -1.5036 -5.0252  1.5288
 5421TIP3   OH240457   2.920   3.177   3.001 -0.1125 -0.0218  0.1891
 5421TIP3    H140458   2.943   3.235   2.928 -1.0267  1.2597  0.8786
 5421TIP3    H240459   2.894   3.095   2.959 -0.3791  0.6063 -0.9087
 5422TIP3   OH240460   4.711   5.369   0.878  0.0063  0.7208  0.4271
 5422TIP3    H140461   4.666   5.397   0.798  1.9723  0.1794 -0.9395
 5422TIP3    H240462   4.781   5.434   0.889 -0.5538  1.0884  2.0427
 5423TIP3   OH240463   2.306   2.291   2.052  0.3885  0.1986  0.3692
 5423TIP3    H140464   2.278   2.331   2.135  1.4168 -2.3218  2.0764
 5423TIP3    H240465   2.387   2.337   2.029  1.0994 -0.2335  1.8331
 5424TIP3   OH240466   6.205   3.580   1.963  0.6823  0.1699  0.1014
 5424TIP3    H140467   6.232   3.600   1.873  0.8870 -0.3222  0.0505
 5424TIP3    H240468   6.112   3.603   1.966  0.7743  0.5750 -0.1173
 5425TIP3   OH240469   6.643   1.696   0.396 -0.4526  0.0605 -0.5530
 5425TIP3    H140470   6.602   1.747   0.465 -1.8050  0.8158 -1.8501
 5425TIP3    H240471   6.622   1.605   0.417  2.5967 -0.1915  2.1960
 5426TIP3   OH240472   2.156   0.257   2.629  0.0302  0.0490 -0.1350
 5426TIP3    H140473   2.147   0.259   2.725  2.4128 -0.8188  0.1821
 5426TIP3    H240474   2.132   0.345   2.602 -0.4370  0.4014  1.3070
 5427TIP3   OH240475   4.256   3.364   2.431 -0.3286 -0.4047 -0.3027
 5427TIP3    H140476   4.275   3.367   2.525  1.7730 -0.8746 -0.6491
 5427TIP3    H240477   4.307   3.289   2.399 -1.5708 -0.6858 -1.7121
 5428TIP3   OH240478   3.811   2.482   2.641  0.4020 -0.4823  0.6858
 5428TIP3    H140479   3.801   2.528   2.558  2.3698  1.4300  1.3970
 5428TIP3    H240480   3.786   2.546   2.708 -1.1258 -1.9757  1.6159
 5429TIP3   OH240481   3.945   4.822   1.201 -0.0191 -0.4352  0.1798
 5429TIP3    H140482   3.892   4.845   1.277  1.1444  1.0594  0.5820
 5429TIP3    H240483   3.882   4.787   1.138 -1.5743  1.7332  0.4333
 5430TIP3   OH240484   6.260   2.405   0.656 -0.0069 -0.3007 -0.6052
 5430TIP3    H140485   6.234   2.495   0.641  1.1726  0.8360  3.1146
 5430TIP3    H240486   6.351   2.401   0.625  0.3016  0.1438  0.2172
 5431TIP3   OH240487   2.901   2.664   1.539  0.0846 -0.3086  0.8511
 5431TIP3    H140488   2.961   2.593   1.561  1.2927  0.4468  0.1080
 5431TIP3    H240489   2.952   2.744   1.554 -1.4416  0.4589  2.2703
 5432TIP3   OH240490   3.322   6.097   1.296 -0.0171  0.3173  0.1530
 5432TIP3    H140491   3.231   6.074   1.278  0.7904 -3.8363  0.5648
 5432TIP3    H240492   3.325   6.112   1.390 -0.4142  1.6463 -0.0193
 5433TIP3   OH240493   5.243   1.457   1.206 -0.1966  0.1312  0.0804
 5433TIP3    H140494   5.228   1.450   1.112  0.7216  1.9414 -0.2633
 5433TIP3    H240495   5.225   1.549   1.226  1.0804  0.1422  1.3672
 5434TIP3   OH240496   0.201   1.340   1.827 -0.3064 -0.6105 -0.6115
 5434TIP3    H140497   0.278   1.284   1.813  0.3452  0.0637  0.2066
 5434TIP3    H240498   0.133   1.279   1.856  0.7761 -0.8492  1.6051
 5435TIP3   OH240499   4.055   5.958   1.763 -0.7131  0.2012  0.3680
 5435TIP3    H140500   4.056   5.904   1.842 -0.7441  1.2158  1.0885
 5435TIP3    H240501   3.972   5.938   1.721 -0.8996 -0.0264  0.8363
 5436TIP3   OH240502   7.226   6.986   1.602  0.1125 -0.4388  0.0913
 5436TIP3    H140503   7.229   6.961   1.510 -1.6855 -0.8989  0.1267
 5436TIP3    H240504   7.315   6.969   1.635  0.7969 -0.2075 -1.5499
 5437TIP3   OH240505   5.885   3.187   1.846 -0.0601  0.5860 -0.2086
 5437TIP3    H140506   5.976   3.215   1.843  0.2942 -0.4945  0.0225
 5437TIP3    H240507   5.838   3.260   1.886  0.7590  1.0154 -0.0185
 5438TIP3   OH240508   0.249   0.568   1.805 -0.1606  0.3558 -0.5719
 5438TIP3    H140509   0.250   0.534   1.895  1.0537 -0.0682 -0.7243
 5438TIP3    H240510   0.198   0.504   1.756 -0.5174  0.3954 -0.2566
 5439TIP3   OH240511   1.049   4.529   1.110  0.3064  0.1894 -0.0535
 5439TIP3    H140512   1.133   4.547   1.066  0.9108  0.5309  1.2027
 5439TIP3    H240513   1.070   4.463   1.175 -0.1705  1.0336  0.9821
 5440TIP3   OH240514   1.018   6.429   1.237  0.6207  0.5818 -0.7628
 5440TIP3    H140515   1.098   6.475   1.213 -0.3685  2.7338 -0.2056
 5440TIP3    H240516   0.986   6.392   1.155  1.5859  0.6792 -1.2000
 5441TIP3   OH240517   2.859   2.180   0.551 -0.3168 -0.4817  0.0535
 5441TIP3    H140518   2.771   2.170   0.514  0.0615 -1.5032 -0.6229
 5441TIP3    H240519   2.905   2.101   0.523  1.4384  0.9434 -1.3133
 5442TIP3   OH240520   5.796   2.295   1.353  0.0706  0.3031  0.1371
 5442TIP3    H140521   5.849   2.366   1.389  0.8715  0.0744 -0.5539
 5442TIP3    H240522   5.800   2.308   1.258 -1.0144  0.1989  0.0711
 5443TIP3   OH240523   7.170   0.711   1.536 -0.1287  0.1713  0.3079
 5443TIP3    H140524   7.132   0.678   1.455 -0.0280  2.5675 -0.8065
 5443TIP3    H240525   7.158   0.806   1.531  1.6520  0.5705  2.1834
 5444TIP3   OH240526   3.923   2.267   3.632  1.0413 -0.1489  0.2376
 5444TIP3    H140527   3.873   2.241   3.555  0.3535 -1.5831  1.1377
 5444TIP3    H240528   3.989   2.199   3.644  0.0883 -0.8476  1.8470
 5445TIP3   OH240529   2.098   7.024   2.449 -0.4485 -0.1817 -0.6664
 5445TIP3    H140530   2.153   6.960   2.405  0.6403 -0.2836  0.7649
 5445TIP3    H240531   2.023   6.973   2.482 -0.5268 -0.3681 -1.1316
 5446TIP3   OH240532   4.203   6.660   1.817 -0.7575 -0.1199 -0.0291
 5446TIP3    H140533   4.283   6.693   1.859 -1.3099  1.7149 -0.3637
 5446TIP3    H240534   4.188   6.719   1.744 -2.2353 -0.6794 -0.2070
 5447TIP3   OH240535   5.203   6.609   2.543  0.8252 -0.2554  0.2616
 5447TIP3    H140536   5.286   6.593   2.586  0.0962 -0.5563  1.6042
 5447TIP3    H240537   5.180   6.698   2.568  0.6898 -0.2020 -0.0396
 5448TIP3   OH240538   1.471   5.832   1.842 -0.4901  0.2460  0.0155
 5448TIP3    H140539   1.498   5.902   1.901  0.2313  0.5341 -0.6488
 5448TIP3    H240540   1.445   5.760   1.900  1.2955  0.1006  0.6958
 5449TIP3   OH240541   4.222   2.225   1.073  0.2829 -0.7586  0.0064
 5449TIP3    H140542   4.308   2.197   1.101 -0.3864 -2.8525  0.1180
 5449TIP3    H240543   4.220   2.319   1.093  2.2284 -0.8187  0.7057
 5450TIP3   OH240544   3.157   0.760   2.529 -0.3540  0.2935  0.9824
 5450TIP3    H140545   3.114   0.805   2.601  0.4166 -0.6097  2.0453
 5450TIP3    H240546   3.241   0.732   2.565 -1.0452 -2.5506  0.6005
 5451TIP3   OH240547   1.513   3.871   2.575 -0.0608  0.1525  0.1681
 5451TIP3    H140548   1.510   3.967   2.580 -0.6557  0.1862 -0.6949
 5451TIP3    H240549   1.467   3.850   2.494  3.0961 -0.6576 -1.5749
 5452TIP3   OH240550   1.070   3.990   1.810 -0.2373  0.3104  0.2613
 5452TIP3    H140551   1.098   3.983   1.901  0.3107  2.3391  0.2920
 5452TIP3    H240552   1.134   4.048   1.769  0.8733 -2.3068 -2.0528
 5453TIP3   OH240553   6.335   6.822   2.575  0.4605 -0.0911 -0.2774
 5453TIP3    H140554   6.374   6.908   2.589 -3.3186  1.7156  0.2216
 5453TIP3    H240555   6.290   6.829   2.491 -0.4573 -1.3482  0.0806
 5454TIP3   OH240556   3.286   0.654   1.383 -0.5950 -0.0046  0.4140
 5454TIP3    H140557   3.303   0.653   1.477 -1.1395 -1.1448  0.5114
 5454TIP3    H240558   3.209   0.598   1.372  0.3077 -1.0338 -0.8672
 5455TIP3   OH240559   4.211   5.961   2.769 -0.0317  0.2040 -0.5520
 5455TIP3    H140560   4.171   5.995   2.689  1.3609  3.0974 -0.1621
 5455TIP3    H240561   4.138   5.949   2.829 -0.8532  0.3715 -1.4866
 5456TIP3   OH240562   2.075   2.754   1.443 -0.2161  0.7396  0.0002
 5456TIP3    H140563   2.137   2.691   1.481  0.5876  0.8740 -1.0329
 5456TIP3    H240564   1.996   2.703   1.427 -0.7023  0.7383  2.0752
 5457TIP3   OH240565   3.004   0.304   1.609 -0.2988  0.1760 -0.3011
 5457TIP3    H140566   3.081   0.293   1.665 -1.0556  3.1288  1.5507
 5457TIP3    H240567   2.930   0.290   1.667 -1.1873 -0.3182 -1.5103
 5458TIP3   OH240568   3.819   4.252   0.606 -0.0620 -0.0827 -0.7661
 5458TIP3    H140569   3.791   4.170   0.565 -0.5105  0.5853 -1.8355
 5458TIP3    H240570   3.913   4.242   0.619 -0.0321 -0.5912 -1.3269
 5459TIP3   OH240571   6.081   6.276   1.690 -0.2125 -0.4992 -0.2342
 5459TIP3    H140572   6.124   6.341   1.745 -1.4837  0.0005  0.2073
 5459TIP3    H240573   6.136   6.197   1.698  1.4065  0.5079 -0.8692
 5460TIP3   OH240574   0.950   2.300   3.493 -0.2127  0.0315  0.1218
 5460TIP3    H140575   1.032   2.339   3.522 -0.1530  0.1995 -0.2602
 5460TIP3    H240576   0.890   2.374   3.483  0.8876  0.6095 -4.0131
 5461TIP3   OH240577   5.623   6.489   2.553  0.4270 -0.6502  0.1117
 5461TIP3    H140578   5.540   6.524   2.584  0.3165 -0.4069 -0.4413
 5461TIP3    H240579   5.682   6.497   2.628  0.4084  0.7393 -0.0102
 5462TIP3   OH240580   0.945   2.401   0.559  0.0528 -0.5463  0.4318
 5462TIP3    H140581   0.887   2.415   0.635 -0.3041 -0.4602  0.1470
 5462TIP3    H240582   0.922   2.471   0.498  0.7438 -0.2701  0.4763
 5463TIP3   OH240583   5.047   7.157   0.773 -0.4639  0.5842 -0.1285
 5463TIP3    H140584   4.966   7.115   0.801 -0.2287  0.2680  0.0856
 5463TIP3    H240585   5.038   7.165   0.678 -0.7113  0.4797 -0.1150
 5464TIP3   OH240586   6.913   3.565   0.787 -0.4437  0.3464  0.1021
 5464TIP3    H140587   6.973   3.534   0.720 -1.1537  1.7236 -1.2431
 5464TIP3    H240588   6.954   3.643   0.822  0.1792 -0.6574  1.7168
 5465TIP3   OH240589   3.766   4.543   2.617 -0.1586  0.5497 -0.2991
 5465TIP3    H140590   3.836   4.601   2.587 -0.7366  1.0935 -0.6196
 5465TIP3    H240591   3.731   4.586   2.695 -0.9440  0.9291 -0.8410
 5466TIP3   OH240592   3.128   0.539   1.737 -0.3702  0.2813  0.1245
 5466TIP3    H140593   3.204   0.502   1.692 -0.2787  0.4644  0.1284
 5466TIP3    H240594   3.054   0.487   1.705 -0.6381  1.8456 -2.0055
 5467TIP3   OH240595   3.642   2.067   3.624 -0.1398 -0.4363 -0.0739
 5467TIP3    H140596   3.550   2.049   3.639 -0.1415 -0.7193 -0.4159
 5467TIP3    H240597   3.644   2.117   3.542 -0.0562  0.2874  0.3631
 5468TIP3   OH240598   1.009   0.855   0.967 -0.6122 -0.6125  0.1362
 5468TIP3    H140599   0.978   0.945   0.970 -0.4407 -0.5631  0.4221
 5468TIP3    H240600   0.975   0.816   1.048 -0.3359 -0.6930  0.2114
 5469TIP3   OH240601   3.603   2.121   1.527 -0.6377  0.0544  0.0289
 5469TIP3    H140602   3.654   2.198   1.554 -1.3638  0.0923  1.3503
 5469TIP3    H240603   3.548   2.153   1.456  0.3826  0.2861 -0.6805
 5470TIP3   OH240604   1.603   2.626   2.800  0.0527  0.0179 -0.1689
 5470TIP3    H140605   1.586   2.673   2.718  1.2640  0.2251 -0.3175
 5470TIP3    H240606   1.548   2.547   2.794 -1.3950  1.0017 -0.2677
 5471TIP3   OH240607   2.104   3.530   0.645  0.4853  0.1886  0.6965
 5471TIP3    H140608   2.059   3.446   0.655  1.2090 -0.2445  0.4114
 5471TIP3    H240609   2.046   3.593   0.687  0.5276 -0.6464  2.0764
 5472TIP3   OH240610   6.826   2.447   2.262  0.2432 -0.1798  0.2169
 5472TIP3    H140611   6.911   2.459   2.305  0.2424 -1.5713  0.6473
 5472TIP3    H240612   6.780   2.383   2.316 -0.4686 -0.6080 -0.8677
 5473TIP3   OH240613   3.463   4.031   1.472 -0.0824  0.0073  0.2390
 5473TIP3    H140614   3.397   4.050   1.539 -1.9357 -0.4717 -1.3636
 5473TIP3    H240615   3.539   4.001   1.521 -0.9812  0.7315  2.1720
 5474TIP3   OH240616   2.654   3.731   1.083  0.4549  0.6349 -0.2532
 5474TIP3    H140617   2.609   3.730   1.168  1.4785  0.0071  0.3029
 5474TIP3    H240618   2.669   3.823   1.065  0.1466  0.7784  0.2007
 5475TIP3   OH240619   0.204   4.586   2.367 -0.0571 -0.1890 -0.0400
 5475TIP3    H140620   0.200   4.593   2.462  1.5977 -0.1184  0.0471
 5475TIP3    H240621   0.156   4.663   2.335  0.1622  0.2800  0.7397
 5476TIP3   OH240622   5.001   7.030   2.152  0.4367  0.2317  0.3915
 5476TIP3    H140623   5.089   7.015   2.116  0.8487 -0.4758  1.6335
 5476TIP3    H240624   4.947   7.048   2.075  1.2651 -1.2586 -0.6113
 5477TIP3   OH240625   2.258   2.413   0.661  0.2932 -0.3498  0.9842
 5477TIP3    H140626   2.274   2.500   0.626 -0.6301 -0.6216 -0.1945
 5477TIP3    H240627   2.168   2.416   0.694  1.0147 -0.2145  3.0883
 5478TIP3   OH240628   4.907   3.514   1.301 -0.2650 -0.4481  0.3968
 5478TIP3    H140629   4.872   3.511   1.211  0.4810 -0.3245  0.0961
 5478TIP3    H240630   4.829   3.519   1.356 -0.7254  0.4372 -0.2914
 5479TIP3   OH240631   2.438   2.433   1.364  0.1087  0.0231  0.5513
 5479TIP3    H140632   2.513   2.493   1.367  0.5952 -0.5978  2.2343
 5479TIP3    H240633   2.463   2.361   1.422 -1.1421 -1.0053 -0.1244
 5480TIP3   OH240634   0.869   1.226   2.096  0.1893  0.1460 -0.0935
 5480TIP3    H140635   0.884   1.321   2.092 -1.0965  0.5080  1.8210
 5480TIP3    H240636   0.815   1.207   2.019 -0.7864  1.2778  0.2728
 5481TIP3   OH240637   1.994   2.189   1.438  0.1376  0.3734  0.0370
 5481TIP3    H140638   2.018   2.275   1.402 -1.8887  0.3438 -1.5929
 5481TIP3    H240639   2.029   2.127   1.374  1.0532 -0.0119  0.8897
 5482TIP3   OH240640   2.737   5.205   2.948 -0.0939  0.2658 -0.1621
 5482TIP3    H140641   2.790   5.148   3.003 -1.3420 -0.9431 -0.1693
 5482TIP3    H240642   2.660   5.225   3.001 -1.5539 -1.3135 -1.5610
 5483TIP3   OH240643   2.067   2.318   2.432 -0.0102  0.1110  0.2889
 5483TIP3    H140644   2.151   2.302   2.389  0.3085  2.9284 -0.3396
 5483TIP3    H240645   2.004   2.321   2.360 -0.7676 -2.1873  0.7728
 5484TIP3   OH240646   0.154   4.113   2.078  0.3740 -0.1561  0.0828
 5484TIP3    H140647   0.246   4.100   2.058  0.1437 -1.1928 -0.3948
 5484TIP3    H240648   0.146   4.206   2.100  0.9575  0.7686 -3.1224
 5485TIP3   OH240649   7.176   6.845   1.370  0.7471  0.1240 -0.0963
 5485TIP3    H140650   7.097   6.893   1.344  0.8807  1.2190  1.3758
 5485TIP3    H240651   7.158   6.754   1.348 -0.3238  0.5591 -1.1318
 5486TIP3   OH240652   2.514   3.225   1.809  0.0888  0.6045  0.0903
 5486TIP3    H140653   2.474   3.199   1.726 -0.5509  0.2336  0.5044
 5486TIP3    H240654   2.506   3.147   1.864 -0.9687  1.3497  1.0336
 5487TIP3   OH240655   5.604   5.109   1.112  0.1508  0.4383  0.0323
 5487TIP3    H140656   5.569   5.070   1.193 -1.7087  0.9374 -0.4783
 5487TIP3    H240657   5.618   5.035   1.054  0.5282  0.1723  0.4500
 5488TIP3   OH240658   1.432   7.006   2.564  0.3567 -0.0545  0.3767
 5488TIP3    H140659   1.391   7.062   2.498 -0.1406 -1.3798 -0.4668
 5488TIP3    H240660   1.519   6.987   2.530  0.4150 -0.0520  0.5221
 5489TIP3   OH240661   0.481   0.436   0.966  0.4092  0.0899  0.3537
 5489TIP3    H140662   0.409   0.499   0.969  2.0617  2.0795  1.3066
 5489TIP3    H240663   0.500   0.426   0.873 -0.5047  0.2470  0.1401
 5490TIP3   OH240664   5.360   5.595   0.757 -0.3867 -0.1063  0.2202
 5490TIP3    H140665   5.337   5.629   0.670  2.4653 -1.6028 -1.2588
 5490TIP3    H240666   5.448   5.629   0.773  0.7849 -3.0481  0.6545
 5491TIP3   OH240667   3.537   0.362   2.508  0.2457  0.4937 -0.1837
 5491TIP3    H140668   3.507   0.317   2.588  1.8023 -1.5107 -0.6231
 5491TIP3    H240669   3.459   0.404   2.473 -0.9474 -0.4313  1.2325
 5492TIP3   OH240670   6.721   5.483   2.829  0.0647  0.2689 -0.0711
 5492TIP3    H140671   6.652   5.428   2.866 -0.4258  1.8619  1.5336
 5492TIP3    H240672   6.722   5.461   2.736 -2.2984 -0.1371 -0.0662
 5493TIP3   OH240673   4.597   5.610   1.866 -0.2610  0.1560 -0.0721
 5493TIP3    H140674   4.532   5.633   1.799  0.3882  0.6831 -0.5319
 5493TIP3    H240675   4.548   5.560   1.931 -1.1717  0.7108 -0.3162
 5494TIP3   OH240676   3.982   2.212   0.672 -0.0330  0.6681 -0.4173
 5494TIP3    H140677   3.915   2.263   0.717 -0.4154 -0.7430  0.6703
 5494TIP3    H240678   3.945   2.196   0.585 -1.3088 -0.4025  0.2845
 5495TIP3   OH240679   0.075   4.407   0.880  0.3871 -0.6684 -0.3841
 5495TIP3    H140680   0.069   4.496   0.845  0.7705 -0.9558 -1.1949
 5495TIP3    H240681   0.120   4.418   0.964  2.1303 -0.2871 -1.3162
 5496TIP3   OH240682   4.451   5.312   2.675  0.3304  0.2830 -0.4217
 5496TIP3    H140683   4.476   5.375   2.743 -1.6052  0.5591  0.0901
 5496TIP3    H240684   4.385   5.257   2.716 -1.1508  0.6695 -2.1614
 5497TIP3   OH240685   3.497   4.835   1.661  0.2328  0.1365  0.6648
 5497TIP3    H140686   3.402   4.841   1.672  0.1052  0.3950 -0.4306
 5497TIP3    H240687   3.510   4.838   1.566  1.3145 -0.2813  0.7923
 5498TIP3   OH240688   1.093   0.321   2.682  0.0746  0.1180 -0.3502
 5498TIP3    H140689   1.108   0.373   2.761 -0.7697  0.6568 -0.5307
 5498TIP3    H240690   1.133   0.372   2.612  0.6260 -0.2506 -0.3087
 5499TIP3   OH240691   3.811   4.524   3.059 -0.2779 -0.4658  0.2023
 5499TIP3    H140692   3.906   4.517   3.072  0.0397  0.3648 -1.3270
 5499TIP3    H240693   3.778   4.558   3.142  0.3843 -3.0968  1.6280
 5500TIP3   OH240694   5.751   0.525   0.320 -0.6180  0.2075 -0.4254
 5500TIP3    H140695   5.682   0.566   0.371 -2.2442 -0.9761 -1.5819
 5500TIP3    H240696   5.832   0.547   0.367 -1.7660  1.5005  1.0441
 5501TIP3   OH240697   4.277   1.500   2.016 -0.4547  0.5642 -0.1469
 5501TIP3    H140698   4.187   1.519   1.990 -0.6164  1.3855  0.9701
 5501TIP3    H240699   4.315   1.457   1.939 -1.9049 -0.1637 -0.5042
 5502TIP3   OH240700   1.255   1.967   3.596  0.0802  0.1061 -0.2522
 5502TIP3    H140701   1.326   1.913   3.559 -0.5692 -0.3104 -0.9193
 5502TIP3    H240702   1.286   1.990   3.684 -0.3162 -2.8045  0.7747
 5503TIP3   OH240703   3.384   4.876   0.963 -0.5984 -0.4126 -0.1947
 5503TIP3    H140704   3.308   4.933   0.973  0.1417  0.5432  0.1965
 5503TIP3    H240705   3.373   4.807   1.028 -0.1454  0.8590  1.2771
 5504TIP3   OH240706   3.395   2.787   0.772 -0.6201 -0.3157 -0.0437
 5504TIP3    H140707   3.370   2.848   0.842  0.4321  0.5956 -0.4191
 5504TIP3    H240708   3.401   2.702   0.815 -1.3603 -0.0265  0.6654
 5505TIP3   OH240709   0.378   6.560   2.292 -0.1521 -0.2890 -0.4602
 5505TIP3    H140710   0.452   6.563   2.352 -0.2139 -1.1665 -0.3208
 5505TIP3    H240711   0.398   6.485   2.235 -0.1939  0.4016 -1.3989
 5506TIP3   OH240712   0.084   2.803   2.546  0.3603 -0.2915  0.3172
 5506TIP3    H140713   0.131   2.883   2.570 -0.8775  0.4913  0.2638
 5506TIP3    H240714   0.064   2.761   2.630  0.5526 -0.2746  0.3723
 5507TIP3   OH240715   1.464   1.472   0.764  0.0334  0.1376 -0.1103
 5507TIP3    H140716   1.424   1.505   0.844 -1.2030  1.3385 -1.1862
 5507TIP3    H240717   1.406   1.401   0.736  1.7524 -1.9348  1.2729
 5508TIP3   OH240718   1.216   6.907   1.785 -0.2003 -0.7134 -0.1485
 5508TIP3    H140719   1.173   6.985   1.751 -1.1797 -1.3726 -0.4855
 5508TIP3    H240720   1.299   6.938   1.822 -0.1594  0.3382 -1.0952
 5509TIP3   OH240721   3.002   5.402   2.309 -0.4717 -0.7500  0.1466
 5509TIP3    H140722   2.917   5.370   2.339  0.3168 -0.6878  2.6318
 5509TIP3    H240723   3.046   5.324   2.275 -1.9098 -0.5740 -2.4270
 5510TIP3   OH240724   3.735   5.706   2.170  1.2687  0.0508  0.6687
 5510TIP3    H140725   3.751   5.717   2.264  2.0466 -0.9327  0.6706
 5510TIP3    H240726   3.723   5.795   2.138  0.6333  0.3817  1.7537
 5511TIP3   OH240727   4.599   5.081   2.829 -0.5280  0.0233 -0.1620
 5511TIP3    H140728   4.579   5.161   2.780 -0.9356  0.5968  0.9176
 5511TIP3    H240729   4.694   5.070   2.820  0.1689  2.6045  2.5328
 5512TIP3   OH240730   7.420   6.503   2.662 -0.1146 -0.4506 -0.0825
 5512TIP3    H140731   7.409   6.419   2.707 -1.0308 -0.2122  0.1405
 5512TIP3    H240732   7.390   6.487   2.573 -0.4033 -0.3289 -0.0078
 5513TIP3   OH240733   3.032   6.473   0.566  0.2621 -0.0567  0.9437
 5513TIP3    H140734   3.085   6.431   0.498  0.7842 -0.5941  1.6634
 5513TIP3    H240735   2.956   6.415   0.577  0.1666  0.0417  0.7974
 5514TIP3   OH240736   0.644   1.801   2.190 -0.3012  0.3672  0.0134
 5514TIP3    H140737   0.567   1.802   2.247  0.1190  1.0292  0.5894
 5514TIP3    H240738   0.711   1.849   2.240  0.0578  1.0251 -1.0625
 5515TIP3   OH240739   2.400   1.292   0.987  0.1688 -0.6261  0.1307
 5515TIP3    H140740   2.434   1.341   1.062  0.8767 -1.1416  0.1562
 5515TIP3    H240741   2.305   1.296   0.997  0.2439 -0.1781  0.7226
 5516TIP3   OH240742   2.627   2.341   3.674  0.3601 -0.0948  0.2951
 5516TIP3    H140743   2.696   2.390   3.717  0.5913  0.2045 -0.4023
 5516TIP3    H240744   2.570   2.408   3.636  0.4229 -0.3479 -0.2658
 5517TIP3   OH240745   3.499   6.474   7.278 -0.1011  0.2448 -0.0377
 5517TIP3    H140746   3.523   6.548   7.333 -1.9208  1.1691 -0.4082
 5517TIP3    H240747   3.457   6.514   7.201 -1.8506 -1.1454  0.1190
 5518TIP3   OH240748   5.468   3.209   1.817 -0.1520  0.1651  0.2603
 5518TIP3    H140749   5.541   3.270   1.807  0.1774 -0.0458  1.1779
 5518TIP3    H240750   5.394   3.251   1.774  0.3793  0.6286 -0.2155
 5519TIP3   OH240751   2.711   7.089   3.854 -0.5727 -0.3564  0.2361
 5519TIP3    H140752   2.640   7.035   3.888 -2.8175  2.0667 -0.2876
 5519TIP3    H240753   2.747   7.038   3.782 -1.0234 -2.1122  1.1912
 5520TIP3   OH240754   3.488   3.272   2.047  0.0679 -0.0486 -0.4862
 5520TIP3    H140755   3.476   3.264   2.141 -1.4517  0.7500 -0.5831
 5520TIP3    H240756   3.566   3.327   2.038 -0.8826  1.5189  0.3679
 5521TIP3   OH240757   7.070   2.855   1.957  0.2066 -0.6511  0.0724
 5521TIP3    H140758   7.072   2.776   2.010  0.9145 -0.3631  0.4924
 5521TIP3    H240759   7.134   2.913   1.999 -0.5115  0.2524 -0.0475
 5522TIP3   OH240760   6.416   4.374   2.122  0.1833 -0.0009 -0.2027
 5522TIP3    H140761   6.410   4.353   2.215 -0.0791 -1.7935 -0.5879
 5522TIP3    H240762   6.326   4.395   2.096 -0.0187 -1.0114 -0.3606
 5523TIP3   OH240763   5.813   7.276   0.802  0.2178 -0.1812 -0.0274
 5523TIP3    H140764   5.846   7.206   0.746 -1.7159 -0.8546 -0.4072
 5523TIP3    H240765   5.781   7.232   0.880 -0.3498  0.3517  0.0543
 5524TIP3   OH240766   3.528   3.982   1.193  0.2828  0.4583 -0.1024
 5524TIP3    H140767   3.489   4.011   1.275 -0.3558 -0.8591  0.0959
 5524TIP3    H240768   3.542   4.062   1.143 -0.3986  1.1811  0.8237
 5525TIP3   OH240769   6.568   2.532   0.856  0.3098  0.6511 -0.1024
 5525TIP3    H140770   6.522   2.488   0.785  1.5673 -0.2963 -0.3649
 5525TIP3    H240771   6.570   2.466   0.927  3.9485 -0.6051 -1.1828
 5526TIP3   OH240772   3.946   0.859   1.018 -0.3225  0.2772 -0.4863
 5526TIP3    H140773   3.926   0.936   0.965 -1.7755 -0.4326 -1.0225
 5526TIP3    H240774   3.907   0.786   0.970  0.0643 -0.6529  0.5660
 5527TIP3   OH240775   7.310   4.975   1.554 -0.3267  0.7894  0.2204
 5527TIP3    H140776   7.269   4.927   1.626 -0.8752 -0.2866 -0.7726
 5527TIP3    H240777   7.335   4.907   1.491  1.5165  1.5581  0.0404
 5528TIP3   OH240778   4.167   4.079   1.282 -0.5979  0.5603  0.0972
 5528TIP3    H140779   4.256   4.044   1.280 -0.7249  0.2327  0.2518
 5528TIP3    H240780   4.173   4.155   1.341 -0.0779  1.4891 -1.1077
 5529TIP3   OH240781   5.511   6.745   7.517  0.2142  0.7150 -0.6307
 5529TIP3    H140782   5.493   6.752   7.424  0.4403  2.0326 -0.5957
 5529TIP3    H240783   5.480   6.828   7.554 -1.5190 -0.4952  0.7649
 5530TIP3   OH240784   5.104   4.565   1.412  0.2683 -0.2427 -0.0923
 5530TIP3    H140785   5.155   4.604   1.341 -1.6478  0.1494 -1.3145
 5530TIP3    H240786   5.071   4.640   1.462 -1.4851 -0.3179 -1.0620
 5531TIP3   OH240787   4.058   6.223   1.871 -0.1879  0.5203  0.2004
 5531TIP3    H140788   4.067   6.147   1.814 -0.3854 -0.6559  1.6685
 5531TIP3    H240789   4.071   6.298   1.814  1.7300 -0.6510 -1.0054
 5532TIP3   OH240790   1.978   2.121   0.748 -0.1906  0.2426  0.0444
 5532TIP3    H140791   2.068   2.091   0.765 -0.1120 -1.4314 -2.7645
 5532TIP3    H240792   1.986   2.216   0.743  1.3801  0.1553  0.1447
 5533TIP3   OH240793   6.603   4.622   2.504  0.2785  0.7490  0.0321
 5533TIP3    H140794   6.608   4.531   2.532  1.1378 -0.0922 -2.5762
 5533TIP3    H240795   6.645   4.671   2.575  0.6067 -0.9637  1.0759
 5534TIP3   OH240796   2.013   5.556   1.140  0.0246  0.3237 -0.0857
 5534TIP3    H140797   2.039   5.636   1.093  0.7933 -0.1693 -0.5387
 5534TIP3    H240798   1.932   5.579   1.185  1.0011  1.8102  0.9869
 5535TIP3   OH240799   3.703   2.683   2.778  0.3413 -0.6850  0.2507
 5535TIP3    H140800   3.626   2.680   2.721  0.6552  0.8723 -0.2933
 5535TIP3    H240801   3.669   2.663   2.865 -0.8146  0.6075  0.1362
 5536TIP3   OH240802   2.780   5.182   1.350  0.4740  0.0598 -0.1969
 5536TIP3    H140803   2.806   5.091   1.360 -1.2380 -0.3133  1.4414
 5536TIP3    H240804   2.854   5.233   1.383  0.2040 -0.8615  1.9407
 5537TIP3   OH240805   4.838   4.358   3.252 -0.4669  0.8650  0.5028
 5537TIP3    H140806   4.871   4.270   3.270  1.5476  1.4073 -0.3006
 5537TIP3    H240807   4.909   4.401   3.204 -2.4796  2.0154 -1.6311
 5538TIP3   OH240808   6.464   3.450   1.472 -0.5184 -0.0686  0.0175
 5538TIP3    H140809   6.476   3.403   1.554 -0.0591  0.6933  0.3898
 5538TIP3    H240810   6.391   3.404   1.429 -0.9331 -0.3196  0.9588
 5539TIP3   OH240811   6.685   1.143   2.540 -0.2729  0.2928 -0.2318
 5539TIP3    H140812   6.745   1.129   2.613 -0.7863 -1.3922 -0.1124
 5539TIP3    H240813   6.653   1.232   2.552 -0.9397 -0.2133  2.0347
 5540TIP3   OH240814   2.975   2.434   0.554  0.2412 -0.0340  0.2809
 5540TIP3    H140815   2.918   2.491   0.501  1.0163  0.6256  0.1293
 5540TIP3    H240816   2.932   2.349   0.552 -2.2980  1.0386  2.5545
 5541TIP3   OH240817   4.419   6.867   1.462 -0.0141  0.5510 -0.0020
 5541TIP3    H140818   4.464   6.947   1.434  1.6030 -0.0281  0.8614
 5541TIP3    H240819   4.418   6.812   1.384  1.5327  0.2524  0.1659
 5542TIP3   OH240820   7.059   3.367   1.102 -0.6907 -0.5671 -0.4484
 5542TIP3    H140821   7.118   3.307   1.147  0.8028  0.8788 -0.4030
 5542TIP3    H240822   7.010   3.409   1.173 -0.1970 -0.1749 -0.3375
 5543TIP3   OH240823   4.173   5.196   1.226  0.0715 -0.9541 -0.2271
 5543TIP3    H140824   4.236   5.134   1.190  0.3114 -1.1157  0.4501
 5543TIP3    H240825   4.206   5.215   1.314  0.3559  0.6230 -0.6361
 5544TIP3   OH240826   5.649   5.903   2.679 -0.4107 -0.3776 -0.4302
 5544TIP3    H140827   5.726   5.941   2.636  0.3423 -1.5640 -0.1983
 5544TIP3    H240828   5.636   5.957   2.757  1.2916 -1.1797  0.4643
 5545TIP3   OH240829   0.460   4.184   0.833 -0.2987  0.4309  0.1079
 5545TIP3    H140830   0.410   4.170   0.752 -0.3013  1.5007 -0.1032
 5545TIP3    H240831   0.523   4.252   0.809  0.0084  0.4204  0.8843
 5546TIP3   OH240832   0.297   6.731   1.258 -0.0706 -0.2726  0.1148
 5546TIP3    H140833   0.365   6.745   1.323 -0.6496 -0.5554  0.7874
 5546TIP3    H240834   0.215   6.736   1.306 -0.6341  1.4903 -0.9259
 5547TIP3   OH240835   4.416   3.959   1.310 -0.5136 -0.0180 -0.1658
 5547TIP3    H140836   4.444   3.874   1.279 -1.0175 -0.4266  0.4720
 5547TIP3    H240837   4.480   3.982   1.378  0.0566  0.4629 -0.8439
 5548TIP3   OH240838   6.188   7.163   1.849  0.1636  0.4922 -0.7232
 5548TIP3    H140839   6.277   7.179   1.882 -0.1498 -0.3384  0.6267
 5548TIP3    H240840   6.147   7.110   1.917 -1.3143  0.6938 -1.4213
 5549TIP3   OH240841   3.109   1.922   1.536 -0.5108  0.2170  0.0550
 5549TIP3    H140842   3.164   1.936   1.459 -0.4486 -0.4789 -0.0402
 5549TIP3    H240843   3.070   1.835   1.522 -0.3829  0.0197  0.8752
 5550TIP3   OH240844   2.258   6.607   1.979 -0.0949 -0.6443 -0.4718
 5550TIP3    H140845   2.272   6.535   1.917  1.7192 -1.3180  0.6288
 5550TIP3    H240846   2.201   6.570   2.046  0.8545 -1.1102  0.1053
 5551TIP3   OH240847   2.683   2.085   2.192  0.1570 -0.0460 -0.0985
 5551TIP3    H140848   2.725   2.144   2.129 -0.8217 -0.2813 -1.0029
 5551TIP3    H240849   2.672   2.138   2.271  0.3684  0.6235 -0.5094
 5552TIP3   OH240850   0.607   4.773   0.614 -0.0123  0.1234  0.0893
 5552TIP3    H140851   0.642   4.725   0.690 -0.6715  0.1378  0.4171
 5552TIP3    H240852   0.563   4.706   0.562 -0.8321  0.3368  0.4863
 5553TIP3   OH240853   1.885   6.775   2.929 -0.1155 -0.0887 -0.1287
 5553TIP3    H140854   1.831   6.729   2.864 -0.2624 -1.1559  0.7094
 5553TIP3    H240855   1.949   6.710   2.956  1.2506  0.9829 -0.6764
 5554TIP3   OH240856   5.531   6.779   1.532  0.5165 -0.1571 -0.2912
 5554TIP3    H140857   5.484   6.722   1.470  1.6714 -0.0684 -1.2775
 5554TIP3    H240858   5.618   6.741   1.537  0.2277 -0.6659  1.9727
 5555TIP3   OH240859   4.911   5.483   0.341 -0.7598  0.0214  0.3916
 5555TIP3    H140860   4.931   5.423   0.269 -1.7879  0.0260  0.0858
 5555TIP3    H240861   4.995   5.521   0.365 -0.2505 -0.7805 -0.0939
 5556TIP3   OH240862   2.824   0.259   2.653  0.6668  0.5054  0.6416
 5556TIP3    H140863   2.892   0.324   2.671 -0.2218  1.3540  1.0217
 5556TIP3    H240864   2.811   0.216   2.738  1.2189 -0.1464  0.4016
 5557TIP3   OH240865   2.400   3.158   3.823  0.0244  0.2235  0.1557
 5557TIP3    H140866   2.417   3.246   3.789 -1.2593  0.1146 -0.8242
 5557TIP3    H240867   2.377   3.106   3.746  0.0178 -0.7835  0.8206
 5558TIP3   OH240868   6.105   0.228   0.594 -0.4765  0.0529  0.1165
 5558TIP3    H140869   6.127   0.172   0.520  2.9238  0.8538  0.3465
 5558TIP3    H240870   6.082   0.167   0.664 -0.2162 -0.9046 -0.6062
 5559TIP3   OH240871   0.834   4.114   0.544 -0.0321 -1.2360  0.5085
 5559TIP3    H140872   0.747   4.094   0.509 -0.2750 -2.0709  1.5150
 5559TIP3    H240873   0.858   4.036   0.594  0.5391 -0.3494  1.6845
 5560TIP3   OH240874   7.134   3.175   1.658  0.1056  0.3083  0.3257
 5560TIP3    H140875   7.212   3.203   1.707  0.1455 -1.3466  1.2686
 5560TIP3    H240876   7.139   3.080   1.658 -0.5067  0.2273 -1.9589
 5561TIP3   OH240877   1.665   2.721   0.733  0.3786 -0.5311 -0.1106
 5561TIP3    H140878   1.578   2.685   0.752 -0.2984  0.8497 -0.3803
 5561TIP3    H240879   1.723   2.678   0.795 -0.6228 -0.9829  0.5487
 5562TIP3   OH240880   3.165   0.774   2.941 -0.3569  0.2908  0.0992
 5562TIP3    H140881   3.240   0.831   2.956 -0.7087  0.3746  1.6535
 5562TIP3    H240882   3.113   0.821   2.875  0.7333  0.4046 -0.7222
 5563TIP3   OH240883   2.492   2.621   3.156  0.1718  0.3480 -0.1072
 5563TIP3    H140884   2.441   2.542   3.137  0.3440  0.1444  0.2783
 5563TIP3    H240885   2.524   2.608   3.245  0.4649  0.7098 -0.1605
 5564TIP3   OH240886   3.142   3.640   1.009 -0.6147  0.1447  0.7377
 5564TIP3    H140887   3.049   3.638   0.986 -0.2534 -0.2592 -0.7954
 5564TIP3    H240888   3.172   3.550   0.996  0.2886  0.5535 -0.1822
 5565TIP3   OH240889   3.791   6.330   0.882 -0.1404 -0.1951  0.0504
 5565TIP3    H140890   3.713   6.355   0.832 -0.4428  0.6700  0.9244
 5565TIP3    H240891   3.757   6.278   0.955  0.0325  0.5240  0.6647
 5566TIP3   OH240892   4.681   6.093   1.607  0.1130  0.0881 -0.2568
 5566TIP3    H140893   4.619   6.096   1.535  0.6138  0.9151 -0.6638
 5566TIP3    H240894   4.696   6.000   1.622 -0.7207 -0.1070 -0.5831
 5567TIP3   OH240895   3.164   4.227   0.370  0.2154 -0.1765 -0.2196
 5567TIP3    H140896   3.253   4.193   0.369  1.1961  2.1191  1.5220
 5567TIP3    H240897   3.131   4.210   0.281  1.8825 -2.2142 -0.5164
 5568TIP3   OH240898   3.510   7.163   1.572  0.0624 -0.0009 -0.3835
 5568TIP3    H140899   3.450   7.238   1.579  0.0797 -0.0597  0.6143
 5568TIP3    H240900   3.573   7.188   1.505  0.0944  0.9142 -0.0255
 5569TIP3   OH240901   0.578   0.590   1.182 -0.2319 -0.2352  0.1693
 5569TIP3    H140902   0.552   0.525   1.117  0.4890 -0.3242 -0.0372
 5569TIP3    H240903   0.615   0.662   1.131 -1.4495  0.5596  0.3658
 5570TIP3   OH240904   2.967   4.165   3.366 -0.1800  0.4351 -0.1449
 5570TIP3    H140905   2.962   4.077   3.405 -0.0652  0.8317  0.7997
 5570TIP3    H240906   2.988   4.149   3.274 -0.3415 -0.5355 -0.0301
 5571TIP3   OH240907   6.900   5.823   1.131  0.0394  0.3014 -0.1898
 5571TIP3    H140908   6.833   5.757   1.147 -0.8856  1.2637  0.0001
 5571TIP3    H240909   6.944   5.835   1.215 -1.1990  1.4205  0.3408
 5572TIP3   OH240910   4.288   0.205   0.529  0.4117  0.1117  0.3118
 5572TIP3    H140911   4.379   0.179   0.518 -0.0440 -1.4354 -0.0456
 5572TIP3    H240912   4.243   0.124   0.553 -1.0291  0.6553 -0.4614
 5573TIP3   OH240913   1.967   5.099   3.387 -0.0339  0.2028 -0.3474
 5573TIP3    H140914   2.022   5.032   3.428  0.7741  1.0464  0.0063
 5573TIP3    H240915   1.905   5.124   3.455 -0.9583 -0.8283 -0.7819
 5574TIP3   OH240916   1.029   4.906   2.497  0.1912 -0.0740  0.2468
 5574TIP3    H140917   1.007   4.958   2.420  0.2959 -0.9506 -0.3980
 5574TIP3    H240918   1.109   4.859   2.472  0.3457 -0.2030  0.9706
 5575TIP3   OH240919   2.570   1.687   2.076  0.3977  0.2110 -0.2666
 5575TIP3    H140920   2.476   1.674   2.088  0.4651 -0.2017 -0.1759
 5575TIP3    H240921   2.602   1.712   2.163  0.4653 -0.2202 -0.1667
 5576TIP3   OH240922   4.589   6.527   1.124 -0.6666 -0.3070  0.2543
 5576TIP3    H140923   4.627   6.532   1.037  1.1577  0.2096  1.0517
 5576TIP3    H240924   4.551   6.439   1.128 -0.8481 -0.3116 -1.0604
 5577TIP3   OH240925   2.603   4.663   1.407  0.1918  0.2690 -0.3803
 5577TIP3    H140926   2.626   4.571   1.422 -0.6748  0.2641  1.2070
 5577TIP3    H240927   2.634   4.682   1.319  1.6016 -1.1516 -0.2269
 5578TIP3   OH240928   6.392   1.581   2.149 -0.1811 -0.3833 -0.5223
 5578TIP3    H140929   6.333   1.622   2.212 -1.0993 -1.3928 -0.7014
 5578TIP3    H240930   6.459   1.647   2.132 -2.4504  1.7277 -1.9987
 5579TIP3   OH240931   2.442   2.664   0.830  0.5519  0.2430  0.5621
 5579TIP3    H140932   2.427   2.578   0.869 -0.7480  1.1151  2.1361
 5579TIP3    H240933   2.437   2.724   0.904  1.4650  1.6854 -0.5000
 5580TIP3   OH240934   5.216   1.055   3.009  0.4108 -0.4875 -0.1197
 5580TIP3    H140935   5.123   1.048   3.031  0.2087 -0.2990 -0.8689
 5580TIP3    H240936   5.217   1.105   2.927  1.2725  1.0963  0.8008
 5581TIP3   OH240937   7.362   5.687   1.026  0.3971 -0.6634 -0.5322
 5581TIP3    H140938   7.282   5.652   0.988 -0.8199  1.1361  0.2404
 5581TIP3    H240939   7.336   5.717   1.113  1.0769  2.7576 -1.3628
 5582TIP3   OH240940   4.022   5.677   1.199 -0.0253  0.5385 -0.8856
 5582TIP3    H140941   3.934   5.709   1.220  0.6603  0.3752  3.0399
 5582TIP3    H240942   4.081   5.742   1.239  1.5070 -1.9061  1.0959
 5583TIP3   OH240943   6.264   6.374   2.664 -0.1964 -0.2467  0.8491
 5583TIP3    H140944   6.243   6.434   2.735  0.5046 -0.2292  1.0453
 5583TIP3    H240945   6.306   6.300   2.707  1.2536  0.2585  0.3507
 5584TIP3   OH240946   4.319   7.454   2.649  0.0208  0.2474  0.3781
 5584TIP3    H140947   4.323   7.358   2.648  2.5774  0.2731  1.0691
 5584TIP3    H240948   4.368   7.479   2.727  0.7669  2.1621 -0.6533
 5585TIP3   OH240949   6.843   6.100   2.388 -0.1460  0.3262  0.5068
 5585TIP3    H140950   6.768   6.156   2.367 -0.8274 -0.7451 -0.0343
 5585TIP3    H240951   6.897   6.102   2.310  0.3526  1.0181  0.8602
 5586TIP3   OH240952   5.219   0.206   2.512  0.3038  0.6980  0.4495
 5586TIP3    H140953   5.202   0.149   2.437 -1.8597  0.7576  0.8353
 5586TIP3    H240954   5.139   0.257   2.522  0.5406  0.6901  2.8067
 5587TIP3   OH240955   4.423   3.628   1.508  0.5612  0.0609  0.2218
 5587TIP3    H140956   4.338   3.656   1.473  1.2349  0.7739 -0.8550
 5587TIP3    H240957   4.402   3.596   1.596 -1.2177 -1.9962 -0.8379
 5588TIP3   OH240958   5.542   4.062   0.925  0.2593 -0.3124  0.1922
 5588TIP3    H140959   5.539   4.096   1.015  2.8528  1.8797 -0.4330
 5588TIP3    H240960   5.461   4.094   0.886  1.2398  2.9185  0.5045
 5589TIP3   OH240961   3.753   6.221   0.393 -0.2349  0.3747 -0.6684
 5589TIP3    H140962   3.818   6.160   0.428 -1.3303  0.7299  2.2713
 5589TIP3    H240963   3.675   6.169   0.379 -1.0928  0.8951  1.6059
 5590TIP3   OH240964   0.773   5.615   2.761  0.5302  0.3679  0.4052
 5590TIP3    H140965   0.807   5.575   2.841 -1.2181  0.9922  1.5249
 5590TIP3    H240966   0.682   5.586   2.756  0.1675  1.5462 -0.5304
 5591TIP3   OH240967   4.182   6.939   2.199 -0.3129  0.0192  0.2740
 5591TIP3    H140968   4.268   6.965   2.166 -0.7210  0.4306 -0.4741
 5591TIP3    H240969   4.169   6.850   2.165 -1.2574  0.8881 -1.7473
 5592TIP3   OH240970   5.906   0.579   2.227  0.7823 -0.2564  0.2080
 5592TIP3    H140971   5.862   0.510   2.277 -0.0771  0.9424  1.1570
 5592TIP3    H240972   5.838   0.645   2.213  1.5440  0.3350 -0.8427
 5593TIP3   OH240973   4.848   4.242   2.434  0.3694 -0.1861  0.0896
 5593TIP3    H140974   4.818   4.152   2.420  2.6076 -0.9883  0.0653
 5593TIP3    H240975   4.874   4.244   2.526 -1.3445  1.0155  0.5948
 5594TIP3   OH240976   5.843   2.406   2.434  0.6372  0.0962 -0.1429
 5594TIP3    H140977   5.897   2.327   2.443 -0.2390 -0.3896  1.2213
 5594TIP3    H240978   5.906   2.476   2.416  1.6097 -0.6325  0.3219
 5595TIP3   OH240979   0.073   6.009   2.032 -0.1258 -0.7348  0.2306
 5595TIP3    H140980   0.070   6.100   2.003 -0.9927 -1.3692 -1.8953
 5595TIP3    H240981   0.166   5.988   2.038  0.1601  0.8397  2.8914
 5596TIP3   OH240982   6.674   7.140   2.030 -0.5427 -0.3786 -0.8264
 5596TIP3    H140983   6.664   7.048   2.006 -1.9618 -0.7418  0.9590
 5596TIP3    H240984   6.766   7.147   2.057 -0.8456 -1.7515  0.7450
 5597TIP3   OH240985   2.119   6.027   1.809 -0.3660 -0.3089  0.7784
 5597TIP3    H140986   2.198   6.077   1.789 -1.2256  1.0932  0.7645
 5597TIP3    H240987   2.058   6.050   1.739 -0.6184 -1.8121  0.4763
 5598TIP3   OH240988   4.864   0.914   2.233 -0.0142 -0.0265 -0.2763
 5598TIP3    H140989   4.958   0.914   2.252 -0.1650 -2.6511  0.9441
 5598TIP3    H240990   4.859   0.902   2.138  0.9450 -1.3667 -0.1928
 5599TIP3   OH240991   5.544   5.506   1.343 -0.2314  0.0414  0.5669
 5599TIP3    H140992   5.487   5.433   1.367 -1.7847  1.0836  0.2478
 5599TIP3    H240993   5.494   5.584   1.368  1.6740  1.0132  1.5666
 5600TIP3   OH240994   1.650   0.451   1.968 -0.0107  0.1928  0.2343
 5600TIP3    H140995   1.578   0.393   1.942  1.4041 -0.7911 -1.7918
 5600TIP3    H240996   1.699   0.466   1.887  1.4306  1.7529  1.3238
 5601TIP3   OH240997   0.985   2.307   1.480 -0.5991 -0.0120  0.1376
 5601TIP3    H140998   0.913   2.366   1.458 -1.5524 -1.0809  0.2644
 5601TIP3    H240999   1.063   2.362   1.480 -1.3440  1.0764 -0.5201
 5602TIP3   OH241000   6.458   1.907   1.224  0.0860 -0.0855 -0.3312
 5602TIP3    H141001   6.550   1.930   1.239 -0.1365  2.1113 -1.8779
 5602TIP3    H241002   6.458   1.861   1.140 -0.1062 -1.4064  0.3591
 5603TIP3   OH241003   5.719   0.221   0.813 -0.1112 -0.1523 -0.0552
 5603TIP3    H141004   5.760   0.249   0.731  0.2787  2.0312  0.8030
 5603TIP3    H241005   5.723   0.126   0.811  0.0519 -0.1586 -2.4707
 5604TIP3   OH241006   7.422   6.014   1.050 -0.3699 -0.3899 -0.3250
 5604TIP3    H141007   7.336   5.972   1.055 -0.2833 -0.4006  3.0118
 5604TIP3    H241008   7.484   5.941   1.038 -0.5580 -0.8474  1.2808
 5605TIP3   OH241009   2.757   1.293   2.780  0.1049  0.3528  0.1612
 5605TIP3    H141010   2.812   1.233   2.730  1.1466  1.4620 -0.0650
 5605TIP3    H241011   2.691   1.323   2.717 -2.4482 -2.8492  1.0188
 5606TIP3   OH241012   5.264   1.786   1.506  0.0705 -0.4619 -0.8587
 5606TIP3    H141013   5.331   1.784   1.438 -0.3571 -0.0267 -1.3058
 5606TIP3    H241014   5.192   1.836   1.467 -1.1233 -2.1463 -0.9373
 5607TIP3   OH241015   6.789   5.233   1.786 -0.0789  0.8616  0.6616
 5607TIP3    H141016   6.774   5.327   1.775 -0.1243  0.6692 -1.1473
 5607TIP3    H241017   6.701   5.195   1.788 -0.0597  0.8460  1.3345
 5608TIP3   OH241018   3.799   1.885   2.570 -0.0794  0.1265  0.0685
 5608TIP3    H141019   3.894   1.890   2.570 -0.1284  1.3618  0.0562
 5608TIP3    H241020   3.779   1.802   2.526  0.9748  0.3177 -0.8025
 5609TIP3   OH241021   6.850   0.504   0.388 -0.9530  0.2729 -0.3292
 5609TIP3    H141022   6.768   0.538   0.423 -0.3133  0.3849  1.1055
 5609TIP3    H241023   6.839   0.409   0.389 -1.1509  0.2945 -0.3903
 5610TIP3   OH241024   4.668   2.710   1.769 -0.3638  0.7844 -0.0094
 5610TIP3    H141025   4.727   2.741   1.838 -0.6366  1.0235  0.1154
 5610TIP3    H241026   4.637   2.625   1.801  0.1115  0.5354 -0.1937
 5611TIP3   OH241027   0.896   0.115   1.951  0.5160 -0.2825 -0.2279
 5611TIP3    H141028   0.837   0.179   1.991  1.0139  0.6277 -0.9111
 5611TIP3    H241029   0.958   0.168   1.900  1.5460 -1.2481 -0.0277
 5612TIP3   OH241030   4.258   4.923   1.294 -0.0813 -0.0194  0.1814
 5612TIP3    H141031   4.286   4.904   1.384  2.3366  1.0043 -0.2656
 5612TIP3    H241032   4.163   4.913   1.296  0.1464 -2.8647  2.1238
 5613TIP3   OH241033   4.548   2.475   0.650 -0.8846  0.0934  0.3077
 5613TIP3    H141034   4.602   2.407   0.610 -1.1590 -0.0371  0.1598
 5613TIP3    H241035   4.462   2.464   0.611 -0.5191  1.6285 -1.0562
 5614TIP3   OH241036   4.322   3.247   1.699  0.2205 -0.1961  0.7821
 5614TIP3    H141037   4.249   3.202   1.657 -1.1768  1.5048  1.2927
 5614TIP3    H241038   4.370   3.287   1.627 -0.4163  0.1925  0.5628
 5615TIP3   OH241039   0.411   4.107   1.978 -0.1675 -0.0957  0.2056
 5615TIP3    H141040   0.452   4.190   1.958 -2.7297  0.7621 -2.1089
 5615TIP3    H241041   0.467   4.041   1.937  0.6908  0.6652  0.1268
 5616TIP3   OH241042   3.987   2.386   0.942 -0.2166  0.8974  0.0749
 5616TIP3    H141043   3.978   2.452   1.011  1.0306  1.1940 -0.0295
 5616TIP3    H241044   4.081   2.376   0.930 -0.3977 -0.2249 -0.5733
 5617TIP3   OH241045   3.661   0.183   1.181 -0.6206 -0.2552  0.0055
 5617TIP3    H141046   3.589   0.132   1.143 -1.6751 -0.0277  1.6228
 5617TIP3    H241047   3.723   0.118   1.212 -0.7262 -0.4806 -0.2529
 5618TIP3   OH241048   3.950   1.407   1.325  0.2204 -0.2480 -0.3543
 5618TIP3    H141049   3.987   1.471   1.263  0.8526 -1.5762 -1.4198
 5618TIP3    H241050   4.027   1.368   1.367 -0.1392 -0.6054 -0.0276
 5619TIP3   OH241051   3.049   1.102   0.589 -0.0066  0.2575  0.1391
 5619TIP3    H141052   3.023   1.191   0.567  1.4434  1.0733  1.5004
 5619TIP3    H241053   2.976   1.067   0.640  0.1971  1.3816  1.2462
 5620TIP3   OH241054   7.423   2.325   2.945 -0.0178  0.0336 -0.2973
 5620TIP3    H141055   7.465   2.406   2.974 -0.7689  1.1782 -2.2132
 5620TIP3    H241056   7.331   2.337   2.968  0.0075 -0.7119  0.2354
 5621TIP3   OH241057   6.168   3.418   0.378 -0.0685 -0.3416 -0.0679
 5621TIP3    H141058   6.168   3.512   0.360 -0.6187 -0.1650  0.8152
 5621TIP3    H241059   6.106   3.407   0.450  0.2562 -1.3356  0.0743
 5622TIP3   OH241060   2.469   6.416   1.726  0.2484 -0.0427 -0.1303
 5622TIP3    H141061   2.517   6.386   1.649  1.4428 -0.4269  0.7493
 5622TIP3    H241062   2.530   6.474   1.772 -1.3667  2.4294 -0.8511
 5623TIP3   OH241063   1.013   3.779   2.738  0.1594  0.2978  0.2005
 5623TIP3    H141064   0.974   3.800   2.653 -0.5604  0.3296  0.5354
 5623TIP3    H241065   1.021   3.683   2.738  1.3174  0.3712 -0.3954
 5624TIP3   OH241066   1.899   2.876   2.851 -0.2405  0.0075  0.1927
 5624TIP3    H141067   1.837   2.925   2.904  1.0932  0.4310  1.4370
 5624TIP3    H241068   1.952   2.943   2.808 -0.2672 -0.3364 -0.3765
 5625TIP3   OH241069   4.561   0.161   0.592 -0.8998 -0.1389  0.0006
 5625TIP3    H141070   4.614   0.094   0.636 -0.4974 -1.1599 -1.9381
 5625TIP3    H241071   4.573   0.239   0.645 -0.8917 -1.4175  2.0090
 5626TIP3   OH241072   0.911   5.839   2.808  0.4321 -0.4095  0.2148
 5626TIP3    H141073   0.984   5.821   2.867 -0.6267 -1.1097  1.3475
 5626TIP3    H241074   0.878   5.753   2.783  0.3155 -0.1046 -0.7062
 5627TIP3   OH241075   5.044   5.675   0.656 -0.4967 -0.1480 -0.0735
 5627TIP3    H141076   5.079   5.764   0.662 -0.3541 -0.1900 -0.2633
 5627TIP3    H241077   4.999   5.661   0.740 -1.8686  0.6672 -0.6397
 5628TIP3   OH241078   4.103   5.848   2.201 -0.1272 -0.0385  0.4326
 5628TIP3    H141079   4.183   5.870   2.153 -1.8897  0.3486 -2.5765
 5628TIP3    H241080   4.070   5.932   2.232  0.1280 -0.0870  0.8414
 5629TIP3   OH241081   0.190   1.366   0.674 -0.2618 -0.3001 -0.6292
 5629TIP3    H141082   0.173   1.458   0.693  0.3201  0.0726 -1.8404
 5629TIP3    H241083   0.113   1.320   0.709  0.1759  0.4277  1.4807
 5630TIP3   OH241084   2.650   1.095   0.343 -0.0822  0.7994  0.2039
 5630TIP3    H141085   2.619   1.096   0.252  0.6515  0.6631 -0.0493
 5630TIP3    H241086   2.721   1.031   0.344 -0.2469  0.6180  0.9321
 5631TIP3   OH241087   4.945   4.411   1.065 -0.2141  0.1489  0.0627
 5631TIP3    H141088   4.967   4.501   1.044  0.3150  0.3340  1.3020
 5631TIP3    H241089   5.006   4.387   1.135 -1.6488 -0.4812  1.1661
 5632TIP3   OH241090   0.357   7.124   1.828 -0.0187 -0.2820 -0.5005
 5632TIP3    H141091   0.450   7.107   1.816 -0.0240  0.4934 -1.8920
 5632TIP3    H241092   0.320   7.040   1.856  1.1529 -0.4797  0.5185
 5633TIP3   OH241093   5.019   0.205   2.156 -0.3861 -0.1041 -0.1829
 5633TIP3    H141094   4.965   0.250   2.090 -1.1837 -1.2574 -0.3496
 5633TIP3    H241095   4.963   0.202   2.234 -0.0146 -0.0648  0.0846
 5634TIP3   OH241096   4.195   0.398   0.711 -0.0925  0.5517 -0.9408
 5634TIP3    H141097   4.115   0.433   0.672 -0.8695  0.0872  0.1658
 5634TIP3    H241098   4.230   0.337   0.646  0.0733  1.6977 -1.9600
 5635TIP3   OH241099   0.975   5.830   2.030 -0.0529 -0.8490 -0.1492
 5635TIP3    H141100   0.957   5.736   2.027 -1.0799 -0.6717  0.0966
 5635TIP3    H241101   0.916   5.863   2.099  0.4564 -0.0623 -0.0864
 5636TIP3   OH241102   0.207   6.490   2.833 -0.1328  0.1152  0.4181
 5636TIP3    H141103   0.286   6.482   2.885  0.0772 -0.4429  0.0181
 5636TIP3    H241104   0.178   6.400   2.818  0.3355  0.1912 -1.1998
 5637TIP3   OH241105   6.586   5.746   0.580  0.1800  0.3659 -0.2474
 5637TIP3    H141106   6.640   5.800   0.637  0.9782 -0.5229 -0.1510
 5637TIP3    H241107   6.496   5.771   0.602  0.5277  1.9188 -0.4803
 5638TIP3   OH241108   4.808   4.055   0.536  0.3125 -0.3452 -0.2066
 5638TIP3    H141109   4.855   4.135   0.514 -1.0185  0.2188 -1.1402
 5638TIP3    H241110   4.825   3.996   0.463  1.9536 -1.2500  0.8609
 5639TIP3   OH241111   3.854   7.043   2.615  0.0073  0.0747 -0.2180
 5639TIP3    H141112   3.891   7.026   2.528  2.3383 -0.2235  0.7807
 5639TIP3    H241113   3.913   7.107   2.654 -1.5668  0.9645  0.8332
 5640TIP3   OH241114   0.792   5.590   2.423  0.1989  0.1333 -0.4788
 5640TIP3    H141115   0.727   5.621   2.360 -0.6566  1.0084  0.7894
 5640TIP3    H241116   0.777   5.643   2.501 -0.5027 -2.5893  1.3872
 5641TIP3   OH241117   4.145   1.505   2.324  0.5748  0.2942 -0.0607
 5641TIP3    H141118   4.128   1.576   2.263  1.1976  1.4763  1.0882
 5641TIP3    H241119   4.232   1.472   2.301  0.0864 -0.4460 -0.9014
 5642TIP3   OH241120   2.870   4.930   0.733  0.5422  0.2503 -0.0137
 5642TIP3    H141121   2.894   4.839   0.750 -0.0907 -0.1689 -1.2501
 5642TIP3    H241122   2.832   4.929   0.645 -1.6746  1.2945  0.8658
 5643TIP3   OH241123   4.646   4.945   0.777 -0.4277 -0.2171 -0.4815
 5643TIP3    H141124   4.575   4.891   0.743 -0.3397 -0.9384  0.4302
 5643TIP3    H241125   4.719   4.883   0.787  0.1645  0.4024 -0.8977
 5644TIP3   OH241126   4.154   7.474   1.499 -0.3166 -0.6097  0.3237
 5644TIP3    H141127   4.162   7.428   1.582  0.5803 -1.1566 -0.0525
 5644TIP3    H241128   4.217   7.431   1.441 -1.9175 -1.1987 -1.0767
 5645TIP3   OH241129   4.613   0.039   2.243  0.1011 -0.1805  0.2202
 5645TIP3    H141130   4.648   0.032   2.154  0.0265  0.1209  0.1689
 5645TIP3    H241131   4.614  -0.051   2.275  1.3391 -0.1274  0.3807
 5646TIP3   OH241132   4.327   1.224   0.642 -0.5030 -0.4188  0.1574
 5646TIP3    H141133   4.351   1.132   0.637  1.4629  0.1042 -2.4216
 5646TIP3    H241134   4.247   1.232   0.590 -0.7595 -0.6643  0.5090
 5647TIP3   OH241135   3.949   6.023   0.461  0.0206  0.2486  0.6433
 5647TIP3    H141136   3.931   5.999   0.552 -0.9486  0.2265  0.4564
 5647TIP3    H241137   3.910   5.952   0.409 -1.0264  1.1330  0.1589
 5648TIP3   OH241138   1.352   0.824   0.537 -0.3753  0.0026  0.2176
 5648TIP3    H141139   1.374   0.910   0.502 -2.2914  0.0389 -1.1109
 5648TIP3    H241140   1.288   0.842   0.606 -0.5098 -0.3149  0.1797
 5649TIP3   OH241141   1.997   2.968   0.773  0.0665 -0.3699 -0.2266
 5649TIP3    H141142   1.959   2.911   0.706 -0.9551  1.2367 -1.0589
 5649TIP3    H241143   1.922   3.006   0.818  0.7315  0.2853  0.3528
 5650TIP3   OH241144   4.268   5.532   0.494 -0.1505 -0.0355  0.3817
 5650TIP3    H141145   4.181   5.566   0.517 -0.4757 -0.3805 -0.2935
 5650TIP3    H241146   4.321   5.611   0.482  0.2832  0.1723  3.0621
 5651TIP3   OH241147   3.828   4.261   1.479 -0.5934 -0.2328 -0.1917
 5651TIP3    H141148   3.790   4.341   1.443  0.5078  0.9357  1.0974
 5651TIP3    H241149   3.805   4.263   1.572  1.5001 -0.0988  0.3778
 5652TIP3   OH241150   6.894   1.379   2.630  0.5317 -0.6127 -0.2457
 5652TIP3    H141151   6.822   1.385   2.692  0.3017 -0.1736 -0.5440
 5652TIP3    H241152   6.938   1.297   2.651 -0.6955 -1.4270 -0.7389
 5653TIP3   OH241153   3.626   4.472   0.985  0.0241  0.0787  0.5521
 5653TIP3    H141154   3.694   4.406   0.995  0.6505  0.2661 -1.9474
 5653TIP3    H241155   3.564   4.453   1.055  0.6685 -2.5566  0.5073
 5654TIP3   OH241156   1.519   4.048   1.736  0.2820  0.4855 -0.1359
 5654TIP3    H141157   1.533   4.017   1.646  1.6999 -0.7005  0.4606
 5654TIP3    H241158   1.468   3.978   1.777  1.9645 -0.2709  0.7225
 5655TIP3   OH241159   2.490   0.707   1.462 -0.0325 -0.5732 -0.6366
 5655TIP3    H141160   2.502   0.616   1.490 -0.9225 -0.4891  0.0446
 5655TIP3    H241161   2.567   0.753   1.495 -0.4213 -0.7416  0.5224
 5656TIP3   OH241162   6.219   5.921   1.363  0.3339 -0.0960  0.1480
 5656TIP3    H141163   6.192   5.848   1.308 -1.0889  1.1259 -0.8417
 5656TIP3    H241164   6.292   5.961   1.316  0.8142 -0.5944  0.4626
 5657TIP3   OH241165   0.273   0.521   0.583 -0.0451 -0.4537 -0.0257
 5657TIP3    H141166   0.303   0.437   0.547 -0.1992 -0.6592  0.3236
 5657TIP3    H241167   0.186   0.501   0.619 -0.1242 -0.1193 -0.0347
 5658TIP3   OH241168   4.978   1.343   2.250 -0.1511 -0.5945 -0.0198
 5658TIP3    H141169   5.070   1.355   2.225 -0.1843  0.8444  0.4517
 5658TIP3    H241170   4.978   1.265   2.305  0.3642 -2.1470 -2.0912
 5659TIP3   OH241171   4.397   3.623   2.137 -0.8266  0.3217  0.1152
 5659TIP3    H141172   4.404   3.538   2.095  0.4217 -0.8905  2.5571
 5659TIP3    H241173   4.380   3.684   2.066 -1.2923 -1.8886 -1.7679
 5660TIP3   OH241174   3.558   2.252   3.055  0.3983  0.9654 -0.0119
 5660TIP3    H141175   3.634   2.309   3.053  0.4239  1.0996  2.2020
 5660TIP3    H241176   3.492   2.298   3.002  1.8622  0.7297 -2.1455
 5661TIP3   OH241177   7.395   0.809   2.691 -0.9521  0.2110 -0.2274
 5661TIP3    H141178   7.312   0.784   2.732 -1.5124  0.1243 -1.3856
 5661TIP3    H241179   7.370   0.861   2.615  0.0624  0.3308 -0.4993
 5662TIP3   OH241180   2.364   5.848   1.372 -0.3229 -0.0287 -0.2270
 5662TIP3    H141181   2.430   5.917   1.385 -0.5014  0.1170 -0.0820
 5662TIP3    H241182   2.415   5.768   1.361 -0.1342  0.0121  0.3207
 5663TIP3   OH241183   3.171   3.085   1.212  0.3562  0.2376 -0.2034
 5663TIP3    H141184   3.120   3.165   1.209  0.0149  0.1174  1.3129
 5663TIP3    H241185   3.261   3.114   1.229 -0.0649  0.2900  2.3471
 5664TIP3   OH241186   2.333   4.102   0.452  0.0281 -0.2664 -0.1735
 5664TIP3    H141187   2.332   4.198   0.452  0.4882 -0.2412 -1.4481
 5664TIP3    H241188   2.255   4.077   0.402  0.0019 -0.5559  0.0082
 5665TIP3   OH241189   0.238   2.993   2.676 -0.0427  0.5650 -0.2828
 5665TIP3    H141190   0.281   2.964   2.757 -2.3830 -2.5372  0.0682
 5665TIP3    H241191   0.159   3.038   2.706  0.3033  1.6261 -0.9031
 5666TIP3   OH241192   3.110   2.825   1.867 -0.1874  0.1328  0.2404
 5666TIP3    H141193   3.045   2.768   1.909 -0.2108 -0.4284 -0.5286
 5666TIP3    H241194   3.102   2.908   1.914 -0.9083 -0.1667  0.6798
 5667TIP3   OH241195   1.253   5.842   1.298  0.1827  0.1344  0.3408
 5667TIP3    H141196   1.169   5.809   1.332  0.4999 -2.4093 -1.0783
 5667TIP3    H241197   1.256   5.933   1.326 -2.0643 -0.2905  2.2821
 5668TIP3   OH241198   6.319   1.875   1.637 -0.0343 -0.6487 -0.2162
 5668TIP3    H141199   6.354   1.793   1.673 -0.5919 -0.7358  0.1462
 5668TIP3    H241200   6.260   1.847   1.567  1.3227 -0.4652 -1.4744
 5669TIP3   OH241201   6.477   0.902   1.087  0.2862 -0.0001 -0.0217
 5669TIP3    H141202   6.413   0.835   1.113 -0.6436  0.7191 -0.3911
 5669TIP3    H241203   6.475   0.965   1.159  0.3830  0.1632 -0.1628
 5670TIP3   OH241204   4.619   7.227   2.065 -0.3599  0.1319 -0.0793
 5670TIP3    H141205   4.696   7.207   2.012  1.8843  0.1850  2.9236
 5670TIP3    H241206   4.593   7.315   2.038  1.8910  0.9203  0.1780
 5671TIP3   OH241207   1.370   0.638   3.369  0.6411  0.1267 -0.0248
 5671TIP3    H141208   1.310   0.565   3.383 -0.7650  1.1147 -0.6107
 5671TIP3    H241209   1.319   0.701   3.317  2.1212  1.1091 -0.3495
 5672TIP3   OH241210   0.951   5.483   1.101 -0.2334 -0.6321 -0.4195
 5672TIP3    H141211   1.030   5.487   1.155  0.4530  1.3357 -1.4543
 5672TIP3    H241212   0.982   5.446   1.018 -0.0795  1.1865 -1.2272
 5673TIP3   OH241213   0.693   3.727   0.972  0.7337 -0.0991  0.3586
 5673TIP3    H141214   0.658   3.783   0.903  0.4040  0.0062  0.6095
 5673TIP3    H241215   0.632   3.654   0.977  0.8271 -0.1708  0.4536
 5674TIP3   OH241216   1.613   2.076   3.027  0.4929 -0.3359  0.2128
 5674TIP3    H141217   1.626   2.005   2.965  0.4652 -0.3928  0.2712
 5674TIP3    H241218   1.602   2.032   3.112  1.6057 -0.2195  0.4365
 5675TIP3   OH241219   2.351   2.087   0.985  0.3340  0.2805  0.6968
 5675TIP3    H141220   2.331   2.165   1.037  2.0905  0.7406  0.7270
 5675TIP3    H241221   2.446   2.081   0.987  0.2473 -1.6167  0.3042
 5676TIP3   OH241222   4.705   0.897   2.491 -0.0716 -0.2489 -0.1977
 5676TIP3    H141223   4.790   0.902   2.447  0.4870 -0.5272  0.8163
 5676TIP3    H241224   4.726   0.882   2.583 -1.2161  0.2500  0.1659
 5677TIP3   OH241225   2.327   4.668   2.141  0.1339 -0.3765 -0.1212
 5677TIP3    H141226   2.263   4.722   2.186  0.2010 -0.6348  0.2841
 5677TIP3    H241227   2.288   4.580   2.140  0.7617 -0.6664  0.6844
 5678TIP3   OH241228   2.305   3.341   0.672  0.0403 -0.1168 -0.5374
 5678TIP3    H141229   2.244   3.407   0.639  1.7742  1.3990 -0.8605
 5678TIP3    H241230   2.280   3.261   0.627 -1.8870  0.3644 -0.4370
 5679TIP3   OH241231   3.227   2.394   0.400  0.3274  0.2545  0.2300
 5679TIP3    H141232   3.239   2.485   0.427 -0.4699  0.5342 -0.3137
 5679TIP3    H241233   3.135   2.388   0.376  0.4808 -0.5707 -0.2004
 5680TIP3   OH241234   5.084   5.066   1.542 -0.4577  0.1504 -0.5230
 5680TIP3    H141235   4.990   5.081   1.533 -0.5006 -0.5612 -1.3250
 5680TIP3    H241236   5.125   5.146   1.509 -0.7831  0.7645  0.5144
 5681TIP3   OH241237   6.426   7.465   2.358 -0.0527  0.5704  0.0845
 5681TIP3    H141238   6.469   7.389   2.320 -0.9713  0.7464 -1.3986
 5681TIP3    H241239   6.452   7.464   2.450  2.9487  0.5932 -0.6728
 5682TIP3   OH241240   3.514   6.508   2.600 -0.5260  0.2164 -0.1730
 5682TIP3    H141241   3.509   6.533   2.692  1.5603  0.4113 -0.0564
 5682TIP3    H241242   3.544   6.587   2.555 -0.8377 -0.0757 -0.9164
 5683TIP3   OH241243   3.826   6.423   2.650  0.6232 -0.2772  0.2195
 5683TIP3    H141244   3.910   6.402   2.691  0.4310 -1.5736  0.0083
 5683TIP3    H241245   3.828   6.518   2.638  1.4649 -0.1104  1.4956
 5684TIP3   OH241246   2.925   6.483   2.993 -0.1046  0.0660 -0.3028
 5684TIP3    H141247   2.879   6.406   2.960  1.1828 -0.2045 -1.5922
 5684TIP3    H241248   2.884   6.557   2.950 -1.2035  0.1097  0.7740
 5685TIP3   OH241249   2.871   7.190   0.813  0.1596  0.0468  0.2084
 5685TIP3    H141250   2.862   7.096   0.795  0.0002  0.0414  0.3162
 5685TIP3    H241251   2.947   7.196   0.871 -0.5300 -0.1373  1.1693
 5686TIP3   OH241252   5.015   4.709   2.535 -0.4692 -0.2078 -0.2517
 5686TIP3    H141253   4.935   4.762   2.535 -0.5514 -0.2102  2.2600
 5686TIP3    H241254   5.070   4.749   2.603  0.9687 -1.2056 -0.7940
 5687TIP3   OH241255   2.822   3.072   1.849 -0.0629  0.2284 -0.3631
 5687TIP3    H141256   2.749   3.073   1.912  0.6248 -1.0682  0.5043
 5687TIP3    H241257   2.786   3.027   1.773 -0.0284 -1.0194  0.3147
 5688TIP3   OH241258   7.086   0.184   1.063 -0.6268 -0.3791  0.9486
 5688TIP3    H141259   7.162   0.163   1.117  0.8056  1.2400 -0.3201
 5688TIP3    H241260   7.062   0.100   1.023  0.9554 -0.8090  0.8178
 5689TIP3   OH241261   4.288   2.359   0.643 -0.1299  0.3383 -0.2225
 5689TIP3    H141262   4.322   2.299   0.577  0.0395  0.0280  0.1413
 5689TIP3    H241263   4.219   2.309   0.687 -0.5838  0.7190 -0.4904
 5690TIP3   OH241264   1.551   4.419   3.086  0.2085  0.0986 -0.5059
 5690TIP3    H141265   1.475   4.368   3.057  0.0237 -0.2237  0.5003
 5690TIP3    H241266   1.624   4.357   3.083 -0.2802 -0.7443  2.1461
 5691TIP3   OH241267   3.274   2.663   0.443 -0.6966 -0.0432  0.2985
 5691TIP3    H141268   3.234   2.742   0.478 -2.1696 -0.4727 -0.3510
 5691TIP3    H241269   3.294   2.684   0.352  0.0549 -0.0179  0.4655
 5692TIP3   OH241270   2.409   1.573   1.447 -0.3014 -0.2609 -0.3371
 5692TIP3    H141271   2.461   1.504   1.488 -1.8735 -1.6659 -0.6007
 5692TIP3    H241272   2.328   1.575   1.497 -0.9961  0.1347 -1.4356
 5693TIP3   OH241273   4.449   3.757   1.803  0.5172 -0.5724 -0.4048
 5693TIP3    H141274   4.433   3.849   1.782  1.1538 -0.3783 -0.0660
 5693TIP3    H241275   4.362   3.718   1.805  0.2168  0.0792 -0.2798
 5694TIP3   OH241276   4.619   1.990   2.169 -0.5840  0.1999  0.1705
 5694TIP3    H141277   4.563   1.918   2.142  0.1072 -0.4451  0.4108
 5694TIP3    H241278   4.581   2.022   2.250  0.1279 -1.1304  1.0811
 5695TIP3   OH241279   4.677   4.506   0.577 -0.0892 -0.1224 -0.4639
 5695TIP3    H141280   4.598   4.526   0.628 -0.1478  1.0899 -0.9787
 5695TIP3    H241281   4.739   4.576   0.600  1.4144 -1.8583  1.0343
 5696TIP3   OH241282   0.557   7.305   2.722 -0.6553 -0.6958 -0.0649
 5696TIP3    H141283   0.625   7.250   2.762 -0.1908  0.4420  0.7856
 5696TIP3    H241284   0.559   7.282   2.629 -0.2058 -1.8180  0.2046
 5697TIP3   OH241285   5.795   1.382   1.465  0.3719  0.1958 -0.6395
 5697TIP3    H141286   5.717   1.430   1.436  1.5978  1.1859 -2.4875
 5697TIP3    H241287   5.781   1.369   1.558 -1.7895  0.7629 -0.8209
 5698TIP3   OH241288   0.633   7.143   1.744 -0.1202  0.2098  0.0431
 5698TIP3    H141289   0.660   7.142   1.836  0.5064  1.4169 -0.1078
 5698TIP3    H241290   0.659   7.229   1.712 -2.1787  0.6215 -0.7245
 5699TIP3   OH241291   5.739   4.435   2.841 -0.1820  0.1399  0.3315
 5699TIP3    H141292   5.824   4.478   2.830 -0.0314  0.7816  3.1554
 5699TIP3    H241293   5.702   4.477   2.919 -2.0837 -1.7271  0.5073
 5700TIP3   OH241294   2.565   4.881   2.360 -0.3477  0.6176  0.4737
 5700TIP3    H141295   2.583   4.975   2.361  1.8737  0.3195 -1.4010
 5700TIP3    H241296   2.485   4.872   2.309 -0.7211  1.5022  0.8877
 5701TIP3   OH241297   4.282   6.646   0.945  0.3317  0.3707 -0.2222
 5701TIP3    H141298   4.351   6.707   0.972  0.7608  1.3775 -3.2205
 5701TIP3    H241299   4.327   6.580   0.893 -0.7772  0.4078 -1.2765
 5702TIP3   OH241300   5.825   3.883   1.534 -0.2517  0.3428 -0.1841
 5702TIP3    H141301   5.755   3.895   1.599 -0.3331  1.3552 -0.4331
 5702TIP3    H241302   5.904   3.867   1.586 -0.5403 -0.0939  0.1224
 5703TIP3   OH241303   4.784   3.272   2.442 -0.1717  0.7157  0.2779
 5703TIP3    H141304   4.871   3.233   2.439 -0.4179  0.1249  0.6744
 5703TIP3    H241305   4.749   3.259   2.354 -0.2932 -0.0578  0.4396
 5704TIP3   OH241306   3.744   2.590   2.053 -0.5477  0.1905  0.4593
 5704TIP3    H141307   3.743   2.652   2.126  2.1694  0.5661  0.2608
 5704TIP3    H241308   3.701   2.637   1.981  2.0626  2.2740  0.0973
 5705TIP3   OH241309   1.659   0.055   0.808  0.7914  0.4067 -0.2859
 5705TIP3    H141310   1.726   0.010   0.757  0.6376  1.1430 -1.1616
 5705TIP3    H241311   1.678   0.148   0.795 -0.1198  0.6169 -0.1553
 5706TIP3   OH241312   2.799   0.095   1.057 -0.0842 -0.2172  0.0849
 5706TIP3    H141313   2.822   0.004   1.078 -1.4680 -0.4265  0.7920
 5706TIP3    H241314   2.727   0.087   0.994  1.5126  0.4207 -1.9285
 5707TIP3   OH241315   3.085   2.219   0.971 -0.1765 -0.6543 -0.0608
 5707TIP3    H141316   3.101   2.136   0.927  1.2278 -0.3455 -0.1541
 5707TIP3    H241317   3.164   2.271   0.956 -0.6904  0.3925  0.7020
 5708TIP3   OH241318   3.978   7.162   2.823  0.2756  0.4447  0.4593
 5708TIP3    H141319   3.948   7.253   2.824 -3.1218 -0.4562 -2.0231
 5708TIP3    H241320   3.940   7.123   2.902 -0.3038  0.6326  0.2757
 5709TIP3   OH241321   1.856   0.884   3.097  0.5974  0.1158 -0.0886
 5709TIP3    H141322   1.899   0.841   3.023  2.5909  1.9076 -0.0528
 5709TIP3    H241323   1.898   0.969   3.104 -0.0844  0.3345  2.6113
 5710TIP3   OH241324   1.466   5.363   1.018  0.8993  0.0552  0.5969
 5710TIP3    H141325   1.446   5.284   0.967  2.3911  0.3402 -0.5208
 5710TIP3    H241326   1.439   5.436   0.961 -0.7446  0.3881  1.7390
 5711TIP3   OH241327   1.421   0.286   1.931 -0.2512  0.3198  0.3356
 5711TIP3    H141328   1.386   0.270   2.018  2.3309 -0.7062  1.2590
 5711TIP3    H241329   1.396   0.209   1.880  1.2458 -0.8029  1.2172
 5712TIP3   OH241330   7.364   2.441   2.158  0.3296  0.0439  0.0139
 5712TIP3    H141331   7.344   2.479   2.243  0.1143 -1.6813  0.7801
 5712TIP3    H241332   7.335   2.506   2.095 -2.1521  0.1996  1.2115
 5713TIP3   OH241333   3.145   5.290   0.905  0.2437 -0.4981  0.2349
 5713TIP3    H141334   3.098   5.215   0.942  0.1535 -1.4196 -1.6108
 5713TIP3    H241335   3.121   5.364   0.961 -1.7985 -1.3300  0.5589
 5714TIP3   OH241336   6.996   7.227   0.591 -0.0312 -0.5190 -0.4198
 5714TIP3    H141337   7.016   7.221   0.684 -0.5302  2.4491 -0.0488
 5714TIP3    H241338   6.902   7.211   0.586 -0.4432  1.5870 -0.0680
 5715TIP3   OH241339   3.797   5.041   1.388  0.1337  0.1112 -0.3012
 5715TIP3    H141340   3.753   5.123   1.370 -0.0566  0.1494  0.3130
 5715TIP3    H241341   3.727   4.979   1.409  0.3499  0.1240  0.4873
 5716TIP3   OH241342   5.948   5.636   0.546 -1.0398 -1.0995 -0.6266
 5716TIP3    H141343   6.038   5.603   0.543 -0.4264  0.0201  2.2354
 5716TIP3    H241344   5.952   5.721   0.501 -0.5273 -0.8199 -0.0672
 5717TIP3   OH241345   5.182   6.419   1.805  0.3757 -0.3446 -0.7506
 5717TIP3    H141346   5.273   6.444   1.820  0.4855 -1.0431 -0.1617
 5717TIP3    H241347   5.177   6.329   1.839 -0.3349 -0.5932 -1.4975
 5718TIP3   OH241348   4.768   5.508   1.655  0.2057 -0.4256  0.4399
 5718TIP3    H141349   4.704   5.531   1.722  1.1166  0.8426  0.9000
 5718TIP3    H241350   4.724   5.442   1.602 -1.2367 -0.0519  1.1295
 5719TIP3   OH241351   2.134   1.266   1.462  0.3374 -0.7373 -0.3068
 5719TIP3    H141352   2.225   1.242   1.445  1.0985  0.7876  1.2579
 5719TIP3    H241353   2.108   1.317   1.386  2.3250  2.5785  1.0202
 5720TIP3   OH241354   0.749   4.536   2.173 -0.4469 -0.0195  0.4353
 5720TIP3    H141355   0.753   4.537   2.077 -1.1714 -1.0150  0.3820
 5720TIP3    H241356   0.656   4.540   2.193 -0.3086  0.0121  1.1041
 5721TIP3   OH241357   5.085   6.332   2.219 -0.1499 -0.1312  0.1990
 5721TIP3    H141358   4.990   6.345   2.222 -0.1150  0.1038  0.2761
 5721TIP3    H241359   5.122   6.417   2.241  0.0764 -0.6147  1.8072
 5722TIP3   OH241360   1.250   0.480   2.917  0.2046  0.2220 -0.5852
 5722TIP3    H141361   1.183   0.428   2.962  0.5863 -0.0603 -0.3271
 5722TIP3    H241362   1.294   0.528   2.987  0.4291  0.2149 -0.7189
 5723TIP3   OH241363   1.855   5.565   2.892  0.3519 -0.3748 -0.0355
 5723TIP3    H141364   1.940   5.602   2.915  0.3365 -1.0521  1.2273
 5723TIP3    H241365   1.794   5.606   2.953 -0.1381 -0.3164 -0.5599
 5724TIP3   OH241366   5.777   2.250   1.058 -0.5286  0.5452  0.4140
 5724TIP3    H141367   5.769   2.309   0.983  0.7970  0.9236  0.5488
 5724TIP3    H241368   5.821   2.173   1.023 -2.0260 -0.3000  0.2989
 5725TIP3   OH241369   1.440   3.438   0.608 -0.5882 -0.6102 -0.3924
 5725TIP3    H141370   1.357   3.467   0.569 -0.1329 -0.2438 -1.0879
 5725TIP3    H241371   1.506   3.494   0.569  0.1589 -1.7682 -0.8323
 5726TIP3   OH241372   3.658   1.707   1.524  0.1061 -0.3321  0.1622
 5726TIP3    H141373   3.650   1.749   1.439 -0.0497 -3.5828 -1.5525
 5726TIP3    H241374   3.587   1.745   1.576 -0.7457  0.6204 -1.6200
 5727TIP3   OH241375   3.648   0.851   3.640 -0.4066 -0.1078  0.4906
 5727TIP3    H141376   3.589   0.918   3.673 -2.6511 -1.6187 -0.2377
 5727TIP3    H241377   3.615   0.769   3.676  1.3129 -1.0293  0.1084
 5728TIP3   OH241378   2.461   0.162   1.927 -0.3794 -0.7186 -0.2894
 5728TIP3    H141379   2.375   0.198   1.907  0.0234  0.2259 -0.3620
 5728TIP3    H241380   2.482   0.197   2.014 -0.3890 -1.5651  0.0661
 5729TIP3   OH241381   3.981   5.121   1.059 -0.0396  0.0795  0.2382
 5729TIP3    H141382   3.939   5.084   1.137 -0.6479  0.9949  0.3559
 5729TIP3    H241383   4.028   5.198   1.091 -1.3255  1.1949 -0.4699
 5730TIP3   OH241384   0.915   3.776   1.400 -0.2822  1.1388 -0.1045
 5730TIP3    H141385   0.830   3.770   1.443 -0.2090 -0.1034 -0.1002
 5730TIP3    H241386   0.895   3.796   1.309 -0.6393  0.0532 -0.2790
 5731TIP3   OH241387   5.869   0.824   1.222  0.5300  0.3242  0.5656
 5731TIP3    H141388   5.844   0.818   1.315  0.4051 -0.0704  0.5072
 5731TIP3    H241389   5.790   0.857   1.179  0.1302 -0.7949  0.4010
 5732TIP3   OH241390   6.044   2.175   0.721 -0.4135 -0.1285 -0.2877
 5732TIP3    H141391   6.073   2.242   0.659  0.9034 -1.6654 -1.4450
 5732TIP3    H241392   6.040   2.095   0.669  1.8725 -1.7511  1.7816
 5733TIP3   OH241393   6.818   5.047   0.619 -0.1576 -0.7498 -0.4013
 5733TIP3    H141394   6.757   4.982   0.651 -0.4307  0.1137  0.9194
 5733TIP3    H241395   6.886   5.052   0.686 -0.4092  0.6669 -0.2224
 5734TIP3   OH241396   0.468   3.917   2.801 -0.4324 -0.5589  0.4837
 5734TIP3    H141397   0.532   3.956   2.860 -0.6788  0.4616  0.0894
 5734TIP3    H241398   0.520   3.881   2.730  0.0077 -3.1094  1.9603
 5735TIP3   OH241399   1.678   3.034   2.596  0.4714  0.0975 -0.0282
 5735TIP3    H141400   1.739   3.081   2.653 -0.5767  0.0808  1.1507
 5735TIP3    H241401   1.730   2.964   2.557  0.9158 -0.8044  2.0503
 5736TIP3   OH241402   3.627   2.789   1.141  0.2801 -0.3407  0.5785
 5736TIP3    H141403   3.561   2.742   1.090  2.6041 -1.9118 -1.1926
 5736TIP3    H241404   3.623   2.749   1.228  0.8996 -2.5930 -0.3641
 5737TIP3   OH241405   7.034   5.266   3.269  0.1904 -0.1753 -0.9219
 5737TIP3    H141406   7.124   5.285   3.296 -0.4482  1.0031  0.4816
 5737TIP3    H241407   7.044   5.200   3.199  2.0592 -1.1641  0.1907
 5738TIP3   OH241408   4.839   0.129   2.382  0.3197  0.3533  0.3961
 5738TIP3    H141409   4.864   0.046   2.423 -0.1178 -0.5470 -1.0787
 5738TIP3    H241410   4.749   0.115   2.354 -0.8956  2.4713  2.8995
 5739TIP3   OH241411   1.542   1.217   2.409  0.1105  0.1582 -0.2718
 5739TIP3    H141412   1.611   1.280   2.428  1.3840 -0.8874 -1.2562
 5739TIP3    H241413   1.510   1.243   2.322  0.1838 -0.1392 -0.3892
 5740TIP3   OH241414   2.104   0.970   2.415  0.2278  0.3085 -0.6183
 5740TIP3    H141415   2.116   0.954   2.321  2.8564 -1.3535 -0.0842
 5740TIP3    H241416   2.089   0.883   2.452  0.3893  0.8103  0.6517
 5741TIP3   OH241417   5.690   2.190   0.599 -0.3172 -0.3402 -0.2590
 5741TIP3    H141418   5.661   2.177   0.690  1.3419  0.0184  0.3558
 5741TIP3    H241419   5.741   2.271   0.603  1.1819 -1.2128 -1.1674
 5742TIP3   OH241420   2.852   4.391   3.262 -0.1411  0.0207 -0.3199
 5742TIP3    H141421   2.867   4.321   3.325 -1.3784  0.1424  0.1498
 5742TIP3    H241422   2.826   4.466   3.315 -1.1055  0.1585 -0.9525
 5743TIP3   OH241423   4.160   0.474   6.645 -0.0731 -0.6570 -0.1601
 5743TIP3    H141424   4.179   0.380   6.653  1.2270 -0.5682 -1.7466
 5743TIP3    H241425   4.065   0.478   6.631  0.1055 -1.9173 -2.1198
 5744TIP3   OH241426   1.483   4.143   2.577  0.1530 -0.3013  0.2182
 5744TIP3    H141427   1.568   4.174   2.546 -0.2283  0.8550  0.2831
 5744TIP3    H241428   1.495   4.133   2.672  0.5724 -1.3483  0.0600
 5745TIP3   OH241429   2.458   2.847   1.043  0.4590 -0.5351 -0.0342
 5745TIP3    H141430   2.399   2.908   0.998  0.5054 -0.5432 -0.1050
 5745TIP3    H241431   2.533   2.900   1.068 -1.1989  0.4843  3.5204
 5746TIP3   OH241432   2.159   4.094   2.792 -0.1004  0.2043 -0.7940
 5746TIP3    H141433   2.077   4.076   2.838  0.5231  0.3608  0.4204
 5746TIP3    H241434   2.208   4.149   2.852  1.4240 -0.9220 -0.9608
 5747TIP3   OH241435   1.412   6.611   1.625 -0.2631  0.0717 -0.2059
 5747TIP3    H141436   1.323   6.645   1.619 -0.4599 -0.5755 -1.0641
 5747TIP3    H241437   1.466   6.689   1.639 -1.0382  0.3793  1.3280
 5748TIP3   OH241438   1.326   2.424   1.181  0.5039 -0.2260 -0.1870
 5748TIP3    H141439   1.340   2.359   1.249 -0.9392  0.1908  0.5429
 5748TIP3    H241440   1.327   2.508   1.227  0.0768  0.0984 -0.7568
 5749TIP3   OH241441   3.093   7.244   0.985  0.2485  0.2071 -0.2829
 5749TIP3    H141442   3.122   7.247   1.077 -0.3030 -0.2853 -0.0883
 5749TIP3    H241443   3.150   7.180   0.944 -0.4719 -0.6819  0.0749
 5750TIP3   OH241444   5.794   5.402   1.267  0.0264 -0.4824  0.5181
 5750TIP3    H141445   5.740   5.432   1.340  0.9372 -0.7782  1.3373
 5750TIP3    H241446   5.825   5.483   1.225 -3.3551 -0.2135 -1.8264
 5751TIP3   OH241447   0.186   3.466   0.563  0.1529 -0.1815 -0.0654
 5751TIP3    H141448   0.124   3.523   0.518 -0.8513 -2.5758 -1.9505
 5751TIP3    H241449   0.179   3.492   0.655 -2.2559  0.9118 -0.4538
 5752TIP3   OH241450   6.669   0.878   3.272  0.3078 -0.5117  0.1862
 5752TIP3    H141451   6.656   0.795   3.225  0.9564  0.4619 -1.8487
 5752TIP3    H241452   6.597   0.934   3.241  0.1889 -0.1309  1.1275
 5753TIP3   OH241453   0.810   4.355   1.104  0.0526  0.3031 -0.1919
 5753TIP3    H141454   0.864   4.434   1.115 -0.1990  0.6943 -1.5009
 5753TIP3    H241455   0.809   4.340   1.009  0.0394 -1.2541  0.0289
 5754TIP3   OH241456   7.169   7.120   3.008 -0.4010 -0.4635 -0.4155
 5754TIP3    H141457   7.159   7.026   3.021  0.2056 -0.5501 -0.5296
 5754TIP3    H241458   7.254   7.140   3.048 -1.5409  0.4550  1.7096
 5755TIP3   OH241459   6.909   1.677   2.263 -0.3133  0.2397 -0.2691
 5755TIP3    H141460   6.836   1.715   2.214  0.3764  3.1117  0.7559
 5755TIP3    H241461   6.896   1.707   2.353  0.4362 -1.8600  0.5984
 5756TIP3   OH241462   5.758   3.391   2.638 -0.4892  0.1263 -0.3116
 5756TIP3    H141463   5.800   3.455   2.581 -1.0409  1.0743  0.3309
 5756TIP3    H241464   5.817   3.315   2.636 -0.5913  0.0544 -2.2642
 5757TIP3   OH241465   2.510   7.501   1.388 -0.3900 -0.2487  0.6149
 5757TIP3    H141466   2.424   7.498   1.430 -0.9719  0.1037 -0.4925
 5757TIP3    H241467   2.492   7.488   1.295  0.5423  1.6120  0.1122
 5758TIP3   OH241468   6.004   6.544   2.679 -0.4446 -0.0571 -0.0864
 5758TIP3    H141469   5.998   6.450   2.668 -0.0896 -0.0601 -0.2775
 5758TIP3    H241470   5.931   6.567   2.737 -0.0786 -0.5510  0.5794
 5759TIP3   OH241471   5.710   5.971   0.791 -0.7532  0.0200 -0.2784
 5759TIP3    H141472   5.791   6.020   0.781 -0.5761 -0.1688  0.1893
 5759TIP3    H241473   5.647   6.035   0.826 -0.7606  0.1249 -0.4837
 5760TIP3   OH241474   3.424   0.987   0.971 -0.5432 -0.3422  0.4270
 5760TIP3    H141475   3.354   0.989   1.035 -0.4262  0.1092  0.5444
 5760TIP3    H241476   3.388   1.031   0.894 -1.1435 -2.0246 -0.3099
 5761TIP3   OH241477   6.510   4.584   0.741 -0.0872 -0.1960  0.1500
 5761TIP3    H141478   6.546   4.670   0.722 -0.2755  0.1086  1.1196
 5761TIP3    H241479   6.580   4.537   0.787 -0.9266  0.4686  2.2156
 5762TIP3   OH241480   1.365   7.004   1.046 -0.6320 -0.0260  0.3047
 5762TIP3    H141481   1.301   7.073   1.026 -0.6427 -0.1995 -0.2668
 5762TIP3    H241482   1.342   6.932   0.987 -1.0243 -0.7727  1.3510
 5763TIP3   OH241483   1.684   6.575   1.761  0.2926 -0.2153  0.0065
 5763TIP3    H141484   1.758   6.629   1.732  1.9254 -0.7302  2.7690
 5763TIP3    H241485   1.608   6.633   1.756  1.5397  1.5411  0.4654
 5764TIP3   OH241486   3.286   4.847   2.298  0.2966  0.0396  0.1058
 5764TIP3    H141487   3.216   4.786   2.273  0.8685 -2.1051  3.1848
 5764TIP3    H241488   3.362   4.817   2.250  0.3190 -1.1306  0.8114
 5765TIP3   OH241489   0.353   6.726   0.721  0.2264 -0.4347  0.4734
 5765TIP3    H141490   0.329   6.783   0.649 -1.5571  0.4652  1.7011
 5765TIP3    H241491   0.448   6.735   0.729  0.4629 -0.5445 -1.6772
 5766TIP3   OH241492   6.324   5.507   1.430 -0.0858 -0.3436 -1.0215
 5766TIP3    H141493   6.259   5.513   1.360  0.4751 -1.4312 -1.6666
 5766TIP3    H241494   6.341   5.413   1.439  0.9557 -0.1157 -0.4516
 5767TIP3   OH241495   0.395   1.042   0.862  0.2429  0.0074 -0.1742
 5767TIP3    H141496   0.310   1.027   0.820  0.9948 -0.5926 -1.5556
 5767TIP3    H241497   0.457   0.994   0.808  1.4030 -0.0296  1.1395
 5768TIP3   OH241498   3.657   3.507   1.259  0.6887  0.0775  0.0776
 5768TIP3    H141499   3.690   3.429   1.304 -0.9145 -0.3937  0.5031
 5768TIP3    H241500   3.571   3.522   1.298 -0.0595  0.6303 -1.6981
 5769TIP3   OH241501   6.785   0.915   1.014  0.7981  0.7200 -0.2872
 5769TIP3    H141502   6.872   0.956   1.008  1.3420 -0.2581  0.5098
 5769TIP3    H241503   6.801   0.822   0.994  0.0766  0.3879  0.5949
 5770TIP3   OH241504   1.362   3.535   1.243  0.4410  0.3539 -0.2301
 5770TIP3    H141505   1.281   3.571   1.281  1.4450  0.5272  1.8831
 5770TIP3    H241506   1.411   3.612   1.215 -0.8017  0.1843 -3.1432
 5771TIP3   OH241507   3.642   4.002   0.575  0.4523  0.0277  0.8813
 5771TIP3    H141508   3.602   3.925   0.616 -0.4417  0.8756  1.6618
 5771TIP3    H241509   3.725   3.971   0.540 -0.1892 -1.4353  0.6077
 5772TIP3   OH241510   1.846   6.398   2.520  0.1909  0.0811 -0.1652
 5772TIP3    H141511   1.775   6.444   2.475 -1.1504 -0.8172  0.9228
 5772TIP3    H241512   1.925   6.445   2.495 -0.8147  1.3011 -1.2018
 5773TIP3   OH241513   1.853   1.605   3.372  0.3534 -0.4943 -0.4855
 5773TIP3    H141514   1.799   1.527   3.385 -1.1691  0.8323  2.0767
 5773TIP3    H241515   1.941   1.571   3.356 -0.4123 -2.7261 -0.2757
 5774TIP3   OH241516   0.847   4.120   2.067 -0.5157 -0.0424  0.0758
 5774TIP3    H141517   0.870   4.168   1.987 -0.5151 -1.1632 -0.6215
 5774TIP3    H241518   0.832   4.030   2.037  0.8948 -0.8139  1.5515
 5775TIP3   OH241519   4.576   0.791   1.325 -0.4871  0.4361  0.3380
 5775TIP3    H141520   4.535   0.838   1.398  2.0233 -0.4728  2.5036
 5775TIP3    H241521   4.669   0.814   1.332  0.1932 -1.6530 -1.0469
 5776TIP3   OH241522   1.483   2.040   2.780  0.5227  0.3307  0.4073
 5776TIP3    H141523   1.437   1.983   2.841  0.7498 -0.9489 -0.5789
 5776TIP3    H241524   1.539   2.095   2.836  2.4932 -2.3805  1.3224
 5777TIP3   OH241525   0.441   0.439   2.514 -0.0676  0.1797 -0.4140
 5777TIP3    H141526   0.509   0.420   2.578 -0.5054 -0.1820 -0.0421
 5777TIP3    H241527   0.488   0.465   2.435  0.7900 -4.6431 -1.7832
 5778TIP3   OH241528   2.205   6.970   2.969  0.0556  0.5440 -0.0504
 5778TIP3    H141529   2.250   6.968   2.884  0.1391 -0.5362  0.0084
 5778TIP3    H241530   2.161   7.055   2.971 -1.9076 -0.3196 -2.2042
 5779TIP3   OH241531   1.640   3.639   2.797 -0.0955 -0.1751  0.2452
 5779TIP3    H141532   1.723   3.626   2.843  0.1421 -0.8824 -0.3791
 5779TIP3    H241533   1.573   3.626   2.865  0.2929  0.3504  0.7388
 5780TIP3   OH241534   4.510   4.079   1.900 -0.1167  0.0452  0.1256
 5780TIP3    H141535   4.540   4.170   1.904  2.2571 -0.5744 -1.2048
 5780TIP3    H241536   4.586   4.027   1.929 -1.9972 -1.5093  2.6692
 5781TIP3   OH241537   3.182   1.402   2.995  0.1487 -0.1920 -0.1345
 5781TIP3    H141538   3.108   1.449   3.034  1.2333  0.2983  1.4175
 5781TIP3    H241539   3.177   1.315   3.033 -0.2863 -0.5406 -0.9480
 5782TIP3   OH241540   1.164   7.262   1.257 -0.1541 -0.1057 -0.0383
 5782TIP3    H141541   1.135   7.348   1.289  1.8734  1.2736 -1.6683
 5782TIP3    H241542   1.131   7.256   1.168  1.9892  0.2641 -0.9239
 5783TIP3   OH241543   7.261   4.508   1.768 -0.0113  0.0228  0.3648
 5783TIP3    H141544   7.286   4.472   1.853 -1.5916  0.1117  0.9011
 5783TIP3    H241545   7.291   4.443   1.704  2.1533  0.4492  0.8505
 5784TIP3   OH241546   1.472   1.959   2.022 -0.2621  0.1987 -0.5545
 5784TIP3    H141547   1.534   1.888   2.007  1.4107  1.6943 -1.0986
 5784TIP3    H241548   1.502   2.001   2.103 -2.6959 -1.1094  1.1760
 5785TIP3   OH241549   1.092   2.790   2.316 -0.6025  0.5492 -0.5808
 5785TIP3    H141550   1.011   2.760   2.358  0.9176 -0.1927  2.0808
 5785TIP3    H241551   1.098   2.882   2.338 -0.3478  0.4146 -0.0688
 5786TIP3   OH241552   7.213   4.051   1.890 -0.1093 -0.6930 -0.1097
 5786TIP3    H141553   7.224   3.958   1.912 -1.2044 -1.0614 -1.0111
 5786TIP3    H241554   7.125   4.056   1.852 -0.5344  0.9431  1.0111
 5787TIP3   OH241555   2.576   6.865   1.906 -0.2121 -1.0879 -0.2849
 5787TIP3    H141556   2.507   6.819   1.858  0.1047 -1.3083 -0.5255
 5787TIP3    H241557   2.567   6.832   1.996 -1.0527 -0.3905 -0.0950
 5788TIP3   OH241558   2.223   7.263   1.979 -0.2949 -0.1417 -0.3676
 5788TIP3    H141559   2.216   7.285   1.886 -1.7134 -1.0752 -0.5220
 5788TIP3    H241560   2.256   7.173   1.980  0.0613 -0.0086  0.0445
 5789TIP3   OH241561   0.981   6.489   0.636 -0.6465  0.2919 -0.0038
 5789TIP3    H141562   1.059   6.514   0.587 -1.1238  0.0799 -0.8937
 5789TIP3    H241563   1.006   6.410   0.684 -0.6958 -0.5592 -1.3352
 5790TIP3   OH241564   0.440   4.209   2.238 -0.4854  0.1799 -0.1317
 5790TIP3    H141565   0.404   4.266   2.170  1.0252  2.0732  0.5576
 5790TIP3    H241566   0.409   4.248   2.320 -0.4652 -0.7590  0.3329
 5791TIP3   OH241567   2.307   6.256   2.817 -0.9005 -0.0420 -0.1775
 5791TIP3    H141568   2.329   6.228   2.729  0.1281  1.0117 -0.2796
 5791TIP3    H241569   2.276   6.177   2.861  0.1210 -0.9120 -0.9936
 5792TIP3   OH241570   2.706   4.750   1.702 -0.0127 -0.3085  0.0457
 5792TIP3    H141571   2.742   4.677   1.752  2.0530  1.5818  1.5012
 5792TIP3    H241572   2.647   4.794   1.763 -1.4229 -0.8213 -0.8928
 5793TIP3   OH241573   6.151   5.147   0.791 -0.9550 -0.1714  0.3840
 5793TIP3    H141574   6.202   5.147   0.710 -2.8107 -2.0520 -0.8992
 5793TIP3    H241575   6.215   5.127   0.859  0.6090  1.1541 -0.6126
 5794TIP3   OH241576   6.652   4.036   2.802 -0.0528 -0.4733 -0.0458
 5794TIP3    H141577   6.621   3.973   2.867  0.8599 -1.9112 -0.9387
 5794TIP3    H241578   6.578   4.095   2.789 -0.7842 -1.0776  1.1564
 5795TIP3   OH241579   6.634   1.445   0.528 -0.1782 -0.0948 -0.5327
 5795TIP3    H141580   6.653   1.358   0.563  0.3935 -0.2574 -1.2287
 5795TIP3    H241581   6.719   1.485   0.513 -0.3888  1.6558  2.2756
 5796TIP3   OH241582   4.819   1.454   2.072  0.9773  0.5033  0.1186
 5796TIP3    H141583   4.876   1.408   2.133  1.4969 -0.5624 -1.1200
 5796TIP3    H241584   4.731   1.420   2.090  1.2392 -0.3639 -0.2178
 5797TIP3   OH241585   4.303   0.822   0.811  0.3282 -0.5382  0.0277
 5797TIP3    H141586   4.336   0.737   0.781  0.5576  0.1390 -1.7629
 5797TIP3    H241587   4.209   0.819   0.793  0.1912 -0.7053  0.7367
 5798TIP3   OH241588   6.099   2.101   1.976 -0.3299 -0.4370  0.3411
 5798TIP3    H141589   6.008   2.099   1.945  0.0251 -2.4259 -0.7920
 5798TIP3    H241590   6.148   2.135   1.901 -0.0522 -0.2626  0.6058
 5799TIP3   OH241591   3.744   1.618   2.511  0.5311 -0.3187 -0.3252
 5799TIP3    H141592   3.770   1.561   2.439 -0.0708  0.0771 -0.8688
 5799TIP3    H241593   3.650   1.602   2.523  0.9831 -1.8688  1.7370
 5800TIP3   OH241594   3.211   3.900   2.325 -0.1447 -0.7800  0.3778
 5800TIP3    H141595   3.287   3.921   2.271  0.7896 -0.6360  1.6884
 5800TIP3    H241596   3.198   3.806   2.314  2.2139 -1.4753  2.4815
 5801TIP3   OH241597   0.931   4.789   1.802 -0.3215  0.4242  0.0876
 5801TIP3    H141598   0.868   4.816   1.735 -1.4395  0.4249  1.1067
 5801TIP3    H241599   0.894   4.710   1.840  0.6028  0.0844  0.3086
 5802TIP3   OH241600   3.947   0.491   3.504  0.4868 -0.3341  0.0291
 5802TIP3    H141601   3.996   0.535   3.434 -1.4155  0.1260 -1.1009
 5802TIP3    H241602   3.887   0.433   3.458 -0.0519 -0.8548  1.3474
 5803TIP3   OH241603   3.053   1.623   0.392  0.4429 -0.1124 -0.5156
 5803TIP3    H141604   3.108   1.700   0.374 -0.8526  1.8041  2.7569
 5803TIP3    H241605   2.975   1.659   0.434 -0.6795 -3.1826  0.2975
 5804TIP3   OH241606   7.039   5.370   2.970  0.8359  0.0665 -0.0122
 5804TIP3    H141607   7.111   5.401   2.915 -2.1529  2.5076 -2.9835
 5804TIP3    H241608   7.037   5.431   3.044  1.2699  0.5103 -0.3651
 5805TIP3   OH241609   4.070   3.773   2.523 -0.2873 -0.1784 -0.4035
 5805TIP3    H141610   4.122   3.734   2.453  0.2073  1.6057 -1.0893
 5805TIP3    H241611   4.110   3.740   2.603  0.0247 -1.1526 -0.9444
 5806TIP3   OH241612   0.067   2.536   2.452 -0.2015 -0.4768 -0.1847
 5806TIP3    H141613  -0.028   2.551   2.454  0.0979  1.7236  1.2659
 5806TIP3    H241614   0.104   2.610   2.500  2.2842 -1.2373 -0.7688
 5807TIP3   OH241615   5.995   1.752   1.822 -0.2441  0.1542 -0.4901
 5807TIP3    H141616   6.071   1.793   1.863 -0.0809  0.5828 -1.2099
 5807TIP3    H241617   6.026   1.666   1.794  0.3219  0.7468 -1.7884
 5808TIP3   OH241618   1.321   4.656   1.317 -0.2582 -0.1856  0.3642
 5808TIP3    H141619   1.331   4.639   1.223  1.4370  1.1166  0.2606
 5808TIP3    H241620   1.379   4.730   1.334 -2.1887  1.0444  2.0306
 5809TIP3   OH241621   6.891   6.223   0.349 -0.0254 -0.0061  0.0633
 5809TIP3    H141622   6.937   6.228   0.433  1.0530  0.5863 -0.5361
 5809TIP3    H241623   6.884   6.129   0.332  2.0600 -0.1512 -0.3508
 5810TIP3   OH241624   4.793   1.085   0.812 -0.0420  0.3614 -0.6197
 5810TIP3    H141625   4.763   1.110   0.899  1.0541  2.0651 -0.6805
 5810TIP3    H241626   4.724   1.029   0.778 -0.6232 -0.1398  1.2244
 5811TIP3   OH241627   3.021   1.378   1.338  0.1517  0.4336 -0.2311
 5811TIP3    H141628   3.097   1.335   1.378  0.3610  0.5583 -0.4847
 5811TIP3    H241629   3.018   1.342   1.249 -0.6920 -0.3215  0.0847
 5812TIP3   OH241630   7.488   3.138   1.586 -0.3029  0.1305 -0.3512
 5812TIP3    H141631   7.419   3.117   1.649  0.4610  0.5832  0.6795
 5812TIP3    H241632   7.564   3.159   1.641  0.0902  1.5938 -1.3982
 5813TIP3   OH241633   5.382   3.780   2.256 -0.0068  0.8071 -0.4387
 5813TIP3    H141634   5.317   3.769   2.187  0.5085  0.7025 -0.9178
 5813TIP3    H241635   5.335   3.760   2.337 -0.1671 -0.8954 -0.9098
 5814TIP3   OH241636   1.096   2.742   1.387  0.1195 -0.1557 -0.5332
 5814TIP3    H141637   1.157   2.671   1.368  1.2902  0.6350  0.1214
 5814TIP3    H241638   1.130   2.817   1.338 -0.3972  0.2698 -0.2541
 5815TIP3   OH241639   6.885   6.041   2.659 -0.6947 -0.2311  0.6934
 5815TIP3    H141640   6.883   6.130   2.695 -1.9308  0.2373 -0.4746
 5815TIP3    H241641   6.853   6.050   2.570 -0.0792 -1.7476  0.2927
 5816TIP3   OH241642   2.300   3.426   2.531  0.1641 -0.3979 -0.1086
 5816TIP3    H141643   2.284   3.515   2.499 -0.2640 -0.5303 -0.2667
 5816TIP3    H241644   2.395   3.420   2.538  0.1726  0.3413  0.6571
 5817TIP3   OH241645   7.162   0.710   2.794  0.0877 -0.3698  0.2672
 5817TIP3    H141646   7.128   0.648   2.859 -1.5359 -0.2186 -0.3936
 5817TIP3    H241647   7.085   0.762   2.767  1.3091  1.6300  0.4544
 5818TIP3   OH241648   6.585   6.075   0.483  0.0139 -0.2053  0.3307
 5818TIP3    H141649   6.565   6.073   0.577  0.0269 -0.1591  0.3342
 5818TIP3    H241650   6.500   6.062   0.441 -0.1431  0.7429  0.3336
 5819TIP3   OH241651   7.376   5.375   1.480 -0.3254 -0.2011  0.1749
 5819TIP3    H141652   7.356   5.428   1.403  0.3367 -2.1119 -1.3760
 5819TIP3    H241653   7.331   5.292   1.465 -1.3194 -0.1865  2.5280
 5820TIP3   OH241654   1.972   4.481   2.241 -0.2824  0.1826 -0.3852
 5820TIP3    H141655   1.929   4.395   2.242  0.1225 -0.0202 -0.1274
 5820TIP3    H241656   1.924   4.533   2.305  1.0421 -0.6398  1.3410
 5821TIP3   OH241657   2.011   3.795   0.846  0.3317  0.3773 -0.4318
 5821TIP3    H141658   2.055   3.871   0.884  1.7856 -0.4151 -0.4777
 5821TIP3    H241659   2.003   3.733   0.918  0.3765  0.0420 -0.7139
 5822TIP3   OH241660   7.373   4.324   1.434 -0.0581 -0.1192  0.0851
 5822TIP3    H141661   7.323   4.280   1.365  1.0735 -0.9047 -0.2469
 5822TIP3    H241662   7.307   4.373   1.483 -0.9501  0.1518 -1.3100
 5823TIP3   OH241663   2.600   2.632   1.117 -0.4105 -0.7852  0.2196
 5823TIP3    H141664   2.626   2.654   1.207  1.3581 -1.0525 -0.1779
 5823TIP3    H241665   2.570   2.715   1.080  2.3464  0.2244 -0.0243
 5824TIP3   OH241666   4.232   3.032   1.325 -0.3930 -0.8247 -0.4971
 5824TIP3    H141667   4.231   2.937   1.337 -1.4643 -0.8339 -0.4936
 5824TIP3    H241668   4.204   3.067   1.410  1.0568 -0.4358 -0.1485
 5825TIP3   OH241669   1.518   4.890   1.181 -0.0830 -0.1618 -0.2869
 5825TIP3    H141670   1.516   4.925   1.270  0.2075  0.5724 -0.5540
 5825TIP3    H241671   1.608   4.907   1.151  0.3015 -1.8611 -0.1683
 5826TIP3   OH241672   6.882   1.201   1.227  0.6910  0.1609  0.2945
 5826TIP3    H141673   6.911   1.245   1.147  0.1260  0.3479  0.1906
 5826TIP3    H241674   6.877   1.270   1.293  0.0999  0.2065  0.2081
 5827TIP3   OH241675   2.947   4.680   0.834  0.8453 -0.6673  0.2861
 5827TIP3    H141676   2.995   4.683   0.916 -0.4177  1.0543  1.0105
 5827TIP3    H241677   2.855   4.669   0.860  0.5370 -1.2017 -0.9434
 5828TIP3   OH241678   5.985   6.973   0.874  0.6306  0.3952 -0.2103
 5828TIP3    H141679   5.941   6.997   0.793  0.2462 -3.0142 -1.1699
 5828TIP3    H241680   5.922   6.993   0.943  0.7483  2.8235 -0.7256
 5829TIP3   OH241681   1.516   0.666   2.088 -0.4375  0.8889  0.2364
 5829TIP3    H141682   1.549   0.600   2.027 -0.9165 -0.6984  1.6109
 5829TIP3    H241683   1.574   0.660   2.163 -0.2476  2.3606  0.2284
 5830TIP3   OH241684   0.504   2.614   1.721 -0.3290 -0.3091 -0.0635
 5830TIP3    H141685   0.511   2.548   1.653  1.1308 -0.6014  0.3273
 5830TIP3    H241686   0.559   2.687   1.689 -0.4996 -0.0156  0.3044
 5831TIP3   OH241687   0.898   1.485   2.873  0.2444 -0.8200  0.5368
 5831TIP3    H141688   0.817   1.436   2.860 -0.6051  0.3420  1.3294
 5831TIP3    H241689   0.896   1.553   2.806  0.5727 -0.7890  0.5574
 5832TIP3   OH241690   1.229   6.120   1.422 -0.4909  0.6634 -0.4206
 5832TIP3    H141691   1.304   6.098   1.478  0.3816  2.5859 -0.7429
 5832TIP3    H241692   1.260   6.192   1.367 -2.5165  1.4213 -0.6835
 5833TIP3   OH241693   3.962   1.740   3.399  0.1051 -0.6339  0.4127
 5833TIP3    H141694   3.947   1.692   3.317 -0.5621  1.5358 -0.8392
 5833TIP3    H241695   3.902   1.699   3.462  0.1298 -1.9073 -0.3590
 5834TIP3   OH241696   2.291   0.600   1.955 -0.2206  0.1848 -0.2813
 5834TIP3    H141697   2.278   0.685   1.996 -0.0915  0.1894 -0.2489
 5834TIP3    H241698   2.226   0.543   1.997 -0.4833  0.3294 -0.4926
 5835TIP3   OH241699   4.512   0.192   2.909 -0.0493 -0.0249 -0.5521
 5835TIP3    H141700   4.494   0.194   2.815 -1.9437 -1.4719 -0.2975
 5835TIP3    H241701   4.574   0.120   2.919 -0.8256 -0.7319 -0.6156
 5836TIP3   OH241702   0.029   5.805   2.750 -0.0407  0.2192  0.0962
 5836TIP3    H141703  -0.009   5.879   2.798  0.3869 -0.1093  0.9486
 5836TIP3    H241704  -0.003   5.728   2.796  0.2742 -0.1038 -0.2251
 5837TIP3   OH241705   4.909   3.287   1.516  0.0493 -0.0391  0.5038
 5837TIP3    H141706   4.837   3.224   1.511 -1.1580  1.2272  1.1041
 5837TIP3    H241707   4.904   3.336   1.434  0.0724  0.2131  0.6529
 5838TIP3   OH241708   0.732   2.571   1.532 -0.2614 -0.0616 -0.5108
 5838TIP3    H141709   0.780   2.600   1.455 -0.8257 -0.3700 -0.9921
 5838TIP3    H241710   0.669   2.506   1.498 -0.2949 -0.4459  0.2530
 5839TIP3   OH241711   2.197   0.591   0.544 -0.4789  0.5088  0.1762
 5839TIP3    H141712   2.198   0.686   0.533 -1.5369  0.6769  1.3362
 5839TIP3    H241713   2.267   0.573   0.607 -1.6949  0.7896  1.6576
 5840TIP3   OH241714   5.804   2.539   1.667 -0.4193 -0.9571 -0.2617
 5840TIP3    H141715   5.878   2.478   1.657 -1.2944 -2.3228  1.1029
 5840TIP3    H241716   5.837   2.608   1.725 -0.0149 -1.2342 -0.1574
 5841TIP3   OH241717   4.463   2.052   1.209  0.3268 -0.3051  0.3353
 5841TIP3    H141718   4.546   2.046   1.162  1.2910  1.2702  1.7314
 5841TIP3    H241719   4.453   1.966   1.250  2.1705 -0.0227  1.5220
 5842TIP3   OH241720   5.261   6.330   0.386  0.0776 -0.3892  0.1753
 5842TIP3    H141721   5.306   6.348   0.469  1.4534  2.2848 -1.0302
 5842TIP3    H241722   5.171   6.309   0.412  1.2175 -2.9486  2.4934
 5843TIP3   OH241723   2.467   0.851   0.578 -0.2851 -0.3873 -0.1512
 5843TIP3    H141724   2.373   0.859   0.562 -0.3803  1.6671  1.1327
 5843TIP3    H241725   2.497   0.940   0.591  1.2946 -1.1681  2.3231
 5844TIP3   OH241726   4.403   1.412   1.785 -0.3063  0.0763 -0.7167
 5844TIP3    H141727   4.488   1.429   1.826  0.0650  1.1699 -1.8904
 5844TIP3    H241728   4.418   1.335   1.730  0.0254  0.4992 -1.2177
 5845TIP3   OH241729   0.073   7.316   2.784  0.2837  0.2744  0.1679
 5845TIP3    H141730   0.153   7.273   2.814 -0.4650 -0.5301  1.0549
 5845TIP3    H241731   0.099   7.360   2.703  1.5375 -0.2618  0.2547
 5846TIP3   OH241732   0.993   1.420   1.397  0.2064 -0.4349  0.4591
 5846TIP3    H141733   0.925   1.373   1.349 -0.4290  0.0079  0.9059
 5846TIP3    H241734   0.948   1.456   1.474  0.8465  0.2458  0.5319
 5847TIP3   OH241735   3.123   6.569   3.219 -0.9763 -0.5376  0.0582
 5847TIP3    H141736   3.105   6.631   3.290 -1.5246 -0.7530  0.1142
 5847TIP3    H241737   3.203   6.525   3.246 -1.3799 -0.8830  0.7364
 5848TIP3   OH241738   3.832   6.978   1.806  0.3532 -0.1692  0.0068
 5848TIP3    H141739   3.921   7.015   1.806 -0.1674  1.2044  1.5836
 5848TIP3    H241740   3.846   6.883   1.804  1.7435 -0.0129 -3.2013
 5849TIP3   OH241741   3.396   7.447   1.258 -0.1086  0.3786 -0.0319
 5849TIP3    H141742   3.410   7.465   1.166 -1.8860 -1.4250 -0.7392
 5849TIP3    H241743   3.313   7.491   1.279 -0.8577 -1.0357  0.0758
 5850TIP3   OH241744   4.339   7.075   1.038 -0.2905  0.1920  0.1675
 5850TIP3    H141745   4.430   7.097   1.058  0.5434  0.1961 -3.0442
 5850TIP3    H241746   4.336   6.980   1.047  0.3121  0.0928 -0.5167
 5851TIP3   OH241747   5.838   4.750   9.565  0.3573 -0.3735  0.0366
 5851TIP3    H141748   5.915   4.715   9.520  0.9382 -1.3314  1.6622
 5851TIP3    H241749   5.843   4.713   9.653 -1.7259 -0.0768  0.3397
 5852TIP3   OH241750   0.314   5.980   1.668  0.3034 -0.0941  0.2492
 5852TIP3    H141751   0.305   5.920   1.741 -0.9803 -1.8134 -1.2293
 5852TIP3    H241752   0.389   5.947   1.618 -0.6693 -0.7578 -0.8007
 5853TIP3   OH241753   6.397   1.027   0.610 -0.4186 -0.0653  0.0883
 5853TIP3    H141754   6.379   0.997   0.699  1.2167  0.2044  0.5430
 5853TIP3    H241755   6.365   0.956   0.554  0.8858 -1.4759  1.0251
 5854TIP3   OH241756   1.539   2.062   2.267 -0.0597 -0.3763  0.2226
 5854TIP3    H141757   1.569   2.040   2.355  0.9810  1.1459  0.2834
 5854TIP3    H241758   1.445   2.077   2.277  0.2437  0.9649  1.3518
 5855TIP3   OH241759   1.248   4.192   1.772 -0.1415 -0.5080  0.2635
 5855TIP3    H141760   1.329   4.226   1.733  0.2919 -0.2488  1.3424
 5855TIP3    H241761   1.238   4.243   1.852 -0.8333 -1.2381  0.6487
 5856TIP3   OH241762   0.392   2.637   2.980 -0.0391  0.3399  0.3777
 5856TIP3    H141763   0.471   2.585   2.961 -1.3880 -1.5931 -0.2000
 5856TIP3    H241764   0.421   2.728   2.970  1.6940 -0.3472 -1.5980
 5857TIP3   OH241765   2.057   5.595   1.995  0.3321  0.0334  0.6691
 5857TIP3    H141766   2.116   5.553   1.933  0.3842 -0.1663  0.8541
 5857TIP3    H241767   2.059   5.688   1.971  0.8533  0.0553  0.7757
 5858TIP3   OH241768   4.161   1.603   0.842 -0.1014 -0.0478  0.3739
 5858TIP3    H141769   4.127   1.669   0.902 -2.2534  0.7313 -1.5347
 5858TIP3    H241770   4.203   1.652   0.772 -0.7024 -0.7280 -0.4931
 5859TIP3   OH241771   5.036   1.913   1.446 -0.4701  0.2410  0.1254
 5859TIP3    H141772   4.985   1.904   1.527 -1.6083 -1.5248 -0.7311
 5859TIP3    H241773   4.977   1.883   1.377  1.3204 -0.7283 -1.0578
 5860TIP3   OH241774   5.312   2.620   1.869 -0.7717  0.3824 -0.4938
 5860TIP3    H141775   5.293   2.635   1.777 -1.2175  0.2823 -0.4207
 5860TIP3    H241776   5.347   2.530   1.872  0.4112  0.8116 -0.7201
 5861TIP3   OH241777   4.029   1.199   1.918  0.0277  0.0834  0.6172
 5861TIP3    H141778   4.065   1.226   2.002 -2.1496 -0.8129  1.9350
 5861TIP3    H241779   4.066   1.112   1.903 -0.3948 -0.2075  1.2157
 5862TIP3   OH241780   3.057   3.055   2.018 -0.0961  0.1165  0.3862
 5862TIP3    H141781   2.977   3.048   1.968 -1.2336 -0.8721  2.2208
 5862TIP3    H241782   3.043   3.129   2.077  0.3228 -0.0540  0.7145
 5863TIP3   OH241783   4.427   3.366   0.700 -0.2729 -0.0025  0.4839
 5863TIP3    H141784   4.339   3.350   0.732 -1.0244  0.9315 -0.9969
 5863TIP3    H241785   4.434   3.462   0.695  0.5451 -0.0807 -0.1072
 5864TIP3   OH241786   0.918   6.990   2.707 -0.5355 -0.2453  0.1441
 5864TIP3    H141787   0.962   7.001   2.623 -1.8482 -1.0933 -0.6954
 5864TIP3    H241788   0.971   7.041   2.769 -1.1971  3.0226 -1.7272
 5865TIP3   OH241789   2.689   1.289   3.317 -0.3410 -0.7750  0.2186
 5865TIP3    H141790   2.600   1.265   3.289 -0.3336  0.8723 -1.4512
 5865TIP3    H241791   2.676   1.365   3.373  0.0155 -0.5023 -0.0678
 5866TIP3   OH241792   6.306   2.894   1.043 -1.0433 -0.1297 -0.4004
 5866TIP3    H141793   6.346   2.930   0.964 -2.9370 -0.9885 -1.8298
 5866TIP3    H241794   6.315   2.964   1.109 -1.3563  1.4933 -2.0030
 5867TIP3   OH241795   2.975   6.486   2.023  0.0086  0.0842  0.4824
 5867TIP3    H141796   2.918   6.520   1.954 -0.3679 -1.7734 -0.1706
 5867TIP3    H241797   2.998   6.563   2.075 -1.4305  1.1960 -0.4488
 5868TIP3   OH241798   0.702   1.807   0.740 -0.3192  0.1982  0.0651
 5868TIP3    H141799   0.787   1.826   0.701 -0.7899  2.9386  0.1403
 5868TIP3    H241800   0.695   1.712   0.738  1.0005 -0.0007 -3.7295
 5869TIP3   OH241801   0.600   0.684   1.773 -0.9076  0.3211 -0.5145
 5869TIP3    H141802   0.527   0.659   1.717 -0.4807  0.4194 -1.1264
 5869TIP3    H241803   0.670   0.708   1.712 -0.1439 -0.3986  0.0469
 5870TIP3   OH241804   4.182   2.478   2.317  0.3394  0.0974 -0.5375
 5870TIP3    H141805   4.201   2.567   2.289 -1.4516  0.2186 -1.5642
 5870TIP3    H241806   4.156   2.486   2.408  0.4095  0.6020 -0.5600
 5871TIP3   OH241807   3.887   5.978   0.861 -0.0949 -0.2077  0.2514
 5871TIP3    H141808   3.870   6.010   0.950 -0.2985  0.2415  0.0541
 5871TIP3    H241809   3.802   5.983   0.817 -0.1766 -1.2146  0.2709
 5872TIP3   OH241810   1.010   4.685   2.196  0.2939  0.1959  0.4604
 5872TIP3    H141811   0.920   4.660   2.175  0.3152 -1.0832  1.7178
 5872TIP3    H241812   1.059   4.602   2.194  1.5304  0.9172 -0.5475
 5873TIP3   OH241813   2.302   6.170   1.053  0.8332 -0.2506 -0.1111
 5873TIP3    H141814   2.253   6.129   0.982 -0.5371 -0.8055  1.0864
 5873TIP3    H241815   2.322   6.258   1.022  0.7828 -0.6773 -1.3951
 5874TIP3   OH241816   1.410   3.496   2.887 -0.4807 -0.2349 -0.0248
 5874TIP3    H141817   1.346   3.427   2.873 -1.7808  0.9967 -0.4416
 5874TIP3    H241818   1.376   3.571   2.838  0.5865  0.8687  0.8417
 5875TIP3   OH241819   0.319   6.249   1.309  0.2048  0.5553 -0.3628
 5875TIP3    H141820   0.386   6.298   1.261  0.4566  0.8129  0.2476
 5875TIP3    H241821   0.297   6.305   1.384  0.3875 -0.1987  0.2601
 5876TIP3   OH241822   3.246   1.273   1.481 -0.3091 -0.2605 -0.3952
 5876TIP3    H141823   3.323   1.310   1.524 -0.6815 -1.2353  1.2040
 5876TIP3    H241824   3.280   1.232   1.402  0.5998  0.4591 -0.3985
 5877TIP3   OH241825   3.802   3.033   0.902 -0.2157 -0.0973 -0.1544
 5877TIP3    H141826   3.729   3.015   0.842  0.0146  2.9162 -1.5247
 5877TIP3    H241827   3.880   3.031   0.846  0.1850  1.1818  0.3136
 5878TIP3   OH241828   2.519   3.924   2.402 -0.0117 -0.0604  0.0388
 5878TIP3    H141829   2.473   3.993   2.449 -0.0914 -0.1467  0.0882
 5878TIP3    H241830   2.607   3.923   2.439  0.5605  1.2325 -1.1946
 5879TIP3   OH241831   2.817   6.744   2.098 -0.6454 -0.0579  0.1638
 5879TIP3    H141832   2.869   6.798   2.157 -0.1495  1.2252 -1.3654
 5879TIP3    H241833   2.771   6.683   2.155 -0.4487  1.3215  1.8854
 5880TIP3   OH241834   2.532   7.180   2.045  0.3456  0.8021 -0.4197
 5880TIP3    H141835   2.507   7.256   1.993  0.4569  1.1681  0.0548
 5880TIP3    H241836   2.547   7.111   1.980 -1.7948  0.5753 -0.7400
 5881TIP3   OH241837   2.537   5.225   0.831  0.2748  0.1080  0.0037
 5881TIP3    H141838   2.533   5.132   0.852 -1.9128  0.0477 -0.4364
 5881TIP3    H241839   2.572   5.266   0.910 -1.2106 -0.8281  1.2064
 5882TIP3   OH241840   1.531   3.985   3.105 -0.6296  0.1733  0.5526
 5882TIP3    H141841   1.623   4.010   3.111 -0.2644 -1.2040  1.2026
 5882TIP3    H241842   1.492   4.020   3.185 -0.3098 -0.5721  1.0470
 5883TIP3   OH241843   5.460   3.768   1.765 -0.0656  0.3635 -0.3552
 5883TIP3    H141844   5.430   3.727   1.684 -1.2635 -0.1339  0.3009
 5883TIP3    H241845   5.502   3.697   1.814  2.9841  1.1969 -1.5459
 5884TIP3   OH241846   0.570   2.851   2.265 -0.4395  0.0109 -0.0319
 5884TIP3    H141847   0.500   2.817   2.210 -0.1790  0.3771 -0.6004
 5884TIP3    H241848   0.525   2.897   2.336 -0.7778  0.6561 -0.6552
 5885TIP3   OH241849   5.108   0.877   0.790 -0.3561 -0.6030 -0.0173
 5885TIP3    H141850   5.080   0.807   0.731 -1.7511 -0.4010  0.3489
 5885TIP3    H241851   5.065   0.956   0.755 -0.8435 -0.4011  0.9945
 5886TIP3   OH241852   6.500   5.199   2.504 -0.4029 -0.0837  0.3886
 5886TIP3    H141853   6.501   5.130   2.438 -0.3440  0.4168 -0.1445
 5886TIP3    H241854   6.477   5.155   2.586 -1.0600 -0.6152 -0.0790
 5887TIP3   OH241855   6.728   1.574   1.672  0.5233  0.3806 -0.2749
 5887TIP3    H141856   6.768   1.510   1.731  0.1591  0.3502 -0.0598
 5887TIP3    H241857   6.801   1.606   1.619  0.4398 -1.5274 -1.6417
 5888TIP3   OH241858   5.161   4.135   1.456 -0.4440 -0.0813  0.1593
 5888TIP3    H141859   5.162   4.141   1.361 -0.4494  1.5959  0.2383
 5888TIP3    H241860   5.229   4.071   1.477  2.1531  2.1535 -0.8513
 5889TIP3   OH241861   6.024   4.836   1.942  0.4562 -0.1869 -0.2534
 5889TIP3    H141862   5.929   4.846   1.948  0.6683  1.9599  0.4195
 5889TIP3    H241863   6.039   4.785   1.863 -1.3040 -1.9865  0.5048
 5890TIP3   OH241864   5.293   4.207   1.885 -0.0172 -0.5616  0.3066
 5890TIP3    H141865   5.332   4.121   1.902 -1.3287 -1.2500 -0.0741
 5890TIP3    H241866   5.296   4.218   1.790  1.0994  0.3010  0.4148
 5891TIP3   OH241867   3.830   6.959   1.213  0.1087 -0.5048  0.4966
 5891TIP3    H141868   3.839   7.034   1.271  0.8866 -1.3513  1.4903
 5891TIP3    H241869   3.918   6.942   1.181  0.0853 -1.4897  0.9175
 5892TIP3   OH241870   3.000   2.291   3.178  0.1403 -0.4567  0.2044
 5892TIP3    H141871   2.977   2.381   3.198 -0.7947  0.1304 -2.8592
 5892TIP3    H241872   3.092   2.294   3.152 -0.2931 -0.0247 -1.3899
 5893TIP3   OH241873   6.909   3.814   0.371  0.2024  0.0483 -0.6040
 5893TIP3    H141874   6.816   3.837   0.380 -0.7331 -3.6480  1.3605
 5893TIP3    H241875   6.917   3.778   0.283  0.0954  1.4251 -1.1980
 5894TIP3   OH241876   0.449   6.773   1.639  0.5041  0.1252 -0.7852
 5894TIP3    H141877   0.364   6.802   1.606  0.8375  0.4425 -1.3762
 5894TIP3    H241878   0.431   6.744   1.729 -0.1328  0.6561 -0.7365
 5895TIP3   OH241879   1.663   5.796   1.521  0.0613 -0.1720  0.0157
 5895TIP3    H141880   1.662   5.856   1.595  1.9665  2.2894 -1.7658
 5895TIP3    H241881   1.754   5.765   1.517  0.6482  1.5477 -2.4895
 5896TIP3   OH241882   4.330   1.776   1.088  0.3532 -0.4105 -0.4594
 5896TIP3    H141883   4.379   1.732   1.157 -0.9916  0.1810  0.9482
 5896TIP3    H241884   4.238   1.765   1.114 -0.1406  0.6133 -1.6751
 5897TIP3   OH241885   3.053   0.418   2.788  0.4761 -0.1419 -0.7097
 5897TIP3    H141886   3.131   0.472   2.791  0.2386  0.2038 -0.7268
 5897TIP3    H241887   3.060   0.361   2.865  2.1508 -2.1008 -2.2064
 5898TIP3   OH241888   3.992   3.946   0.718 -0.5040  0.5669 -0.5385
 5898TIP3    H141889   4.080   3.920   0.691 -0.0410  1.3443  0.1959
 5898TIP3    H241890   3.989   3.927   0.812 -1.5447 -0.5826 -0.7622
 5899TIP3   OH241891   5.167   1.232   1.525  0.1805 -0.2638  0.3167
 5899TIP3    H141892   5.096   1.291   1.551 -1.6498 -1.0638 -2.3233
 5899TIP3    H241893   5.245   1.287   1.522 -0.8879  1.3339  0.7197
 5900TIP3   OH241894   3.513   4.541   1.986  0.1125 -0.5927 -0.2661
 5900TIP3    H141895   3.419   4.523   1.991 -0.0240 -0.7552 -2.4220
 5900TIP3    H241896   3.525   4.620   2.039 -1.2965 -0.4212 -0.1618
 5901TIP3   OH241897   2.566   3.400   2.532  0.8314 -0.3020 -0.5806
 5901TIP3    H141898   2.588   3.488   2.562 -0.5340 -0.6484  1.6584
 5901TIP3    H241899   2.596   3.342   2.602 -0.3051 -1.4004 -0.9542
 5902TIP3   OH241900   2.777   1.384   0.364 -0.0463  0.6491  0.0745
 5902TIP3    H141901   2.862   1.409   0.327 -0.1252 -0.0584 -0.5997
 5902TIP3    H241902   2.771   1.290   0.349 -0.5838  0.5477  0.8830
 5903TIP3   OH241903   0.667   4.721   2.706 -0.3438 -0.4811  0.5539
 5903TIP3    H141904   0.643   4.753   2.793 -0.9037 -0.1897  0.3004
 5903TIP3    H241905   0.620   4.638   2.697 -0.5655 -0.3372  0.3914
 5904TIP3   OH241906   1.574   3.244   0.735 -0.3533 -0.0974 -0.4171
 5904TIP3    H141907   1.533   3.300   0.670 -0.1750 -0.4630 -0.8452
 5904TIP3    H241908   1.501   3.202   0.781 -0.4736 -0.0857 -0.5992
 5905TIP3   OH241909   4.004   5.725   0.879  0.0614 -0.2036 -0.4907
 5905TIP3    H141910   3.925   5.688   0.916  0.6463 -0.5391  0.4589
 5905TIP3    H241911   3.982   5.817   0.863 -0.0107  0.1378  1.3624
 5906TIP3   OH241912   7.385   7.099   2.670 -0.0887 -0.3464  0.2768
 5906TIP3    H141913   7.435   7.141   2.740 -2.1404 -0.4626  1.9156
 5906TIP3    H241914   7.360   7.172   2.613  0.6272 -0.0736  0.3009
 5907TIP3   OH241915   3.423   6.728   1.537 -0.8367  0.0008 -0.0691
 5907TIP3    H141916   3.488   6.783   1.493 -0.9436  0.4931  0.3720
 5907TIP3    H241917   3.438   6.640   1.503  0.6228 -0.0527  0.6599
 5908TIP3   OH241918   4.484   6.051   1.415 -0.0881  0.1768  0.1907
 5908TIP3    H141919   4.416   6.105   1.374 -0.2254 -1.3226 -1.6528
 5908TIP3    H241920   4.449   5.962   1.412  0.7071 -0.2374  1.9600
 5909TIP3   OH241921   3.480   0.180   0.629  0.5829 -0.8717  0.3799
 5909TIP3    H141922   3.426   0.239   0.576  1.2745 -0.5376  0.0373
 5909TIP3    H241923   3.419   0.113   0.660 -0.2974  0.2249  1.0905
 5910TIP3   OH241924   2.051   7.403   1.241  0.0895  0.1682 -0.0638
 5910TIP3    H141925   2.110   7.453   1.184  1.2042  0.5063  1.3217
 5910TIP3    H241926   1.976   7.460   1.254  0.0562  0.2935 -0.7901
 5911TIP3   OH241927   1.295   1.379   1.980 -0.1805 -0.1368  0.3458
 5911TIP3    H141928   1.277   1.467   2.014  1.3434  0.5669 -0.5407
 5911TIP3    H241929   1.211   1.347   1.949 -0.5838  1.4978 -0.3691
 5912TIP3   OH241930   0.987   5.564   1.715  0.5627  0.0828  0.0419
 5912TIP3    H141931   1.002   5.528   1.803  0.2530  1.3412  0.6231
 5912TIP3    H241932   1.068   5.543   1.667  0.8007 -0.4767  0.6650
 5913TIP3   OH241933   5.125   1.698   1.949 -0.4749 -0.0939  0.3371
 5913TIP3    H141934   5.149   1.752   1.874 -0.1846 -0.4767  0.1518
 5913TIP3    H241935   5.200   1.702   2.008  0.1521 -1.4260 -0.3191
 5914TIP3   OH241936   6.845   6.405   1.673  0.1688 -0.4076 -0.0402
 5914TIP3    H141937   6.768   6.357   1.703 -0.7233  0.6666 -0.5216
 5914TIP3    H241938   6.891   6.429   1.754 -1.3567  1.0905  0.4562
 5915TIP3   OH241939   1.904   6.186   0.752  0.2667  0.9303  0.1154
 5915TIP3    H141940   1.981   6.237   0.728  1.6925 -0.8931  0.6026
 5915TIP3    H241941   1.915   6.168   0.845  0.0359 -0.6113 -0.1342
 5916TIP3   OH241942   4.704   2.239   0.576 -0.3464 -0.0300 -0.8103
 5916TIP3    H141943   4.773   2.203   0.520 -0.6137 -1.3679 -0.3160
 5916TIP3    H241944   4.686   2.169   0.639  1.5457  2.1833  2.4628
 5917TIP3   OH241945   1.275   4.042   0.760 -0.1595 -0.2405 -0.4265
 5917TIP3    H141946   1.186   4.032   0.792 -0.0095 -1.2485 -0.3028
 5917TIP3    H241947   1.277   4.131   0.723 -1.6946 -0.7904 -1.9460
 5918TIP3   OH241948   1.812   2.140   2.444  0.3731  0.7532  0.2237
 5918TIP3    H141949   1.806   2.048   2.416  0.3825  0.9560 -0.4774
 5918TIP3    H241950   1.905   2.154   2.460  0.1990  0.2138  1.8838
 5919TIP3   OH241951   3.251   5.731   2.840  0.2744  0.8833  0.6491
 5919TIP3    H141952   3.295   5.766   2.917  0.3125 -0.5291  1.3092
 5919TIP3    H241953   3.160   5.721   2.867  0.6580 -1.6558  1.3540
 5920TIP3   OH241954   2.062   7.237   0.707 -0.3251 -0.1090 -0.2189
 5920TIP3    H141955   2.099   7.186   0.779 -1.0881 -0.4802 -0.0895
 5920TIP3    H241956   2.081   7.185   0.629  1.4317  0.7836 -0.4463
 5921TIP3   OH241957   1.037   1.519   0.636 -0.3123 -0.3381 -0.0657
 5921TIP3    H141958   0.943   1.527   0.617 -0.4344 -0.7952  0.3358
 5921TIP3    H241959   1.046   1.434   0.679  0.1161  0.2057  0.9567
 5922TIP3   OH241960   5.140   1.328   1.821 -0.1372 -0.0536 -0.7851
 5922TIP3    H141961   5.220   1.280   1.843  0.2997  1.2529  0.7033
 5922TIP3    H241962   5.171   1.408   1.779 -0.7511 -0.1556 -1.4475
 5923TIP3   OH241963   4.062   1.565   1.137  0.2985  0.7216 -0.1769
 5923TIP3    H141964   4.135   1.576   1.198 -0.5246 -0.3587  1.0485
 5923TIP3    H241965   4.039   1.654   1.111  1.9289  1.0888 -0.4681
 5924TIP3   OH241966   3.331   5.835   1.153  0.0153 -0.2169 -0.3255
 5924TIP3    H141967   3.350   5.854   1.061 -1.1986  0.3038 -0.4958
 5924TIP3    H241968   3.325   5.921   1.195 -2.5757 -0.2317 -0.4708
 5925TIP3   OH241969   7.283   3.729   2.660 -0.1916  0.0326 -0.7665
 5925TIP3    H141970   7.290   3.728   2.755 -1.4013 -3.0198 -0.6078
 5925TIP3    H241971   7.362   3.774   2.631  0.3496  0.7872  1.6591
 5926TIP3   OH241972   0.536   2.109   0.956 -0.0492  0.3864  0.8450
 5926TIP3    H141973   0.591   2.041   0.994  2.3679  1.8064  0.0991
 5926TIP3    H241974   0.470   2.126   1.022  0.8691 -0.8427  2.1379
 5927TIP3   OH241975   1.030   5.258   2.164  0.2552  0.7386 -0.6009
 5927TIP3    H141976   1.034   5.339   2.214 -1.3209 -0.1622  1.1080
 5927TIP3    H241977   0.947   5.218   2.190  1.7700 -2.2771  0.0507
 5928TIP3   OH241978   4.601   6.856   2.331  0.0544 -0.3844 -0.1469
 5928TIP3    H141979   4.637   6.769   2.347  0.2731  0.0048  1.7371
 5928TIP3    H241980   4.672   6.916   2.354 -0.9291  0.3285  1.1703
 5929TIP3   OH241981   2.101   2.074   1.122  0.0013  0.6335  0.1713
 5929TIP3    H141982   2.159   2.123   1.181 -0.8488  2.6834 -0.6040
 5929TIP3    H241983   2.159   2.044   1.052  0.6630 -0.1419  1.0154
 5930TIP3   OH241984   5.152   0.927   2.535 -0.3553  0.6021 -0.2623
 5930TIP3    H141985   5.184   0.850   2.488  1.0037  1.9940 -1.7352
 5930TIP3    H241986   5.223   0.950   2.595 -0.6087  0.9117 -0.0756
 5931TIP3   OH241987   1.979   4.413   1.295 -0.1892  0.5943  0.1962
 5931TIP3    H141988   2.008   4.491   1.343  1.2174  0.6488 -0.6697
 5931TIP3    H241989   2.024   4.419   1.211 -0.1230 -1.0939  0.0770
 5932TIP3   OH241990   5.623   5.670   1.684  0.2429 -0.3866 -0.4179
 5932TIP3    H141991   5.564   5.745   1.683  0.7116  0.0259  0.9221
 5932TIP3    H241992   5.582   5.608   1.745  0.7764 -0.4337 -0.0984
 5933TIP3   OH241993   3.502   6.699   3.319  0.3105  0.8591 -0.0296
 5933TIP3    H141994   3.589   6.736   3.307  0.4243  0.6240  0.0813
 5933TIP3    H241995   3.450   6.771   3.355 -0.0281  1.5802 -1.8484
 5934TIP3   OH241996   4.282   1.587   1.310  0.0249  0.2340  0.2955
 5934TIP3    H141997   4.346   1.526   1.275 -2.7720 -1.6307 -2.0475
 5934TIP3    H241998   4.270   1.561   1.401 -0.1203 -1.9039 -0.2888
 5935TIP3   OH241999   3.246   6.067   1.878  0.5739  0.5751  0.3933
 5935TIP3    H142000   3.255   5.973   1.888 -2.0221  0.2265  0.1752
 5935TIP3    H242001   3.310   6.091   1.811 -0.9715 -1.6208 -2.0510
 5936TIP3   OH242002   6.331   0.876   2.256  0.1275  0.4906 -0.1076
 5936TIP3    H142003   6.354   0.837   2.172 -0.8897 -0.2485 -0.0628
 5936TIP3    H242004   6.415   0.898   2.296  0.6884 -0.6659 -0.6115
 5937TIP3   OH242005   2.536   1.127   0.615 -0.4328  0.3538  0.1584
 5937TIP3    H142006   2.571   1.139   0.527 -0.8062  1.6379  0.1662
 5937TIP3    H242007   2.478   1.202   0.628 -0.8709 -0.1570  1.2656
 5938TIP3   OH242008   1.352   5.831   1.035  0.1808 -0.0185 -0.1619
 5938TIP3    H142009   1.319   5.818   1.124  1.5175 -0.8949  0.2522
 5938TIP3    H242010   1.286   5.792   0.978 -0.9970  1.1077  0.3726
 5939TIP3   OH242011   7.042   6.809   2.355  0.1268  0.3040 -0.2259
 5939TIP3    H142012   6.996   6.771   2.429 -2.9348  1.2341 -1.5025
 5939TIP3    H242013   7.069   6.896   2.385 -1.1856  0.7169 -0.2010
 5940TIP3   OH242014   2.656   7.274   0.968  0.0473 -0.2871 -0.6511
 5940TIP3    H142015   2.703   7.234   0.896  2.3996  1.5328 -0.2715
 5940TIP3    H242016   2.713   7.261   1.044 -0.9848  0.3278  0.2655
 5941TIP3   OH242017   2.240   0.121   2.292 -0.5997  0.4222  0.3514
 5941TIP3    H142018   2.190   0.065   2.351  0.0198  1.6736  2.1484
 5941TIP3    H242019   2.324   0.133   2.336 -0.0091  1.1988 -0.9292
 5942TIP3   OH242020   1.916   2.278   1.020 -0.5896 -0.0127 -0.3237
 5942TIP3    H142021   1.821   2.286   1.028 -0.5710  0.2887 -0.3754
 5942TIP3    H242022   1.940   2.210   1.083 -0.9025 -0.5029 -0.7302
 5943TIP3   OH242023   2.873   5.847   2.478 -0.0509 -0.2685 -0.0849
 5943TIP3    H142024   2.899   5.824   2.389  0.3995 -0.7625  0.1698
 5943TIP3    H242025   2.887   5.768   2.529 -1.1930 -0.2784  0.2552
 5944TIP3   OH242026   6.801   2.145   2.687 -0.0791 -0.1852 -0.3092
 5944TIP3    H142027   6.823   2.237   2.700 -0.0310 -0.0799 -1.1212
 5944TIP3    H242028   6.885   2.099   2.695  0.0410 -0.0582 -0.8212
 5945TIP3   OH242029   3.948   5.449   0.955 -0.0549  0.4895 -0.7344
 5945TIP3    H142030   3.862   5.489   0.969 -0.1035  1.0835 -2.5644
 5945TIP3    H242031   3.930   5.370   0.905  0.2468 -0.8498  1.1637
 5946TIP3   OH242032   1.486   6.314   1.867 -0.6809  0.0424 -0.5726
 5946TIP3    H142033   1.540   6.359   1.802 -0.7742 -1.1189 -1.4988
 5946TIP3    H242034   1.540   6.310   1.946  0.2700 -0.3535 -1.2248
 5947TIP3   OH242035   1.652   2.229   1.072 -0.3249 -0.2230  0.3076
 5947TIP3    H142036   1.662   2.140   1.038 -0.0284  0.3926 -1.3026
 5947TIP3    H242037   1.577   2.265   1.023  0.4186  0.8607 -0.0762
 5948TIP3   OH242038   0.448   0.065   2.467 -0.1787 -0.4354  0.0121
 5948TIP3    H142039   0.527   0.075   2.414  0.6322  1.8556  1.4922
 5948TIP3    H242040   0.378   0.105   2.414 -0.0732 -1.1706 -0.6974
 5949TIP3   OH242041   4.902   1.564   2.424 -0.3372 -0.3186  0.7401
 5949TIP3    H142042   4.831   1.613   2.383 -0.1476  0.5874  1.4624
 5949TIP3    H242043   4.913   1.487   2.369 -0.6074  0.4761 -0.4494
 5950TIP3   OH242044   6.450   1.203   1.145  0.3482 -0.0159 -0.1227
 5950TIP3    H142045   6.511   1.184   1.074 -0.2164 -1.2840 -0.2947
 5950TIP3    H242046   6.503   1.244   1.213  1.3584 -0.8931 -0.3637
 5951TIP3   OH242047   1.505   0.098   2.784 -0.0481 -0.3571 -0.6197
 5951TIP3    H142048   1.508   0.025   2.722 -0.4759 -1.0860  0.1893
 5951TIP3    H242049   1.412   0.109   2.804 -0.1887  1.5414 -1.9981
 5952TIP3   OH242050   3.742   5.744   3.265  0.1441 -0.2611 -0.3337
 5952TIP3    H142051   3.734   5.685   3.340  1.3796  1.6264  1.3791
 5952TIP3    H242052   3.830   5.727   3.231 -0.4391 -1.1634 -1.4552
 5953TIP3   OH242053   2.575   1.194   2.450  0.6380 -0.2271 -0.1839
 5953TIP3    H142054   2.628   1.164   2.377 -0.5687 -0.2927 -1.0699
 5953TIP3    H242055   2.508   1.126   2.461  1.7368 -1.0368  2.0617
 5954TIP3   OH242056   2.137   2.121   3.865  0.0016  0.1263 -0.1749
 5954TIP3    H142057   2.182   2.198   3.899 -0.4417  0.6723 -0.8083
 5954TIP3    H242058   2.166   2.050   3.923 -0.3429  0.9311  1.0406
 5955TIP3   OH242059   5.557   7.273   1.752 -0.2955 -0.3269  0.4504
 5955TIP3    H142060   5.542   7.358   1.711  0.1406  0.5222  1.9774
 5955TIP3    H242061   5.470   7.240   1.774 -0.4069  0.2927  0.9482
 5956TIP3   OH242062   2.703   4.962   8.112 -0.4815  0.1010 -0.1929
 5956TIP3    H142063   2.613   4.980   8.086 -1.0720 -2.5078 -0.2851
 5956TIP3    H242064   2.702   4.870   8.138  2.2908 -0.1742 -0.7717
 5957TIP3   OH242065   6.470   5.053   1.224 -0.0013 -0.0911 -0.1382
 5957TIP3    H142066   6.455   5.119   1.292  0.0878 -0.7656  0.5451
 5957TIP3    H242067   6.565   5.042   1.222  0.1636  1.1623 -1.5841
 5958TIP3   OH242068   0.749   1.533   2.166 -0.3932  0.0248 -0.2146
 5958TIP3    H142069   0.823   1.507   2.222  0.2588 -0.1098 -1.1224
 5958TIP3    H242070   0.758   1.627   2.157 -1.4543  0.2985  1.2268
 5959TIP3   OH242071   1.124   7.170   1.746 -0.2345  0.2268  0.1287
 5959TIP3    H142072   1.074   7.219   1.812 -0.5169 -1.5913  1.3157
 5959TIP3    H242073   1.166   7.238   1.694 -4.5878  2.0190 -1.5972
 5960TIP3   OH242074   0.490   3.189   1.779  0.4996 -0.1069 -0.0199
 5960TIP3    H142075   0.494   3.138   1.698 -0.7511  0.5294 -0.5049
 5960TIP3    H242076   0.532   3.272   1.757  0.9036 -0.2386  0.2380
 5961TIP3   OH242077   4.508   0.266   2.383 -0.1026 -0.1591 -0.0922
 5961TIP3    H142078   4.496   0.315   2.302  1.6396  0.8646  0.2016
 5961TIP3    H242079   4.551   0.184   2.355  1.3727  0.5996 -0.1632
 5962TIP3   OH242080   6.464   3.948   2.309  0.0733 -0.1738 -0.3847
 5962TIP3    H142081   6.410   3.885   2.357  0.2748 -0.0114  0.0610
 5962TIP3    H242082   6.480   4.018   2.372 -0.3738  0.4546 -0.9654
 5963TIP3   OH242083   2.830   6.447   1.514  0.0915  0.1531  0.5855
 5963TIP3    H142084   2.809   6.537   1.490 -4.2337 -0.8979 -0.4700
 5963TIP3    H242085   2.871   6.454   1.600  0.8255  3.1064  0.1134
 5964TIP3   OH242086   4.947   4.870   1.047 -0.3487 -0.2398 -0.0501
 5964TIP3    H142087   4.965   4.964   1.050  0.8120 -0.4630  1.7330
 5964TIP3    H242088   4.874   4.857   1.108 -0.4098 -0.4930 -0.1762
 5965TIP3   OH242089   0.574   0.569   3.199 -0.1394 -0.4330  0.9554
 5965TIP3    H142090   0.485   0.604   3.204  0.1830  0.2057  3.7960
 5965TIP3    H242091   0.631   0.644   3.214  0.7970 -1.1738  1.2410
 5966TIP3   OH242092   2.864   5.208   2.713 -0.2267 -0.3536 -0.2438
 5966TIP3    H142093   2.804   5.207   2.787  0.2731 -1.2705  0.1796
 5966TIP3    H242094   2.845   5.289   2.666  0.1777  0.7925  1.4973
 5967TIP3   OH242095   2.729   2.687   0.716 -0.2248 -0.6937 -0.0608
 5967TIP3    H142096   2.788   2.657   0.786 -0.5077 -0.9129  0.0894
 5967TIP3    H242097   2.641   2.664   0.748 -0.5037  0.7753  0.2975
 5968TIP3   OH242098   6.527   6.672   0.850 -0.2633  0.2695 -0.6133
 5968TIP3    H142099   6.458   6.607   0.868  0.9740 -0.4230  2.1648
 5968TIP3    H242100   6.514   6.738   0.918 -0.2167  1.9292 -2.1551
 5969TIP3   OH242101   2.829   0.708   0.826  0.1803 -0.7931  0.3538
 5969TIP3    H142102   2.907   0.663   0.858 -0.0316 -0.7381  0.9663
 5969TIP3    H242103   2.850   0.730   0.735  1.6573  0.9016  1.0249
 5970TIP3   OH242104   1.698   7.285   2.796 -0.0551  0.4256 -0.7857
 5970TIP3    H142105   1.726   7.199   2.765  0.5461  0.6558 -0.9025
 5970TIP3    H242106   1.710   7.282   2.890  1.1777  0.7909 -0.9083
 5971TIP3   OH242107   3.323   1.028   2.919 -0.1154 -0.5658 -0.2320
 5971TIP3    H142108   3.286   1.090   2.982  1.6149  0.2047  0.0956
 5971TIP3    H242109   3.279   1.048   2.837 -1.6479 -0.8733  0.4758
 5972TIP3   OH242110   0.645   7.423   0.991  0.4006  0.4954  0.6305
 5972TIP3    H142111   0.611   7.400   0.905 -1.2093 -0.2291  1.4025
 5972TIP3    H242112   0.585   7.380   1.052  1.7150  0.6775  2.1163
 5973TIP3   OH242113   0.123   4.025   0.902  0.3548  0.0148  0.2271
 5973TIP3    H142114   0.187   3.972   0.950  0.2202  0.1313  0.5405
 5973TIP3    H242115   0.085   4.082   0.969  0.9345  0.9416 -0.2062
 5974TIP3   OH242116   4.722   5.037   2.264 -0.1128  0.1539  0.2068
 5974TIP3    H142117   4.678   5.078   2.190  0.4843 -1.7975 -1.3107
 5974TIP3    H242118   4.671   4.958   2.283  0.8948 -0.4452  0.5184
 5975TIP3   OH242119   6.812   0.089   0.707  0.4947 -0.2875  0.1919
 5975TIP3    H142120   6.743   0.155   0.708  0.5177 -0.2420 -0.7463
 5975TIP3    H242121   6.815   0.058   0.616  1.4105 -0.5984  0.3168
 5976TIP3   OH242122   4.445   5.159   1.706 -0.4344  0.2537  0.9221
 5976TIP3    H142123   4.538   5.158   1.685 -0.8825 -0.5872 -1.3381
 5976TIP3    H242124   4.428   5.247   1.741  1.2103  0.3585  1.5046
 5977TIP3   OH242125   4.190   5.597   2.196  0.2810  0.2961  0.0801
 5977TIP3    H142126   4.243   5.603   2.276  1.1628  3.6738 -0.5692
 5977TIP3    H242127   4.145   5.681   2.192  0.0258  0.1259 -2.8030
 5978TIP3   OH242128   1.935   5.910   1.150 -0.0173 -0.1084  0.0412
 5978TIP3    H142129   1.869   5.930   1.217  0.0097  1.0104 -0.2484
 5978TIP3    H242130   2.018   5.937   1.189  0.0737 -0.0293 -0.2026
 5979TIP3   OH242131   5.753   6.502   2.814  0.7887 -0.0061 -0.1495
 5979TIP3    H142132   5.798   6.434   2.864  0.2569  0.3568  0.8491
 5979TIP3    H242133   5.682   6.531   2.871 -0.4318 -0.2314 -1.5076
 5980TIP3   OH242134   0.321   1.811   3.315  0.6981 -0.4242 -1.1626
 5980TIP3    H142135   0.401   1.759   3.302  1.7236  0.6549  0.3519
 5980TIP3    H242136   0.322   1.831   3.409 -0.9958  0.2296 -1.2574
 5981TIP3   OH242137   4.553   0.768   1.045  0.0162  0.3699  0.4748
 5981TIP3    H142138   4.500   0.847   1.042 -1.3200 -0.4778  0.9024
 5981TIP3    H242139   4.578   0.758   1.137 -1.0740 -0.4679  0.7091
 5982TIP3   OH242140   6.734   4.131   1.430  0.1037  0.0023 -0.2705
 5982TIP3    H142141   6.704   4.120   1.340 -1.3427 -0.5735  0.2449
 5982TIP3    H242142   6.720   4.224   1.449  1.9569  0.5032 -1.1252
 5983TIP3   OH242143   3.208   4.076   0.724  0.8126  0.0756  0.2813
 5983TIP3    H142144   3.279   4.134   0.748 -0.3053  1.0370  1.3493
 5983TIP3    H242145   3.190   4.025   0.803  1.5435 -1.5409 -0.5297
 5984TIP3   OH242146   1.587   1.939   2.534 -0.4659 -0.0625  0.3810
 5984TIP3    H142147   1.559   1.988   2.611  0.9373  1.6858 -0.1552
 5984TIP3    H242148   1.644   1.870   2.570 -2.5040 -1.4581  1.1412
 5985TIP3   OH242149   0.700   1.268   3.525 -0.3062 -0.4582  0.2634
 5985TIP3    H142150   0.687   1.338   3.589 -1.3008 -1.1245  0.8259
 5985TIP3    H242151   0.708   1.189   3.577  0.5273 -0.8166 -0.3803
 5986TIP3   OH242152   5.439   0.105   2.935 -0.0574  0.6733  0.1908
 5986TIP3    H142153   5.396   0.077   3.016  0.4163 -1.6713 -0.3092
 5986TIP3    H242154   5.369   0.103   2.869  0.1672 -0.2718 -0.0287
 5987TIP3   OH242155   2.620   5.750   2.125 -0.2939 -0.1266 -0.3973
 5987TIP3    H142156   2.560   5.757   2.050 -1.3056 -1.8493  0.1781
 5987TIP3    H242157   2.707   5.753   2.086 -0.7286  1.4328 -1.3725
 5988TIP3   OH242158   5.517   2.913   1.293 -0.1995  0.3972 -0.3436
 5988TIP3    H142159   5.578   2.913   1.219  2.3155 -2.2285  1.4930
 5988TIP3    H242160   5.458   2.840   1.275 -0.9556  1.0876 -0.7178
 5989TIP3   OH242161   5.791   5.126   1.373 -0.4443 -0.1757  0.0544
 5989TIP3    H142162   5.801   5.202   1.316  2.0952 -0.3368  0.1771
 5989TIP3    H242163   5.744   5.159   1.450 -1.5924  0.6412 -0.9689
 5990TIP3   OH242164   4.353   6.583   2.250  0.6712  0.2290 -0.5823
 5990TIP3    H142165   4.284   6.622   2.303  0.3651 -1.5842  0.4670
 5990TIP3    H242166   4.424   6.567   2.313  0.7361 -0.9516 -0.9299
 5991TIP3   OH242167   4.018   0.855   2.419  0.4889  0.5809  0.5006
 5991TIP3    H142168   3.987   0.885   2.334  0.1672  1.8817  1.0552
 5991TIP3    H242169   3.956   0.787   2.445  1.1228 -0.4939 -0.6943
 5992TIP3   OH242170   4.270   3.159   0.538  0.0625  0.1160 -0.0677
 5992TIP3    H142171   4.230   3.221   0.600  0.2939 -1.5793  1.8816
 5992TIP3    H242172   4.360   3.188   0.529  0.4824 -0.5253  1.7226
 5993TIP3   OH242173   6.938   5.045   2.371  0.0409  0.1028  0.4152
 5993TIP3    H142174   6.889   4.991   2.309  0.6644  2.1854 -2.0854
 5993TIP3    H242175   7.010   4.990   2.400 -0.7262 -1.2011 -0.0839
 5994TIP3   OH242176   6.367   7.154   0.712 -0.3514  0.2260  0.6189
 5994TIP3    H142177   6.374   7.190   0.801  0.4645  0.5883  0.4152
 5994TIP3    H242178   6.433   7.201   0.662 -0.7998  0.0171 -0.1872
 5995TIP3   OH242179   1.493   5.216   1.587 -0.3144 -0.0749  0.0325
 5995TIP3    H142180   1.467   5.132   1.550 -0.8522  0.7022 -1.4343
 5995TIP3    H242181   1.543   5.193   1.666  0.6220 -1.7909 -1.0020
 5996TIP3   OH242182   6.317   6.496   0.852 -0.0088  1.0197  0.0454
 5996TIP3    H142183   6.297   6.473   0.943 -0.0862  0.3902 -0.1237
 5996TIP3    H242184   6.259   6.569   0.832 -1.3638 -0.0379 -0.0821
 5997TIP3   OH242185   0.559   1.090   2.050  0.5033  0.1655 -0.1745
 5997TIP3    H142186   0.594   1.154   2.112 -0.9992  0.6479  0.2150
 5997TIP3    H242187   0.483   1.052   2.094  0.1919 -0.4381 -1.1953
 5998TIP3   OH242188   5.350   3.421   1.160  0.3176 -0.5764 -0.1877
 5998TIP3    H142189   5.334   3.360   1.232 -0.4758 -1.5335 -1.1508
 5998TIP3    H242190   5.263   3.450   1.134  0.6002 -0.2707 -0.7833
 5999TIP3   OH242191   6.323   4.429   1.141  0.5832  0.3678  0.3700
 5999TIP3    H142192   6.344   4.336   1.141  1.2940  0.5199  0.8503
 5999TIP3    H242193   6.314   4.452   1.048  2.5200  0.2736  0.1141
 6000TIP3   OH242194   6.956   3.498   1.909 -0.2919  0.0030 -0.0866
 6000TIP3    H142195   6.899   3.514   1.985  0.9468  2.1104  0.4889
 6000TIP3    H242196   6.902   3.525   1.834 -0.7885 -0.0388  0.2469
 6001TIP3   OH242197   7.234   4.601   0.675 -0.0887  0.0612  0.0157
 6001TIP3    H142198   7.251   4.613   0.768 -1.8409  0.8097  0.2806
 6001TIP3    H242199   7.212   4.688   0.643 -1.6273 -0.5186 -0.6137
 6002TIP3   OH242200   0.581   3.886   0.769  0.1661 -0.7404 -0.1174
 6002TIP3    H142201   0.493   3.918   0.788  0.7420  0.6351  0.3141
 6002TIP3    H242202   0.594   3.906   0.676  0.9997  1.5589  0.4387
 6003TIP3   OH242203   5.757   1.595   2.604  0.1803  0.1822  0.9800
 6003TIP3    H142204   5.780   1.506   2.631  0.9331 -0.0053 -0.2113
 6003TIP3    H242205   5.728   1.587   2.513  0.7500  1.2136  0.6860
 6004TIP3   OH242206   6.467   0.616   2.071  0.0465  0.3626 -0.1997
 6004TIP3    H142207   6.554   0.632   2.033  0.5506 -0.9038  0.3727
 6004TIP3    H242208   6.407   0.665   2.015  1.0466  0.6062 -1.0878
 6005TIP3   OH242209   4.002   3.669   2.038  0.3699  0.0130 -0.0104
 6005TIP3    H142210   4.008   3.746   2.094  2.0768  0.2227 -0.4127
 6005TIP3    H242211   3.970   3.599   2.095 -0.3580  0.8148  0.5718
 6006TIP3   OH242212   0.051   5.198   1.869 -0.4810  0.6949  0.7925
 6006TIP3    H142213   0.004   5.279   1.846 -1.8422  0.4660  2.4939
 6006TIP3    H242214  -0.018   5.132   1.876  0.3112 -0.0594  1.7091
 6007TIP3   OH242215   4.150   2.726   2.173 -0.7870  0.2118 -0.0884
 6007TIP3    H142216   4.169   2.698   2.084  0.6080 -0.2827  0.3223
 6007TIP3    H242217   4.114   2.814   2.164  0.4985  0.6781 -1.0917
 6008TIP3   OH242218   2.954   1.841   2.403 -0.2548 -0.1834 -0.6346
 6008TIP3    H142219   2.956   1.746   2.391  1.8673 -0.3616  0.5687
 6008TIP3    H242220   2.950   1.853   2.498 -2.1461  0.9899 -0.8169
 6009TIP3   OH242221   5.273   5.195   1.117 -0.4977  0.2239  0.2257
 6009TIP3    H142222   5.316   5.146   1.047 -3.3529 -0.1188 -1.4764
 6009TIP3    H242223   5.341   5.210   1.181  1.8177 -1.2143 -1.7070
 6010TIP3   OH242224   6.175   7.125   2.740  0.1432  0.0280  0.0544
 6010TIP3    H142225   6.153   7.214   2.712 -0.3613  0.0182  0.4212
 6010TIP3    H242226   6.260   7.108   2.699 -0.7787 -0.1770 -1.8821
 6011TIP3   OH242227   2.524   1.360   1.249  0.0140 -0.0114  0.0669
 6011TIP3    H142228   2.619   1.369   1.254  0.1955 -0.0413 -2.3771
 6011TIP3    H242229   2.491   1.442   1.286  1.0390  0.7190 -0.5939
 6012TIP3   OH242230   2.358   0.210   0.448 -0.2591 -0.3455  0.1820
 6012TIP3    H142231   2.422   0.277   0.425 -0.4522 -0.3813 -0.4593
 6012TIP3    H242232   2.409   0.128   0.451 -0.3740 -0.4659 -0.8926
 6013TIP3   OH242233   6.086   0.667   1.251 -0.0735 -0.2202 -0.1037
 6013TIP3    H142234   6.105   0.688   1.343  0.7569  0.7106 -0.4661
 6013TIP3    H242235   6.007   0.717   1.231 -0.9733 -1.3734  0.4235
 6014TIP3   OH242236   0.878   1.187   0.355  0.1073  0.1634  0.5599
 6014TIP3    H142237   0.806   1.201   0.294 -0.1647 -1.3467  0.4855
 6014TIP3    H242238   0.835   1.172   0.440  0.3562 -0.0182  0.6559
 6015TIP3   OH242239   2.104   1.976   2.687 -0.1533 -0.0682  0.6528
 6015TIP3    H142240   2.133   2.052   2.637 -0.0489  0.3281  1.3086
 6015TIP3    H242241   2.051   1.926   2.625 -2.4428  1.8556  0.8944
 6016TIP3   OH242242   1.362   2.346   2.352 -0.2493 -0.6700  0.4565
 6016TIP3    H142243   1.418   2.336   2.429  0.7742  0.5047 -0.0900
 6016TIP3    H242244   1.328   2.258   2.335  1.4363 -1.4417  0.8354
 6017TIP3   OH242245   2.671   0.330   3.449  0.7670  0.2676 -0.6527
 6017TIP3    H142246   2.739   0.292   3.504 -1.7218 -1.1501  1.7336
 6017TIP3    H242247   2.653   0.415   3.489 -1.1586 -0.8327  1.0510
 6018TIP3   OH242248   6.687   6.787   1.942  0.0157  0.3674  0.2306
 6018TIP3    H142249   6.630   6.752   2.011  0.5120  0.4547  0.6880
 6018TIP3    H242250   6.744   6.713   1.918 -0.4028  0.2240 -0.3600
 6019TIP3   OH242251   4.115   1.994   3.082 -0.4692 -0.5114  0.3964
 6019TIP3    H142252   4.096   1.900   3.088 -2.1425 -0.2513 -0.1953
 6019TIP3    H242253   4.101   2.027   3.171 -2.8213 -0.3723  0.0309
 6020TIP3   OH242254   3.120   7.463   3.106  0.2721 -0.1004  0.2178
 6020TIP3    H142255   3.143   7.554   3.127 -1.3512  0.1709  1.0210
 6020TIP3    H242256   3.027   7.467   3.081 -0.4462 -1.7762  2.2697
 6021TIP3   OH242257   1.200   1.904   1.459  0.3051  0.1385  0.0300
 6021TIP3    H142258   1.185   1.874   1.370 -0.9467  0.1075  0.2354
 6021TIP3    H242259   1.129   1.965   1.477 -0.7386 -1.4615  1.7147
 6022TIP3   OH242260   7.374   1.257   1.655 -0.0511  0.2671  0.2460
 6022TIP3    H142261   7.343   1.213   1.734  0.1184 -1.2476 -0.4943
 6022TIP3    H242262   7.314   1.228   1.586 -0.0428  1.3565 -0.2430
 6023TIP3   OH242263   3.848   0.776   3.469 -0.3113 -0.4436 -0.4837
 6023TIP3    H142264   3.871   0.687   3.493  0.2033 -0.4714 -1.0454
 6023TIP3    H242265   3.789   0.806   3.538  1.1558 -0.4914  0.8557
 6024TIP3   OH242266   2.672   0.406   0.807  0.9080 -0.1053  0.0428
 6024TIP3    H142267   2.594   0.352   0.807  1.4406 -0.9771 -2.1136
 6024TIP3    H242268   2.643   0.490   0.843 -1.2378 -0.1467 -1.4121
 6025TIP3   OH242269   0.315   7.280   0.516 -0.2740  0.4496 -0.1327
 6025TIP3    H142270   0.253   7.238   0.575 -0.8560  0.6448 -0.5931
 6025TIP3    H242271   0.338   7.362   0.560  0.0362  0.1489  0.2679
 6026TIP3   OH242272   3.686   7.207   0.531  0.3047  0.8120 -0.2004
 6026TIP3    H142273   3.685   7.138   0.464 -0.1882 -1.2817  1.8245
 6026TIP3    H242274   3.773   7.201   0.570 -0.5755 -0.5544  1.7224
 6027TIP3   OH242275   2.676   5.018   2.093  0.3248  0.1693  0.3955
 6027TIP3    H142276   2.743   5.085   2.077 -0.0070  0.6853  1.1358
 6027TIP3    H242277   2.612   5.032   2.024  0.1182  0.8014  0.7097
 6028TIP3   OH242278   3.885   5.490   2.383  0.3421 -1.0252  0.5570
 6028TIP3    H142279   3.790   5.499   2.382  0.2607 -1.4275  1.9568
 6028TIP3    H242280   3.908   5.466   2.294 -0.9248 -1.4230  0.3184
 6029TIP3   OH242281   3.130   2.538   3.853 -0.1912 -0.4659 -0.2425
 6029TIP3    H142282   3.118   2.539   3.758 -0.1948  0.3181 -0.2413
 6029TIP3    H242283   3.186   2.613   3.871  0.2470 -0.9169  0.3288
 6030TIP3   OH242284   4.825   7.278   2.474  0.0532  0.5461 -0.1561
 6030TIP3    H142285   4.751   7.242   2.522  0.0976 -0.6118 -0.9266
 6030TIP3    H242286   4.888   7.303   2.542 -1.2442  2.0782  0.5331
 6031TIP3   OH242287   5.172   2.668   2.571 -0.2422 -0.2321 -0.0798
 6031TIP3    H142288   5.181   2.753   2.527  0.6717 -0.0754  0.3822
 6031TIP3    H242289   5.083   2.669   2.607 -0.6742  0.0122 -1.1206
 6032TIP3   OH242290   2.259   2.238   1.310  0.1287 -0.4875 -0.3889
 6032TIP3    H142291   2.310   2.172   1.358  0.9101  0.5888  0.2969
 6032TIP3    H242292   2.304   2.321   1.328 -1.7427  0.4828  0.0773
 6033TIP3   OH242293   1.879   2.227   3.585 -0.3649 -0.3870 -0.1396
 6033TIP3    H142294   1.877   2.145   3.634  0.0990  0.2221  0.9358
 6033TIP3    H242295   1.856   2.202   3.495 -1.3200 -1.5164  0.3885
 6034TIP3   OH242296   5.001   1.991   1.916 -0.4930 -0.4225 -0.0065
 6034TIP3    H142297   5.094   2.012   1.926 -0.7025  0.1635  0.8390
 6034TIP3    H242298   4.964   2.003   2.004 -1.4953  0.0174 -0.4663
 6035TIP3   OH242299   2.556   0.388   0.365 -0.6903  0.2165  0.3402
 6035TIP3    H142300   2.549   0.472   0.320 -0.6579 -0.2515 -0.5654
 6035TIP3    H242301   2.649   0.379   0.383 -0.4424 -0.3636 -1.0666
 6036TIP3   OH242302   2.427   5.895   1.829 -0.0638 -0.0620 -0.0601
 6036TIP3    H142303   2.519   5.901   1.853  0.2042 -0.0304 -1.0383
 6036TIP3    H242304   2.419   5.948   1.750 -0.6738 -1.0083 -0.6596
 6037TIP3   OH242305   3.417   5.300   0.820  0.4687  0.7557  0.2081
 6037TIP3    H142306   3.327   5.319   0.848  0.2246 -0.9632  0.7096
 6037TIP3    H242307   3.410   5.218   0.771  1.8748  0.1026  1.0472
 6038TIP3   OH242308   3.195   3.316   3.322 -0.2599  0.0906  0.0065
 6038TIP3    H142309   3.223   3.393   3.372 -1.6189  0.3969  0.3280
 6038TIP3    H242310   3.276   3.280   3.287  0.7363 -0.0365  2.2730
 6039TIP3   OH242311   5.812   1.527   0.971  0.2213  0.3500 -0.6056
 6039TIP3    H142312   5.884   1.465   0.983  1.0094  1.5448  1.3375
 6039TIP3    H242313   5.791   1.522   0.877  1.2801 -1.6810 -0.7895
 6040TIP3   OH242314   3.031   2.835   0.925  0.4561  0.0906  0.3166
 6040TIP3    H142315   3.077   2.902   0.874  0.8365 -0.8894 -0.6595
 6040TIP3    H242316   3.054   2.753   0.883  1.4895 -0.8612  2.6064
 6041TIP3   OH242317   2.612   2.126   0.463  0.0580  0.1159 -0.1451
 6041TIP3    H142318   2.522   2.094   0.473 -0.3195  0.9465 -0.7735
 6041TIP3    H242319   2.603   2.221   0.453  1.0481  0.2642  0.2783
 6042TIP3   OH242320   4.125   6.104   1.465 -0.6641  0.2769 -0.0667
 6042TIP3    H142321   4.037   6.140   1.472 -0.8677 -0.4159  1.0061
 6042TIP3    H242322   4.179   6.179   1.437 -1.5863  0.6867 -0.7873
 6043TIP3   OH242323   3.749   1.280   0.651  0.2187 -0.2554  0.3053
 6043TIP3    H142324   3.788   1.364   0.672  0.3582 -0.1453 -0.3615
 6043TIP3    H242325   3.713   1.248   0.734  0.5125  0.2740  0.6398
 6044TIP3   OH242326   2.013   0.875   1.446 -0.2357 -0.4026 -0.1868
 6044TIP3    H142327   1.949   0.898   1.379 -1.0380  0.6790  0.8930
 6044TIP3    H242328   1.997   0.938   1.517 -0.1733 -2.1714  1.4981
 6045TIP3   OH242329   0.812   3.961   2.296  0.1049 -0.4779  0.2367
 6045TIP3    H142330   0.742   3.965   2.360  0.7252  1.5887  0.8499
 6045TIP3    H242331   0.800   4.039   2.242  1.4106 -0.5451 -0.1837
 6046TIP3   OH242332   7.453   1.351   0.788 -0.6514  0.7608  0.1171
 6046TIP3    H142333   7.469   1.300   0.867 -0.3620  1.6775  0.6691
 6046TIP3    H242334   7.405   1.428   0.819 -1.5995  0.5493 -0.7778
 6047TIP3   OH242335   2.960   0.431   2.197  0.3202  0.5042  0.8900
 6047TIP3    H142336   2.897   0.503   2.191  1.7709  1.6831 -1.8377
 6047TIP3    H242337   3.038   0.463   2.151  2.0061 -1.8583  1.8999
 6048TIP3   OH242338   3.790   4.681   1.935 -0.1271  0.0197  0.0251
 6048TIP3    H142339   3.722   4.670   2.001  0.6670 -1.9354  0.5944
 6048TIP3    H242340   3.855   4.738   1.978  0.8457 -1.9899  1.4235
 6049TIP3   OH242341   5.261   5.800   1.136 -0.2137  0.5714 -0.2102
 6049TIP3    H142342   5.276   5.716   1.094  0.7719  0.5463  0.1449
 6049TIP3    H242343   5.167   5.815   1.129 -0.2089  0.1174 -1.5371
 6050TIP3   OH242344   0.795   3.318   0.513  0.2890  0.0063  0.4317
 6050TIP3    H142345   0.857   3.297   0.583  0.8969  2.6051  0.7901
 6050TIP3    H242346   0.850   3.349   0.441 -0.4848  0.5198  0.0417
 6051TIP3   OH242347   3.586   2.641   1.382 -0.4290  0.3005 -0.0906
 6051TIP3    H142348   3.614   2.622   1.472  0.9512  1.8213 -0.1519
 6051TIP3    H242349   3.492   2.623   1.383  0.0007 -2.3803  0.8724
 6052TIP3   OH242350   5.260   7.106   1.252 -0.1889 -0.3390  0.0763
 6052TIP3    H142351   5.164   7.111   1.246 -0.1365  0.1415 -0.4386
 6052TIP3    H242352   5.290   7.196   1.240  0.1969  0.1409  3.6639
 6053TIP3   OH242353   3.851   4.083   3.019  0.3299 -0.0462  0.4816
 6053TIP3    H142354   3.825   4.101   3.110 -2.3087  0.0081 -0.1877
 6053TIP3    H242355   3.924   4.022   3.027 -0.6571 -1.0761  2.6702
 6054TIP3   OH242356   4.995   5.163   1.148 -0.1284 -0.2649  0.0456
 6054TIP3    H142357   4.955   5.245   1.176 -1.0008 -0.1888 -1.3473
 6054TIP3    H242358   5.089   5.180   1.153 -0.2812  0.3395  1.1183
 6055TIP3   OH242359   5.058   4.245   0.856 -0.4306  0.1881  0.2662
 6055TIP3    H142360   5.007   4.301   0.914  0.3198  2.3860 -1.0553
 6055TIP3    H242361   5.027   4.266   0.768  0.8882 -0.3787 -0.3746
 6056TIP3   OH242362   1.462   5.593   0.894 -0.3514 -0.2182  0.0660
 6056TIP3    H142363   1.458   5.605   0.799  2.2141  1.2763  0.0489
 6056TIP3    H242364   1.438   5.678   0.929 -0.1341 -0.4146  0.7016
 6057TIP3   OH242365   6.555   3.964   1.594  0.1929  0.3148  0.4599
 6057TIP3    H142366   6.537   3.874   1.569  2.2577 -0.7105  2.2697
 6057TIP3    H242367   6.627   3.991   1.536  1.0311 -0.0090  1.3179
 6058TIP3   OH242368   1.412   2.944   2.384  0.0114  0.6236  0.1976
 6058TIP3    H142369   1.405   3.032   2.419 -2.2400  1.1435 -1.3701
 6058TIP3    H242370   1.380   2.951   2.294  0.0783 -1.7319 -0.0781
 6059TIP3   OH242371   1.385   7.498   2.573  0.3496 -0.1577 -0.1828
 6059TIP3    H142372   1.398   7.403   2.576 -0.0448 -0.1841  1.2560
 6059TIP3    H242373   1.290   7.509   2.582  0.4618  0.3971  0.3391
 6060TIP3   OH242374   6.136   2.783   2.074  0.4610  0.1236  0.0708
 6060TIP3    H142375   6.156   2.780   2.167 -2.5993  2.1614  0.9471
 6060TIP3    H242376   6.044   2.757   2.068 -0.2604  2.6957 -1.9455
 6061TIP3   OH242377   3.197   1.936   2.596  0.1958  0.0520 -0.6368
 6061TIP3    H142378   3.283   1.969   2.621  0.0385 -0.7087  1.0504
 6061TIP3    H242379   3.188   1.960   2.504  2.0438  0.4878 -0.7469
 6062TIP3   OH242380   3.294   6.403   3.016 -0.1525  0.2116  0.0307
 6062TIP3    H142381   3.334   6.409   3.102  3.0520 -0.9852 -1.2275
 6062TIP3    H242382   3.285   6.309   2.999 -1.9880  0.4322 -0.4613
 6063TIP3   OH242383   4.103   5.317   2.393  0.3854 -0.3673  0.1279
 6063TIP3    H142384   4.067   5.230   2.410  0.0983 -0.2758 -0.0036
 6063TIP3    H242385   4.043   5.377   2.435 -0.3596 -0.1378 -1.2068
 6064TIP3   OH242386   6.967   7.499   0.915  0.0361  0.0006 -0.0161
 6064TIP3    H142387   6.906   7.547   0.859  1.2195  0.9394 -0.5632
 6064TIP3    H242388   6.924   7.415   0.931 -0.8591  0.1614 -1.3776
 6065TIP3   OH242389   6.100   0.174   1.185  0.2860 -0.4496 -0.2098
 6065TIP3    H142390   6.113   0.181   1.280 -1.2604  1.8492 -0.0885
 6065TIP3    H242391   6.077   0.263   1.157  2.4730 -0.6327 -3.0767
 6066TIP3   OH242392   4.284   3.935   1.584 -0.7886  0.0834  0.4584
 6066TIP3    H142393   4.259   3.928   1.491 -0.7251 -0.9421  0.5109
 6066TIP3    H242394   4.379   3.934   1.583 -0.7701 -1.6194  0.6238
 6067TIP3   OH242395   2.902   3.437   3.416  0.0818  0.8297 -0.0445
 6067TIP3    H142396   2.921   3.352   3.457 -2.1483  0.9575  1.4571
 6067TIP3    H242397   2.850   3.414   3.339 -2.1340  0.7760  1.3526
 6068TIP3   OH242398   2.527   2.172   1.216 -0.3171  0.6101  0.1283
 6068TIP3    H142399   2.611   2.212   1.191  0.2200  0.5666  1.7578
 6068TIP3    H242400   2.472   2.246   1.240 -0.0286  0.5146  1.1025
 6069TIP3   OH242401   2.099   4.853   3.213  0.0100 -0.1637  0.9606
 6069TIP3    H142402   2.170   4.904   3.251  1.4816 -1.0609 -0.4445
 6069TIP3    H242403   2.027   4.915   3.201  1.0324  1.0838  1.1687
 6070TIP3   OH242404   2.702   0.364   2.073 -0.5704 -0.2816  0.3095
 6070TIP3    H142405   2.766   0.344   2.142 -0.6342 -0.0939  0.4241
 6070TIP3    H242406   2.619   0.333   2.108 -0.6841  0.2696  0.5259
 6071TIP3   OH242407   6.346   5.803   0.686  0.1777 -0.4450 -0.1983
 6071TIP3    H142408   6.341   5.897   0.674  1.5132 -0.1378  1.2804
 6071TIP3    H242409   6.296   5.786   0.766  0.2286 -0.9479 -0.2697
 6072TIP3   OH242410   6.224   5.633   0.508  0.8930  0.5290  0.0341
 6072TIP3    H142411   6.233   5.670   0.420  0.8639  2.7566  0.8901
 6072TIP3    H242412   6.251   5.704   0.566 -0.9167 -0.2175  1.9028
 6073TIP3   OH242413   6.538   2.321   0.624  0.8123  0.1916 -0.2958
 6073TIP3    H142414   6.525   2.268   0.546  0.4979  0.2369 -0.2731
 6073TIP3    H242415   6.630   2.349   0.618  0.9739 -0.3309 -0.3182
 6074TIP3   OH242416   1.383   5.516   2.293 -0.1456  0.4553  0.5091
 6074TIP3    H142417   1.416   5.597   2.253  0.2057  1.1856  2.1616
 6074TIP3    H242418   1.430   5.511   2.377 -0.6962 -1.0971  0.7537
 6075TIP3   OH242419   3.721   4.464   1.314  0.2012  0.2909 -0.2404
 6075TIP3    H142420   3.654   4.470   1.246 -1.0684 -4.5928  0.2182
 6075TIP3    H242421   3.803   4.453   1.265 -0.1359  0.6507 -0.9032
 6076TIP3   OH242422   3.784   6.922   2.950 -0.1799 -0.0285 -0.4265
 6076TIP3    H142423   3.701   6.922   2.996 -0.9882 -0.7191 -1.8173
 6076TIP3    H242424   3.850   6.917   3.019 -1.3081 -0.3810  0.6656
 6077TIP3   OH242425   7.416   4.870   3.174  0.3679 -0.0064  0.9725
 6077TIP3    H142426   7.393   4.886   3.265  1.0419 -0.0449  1.1608
 6077TIP3    H242427   7.511   4.882   3.171  0.7653 -2.4983  0.8351
 6078TIP3   OH242428   6.967   2.687   1.749  0.0844  0.4449  0.3003
 6078TIP3    H142429   7.002   2.736   1.823 -1.2166  0.9403  0.6011
 6078TIP3    H242430   6.976   2.595   1.776  2.0662  0.4894 -0.0637
 6079TIP3   OH242431   3.961   1.874   0.611  0.2283  0.3915  0.4694
 6079TIP3    H142432   3.897   1.917   0.554  0.3484 -0.2961 -0.1965
 6079TIP3    H242433   3.920   1.873   0.697 -0.7436 -0.2345  0.0076
 6080TIP3   OH242434   5.498   3.201   1.006 -0.0012  0.4966  0.2351
 6080TIP3    H142435   5.591   3.182   1.020 -0.0990  0.3533  0.6975
 6080TIP3    H242436   5.494   3.297   1.003  0.2973  0.4931 -0.7716
 6081TIP3   OH242437   7.377   7.198   1.125 -0.4093  0.0266  0.2442
 6081TIP3    H142438   7.461   7.171   1.089  0.2847 -0.0780  1.8748
 6081TIP3    H242439   7.337   7.250   1.055  1.0889  0.2423 -0.4962
 6082TIP3   OH242440   1.911   4.075   1.900 -0.4448  0.1260  0.2383
 6082TIP3    H142441   1.881   3.985   1.913 -2.6331  0.9546  1.4815
 6082TIP3    H242442   1.831   4.127   1.897  0.7042  1.9406 -1.5869
 6083TIP3   OH242443   4.548   3.996   1.573  0.5565  0.0122  0.1540
 6083TIP3    H142444   4.547   4.091   1.583  0.6100 -0.0493  0.8515
 6083TIP3    H242445   4.640   3.974   1.555  0.9054 -0.0502  1.8039
 6084TIP3   OH242446   6.706   1.651   1.257  0.4035  0.4037  0.1747
 6084TIP3    H142447   6.658   1.578   1.219 -0.3093  1.5811 -1.2892
 6084TIP3    H242448   6.774   1.672   1.193 -0.7634  2.3699 -0.5089
 6085TIP3   OH242449   6.937   1.037   1.971  0.1309 -0.1629 -0.9169
 6085TIP3    H142450   6.956   0.956   2.019 -0.6706  0.4562  0.5112
 6085TIP3    H242451   6.968   1.107   2.029  1.4493  0.5613 -2.4321
 6086TIP3   OH242452   6.983   6.617   1.294 -0.3871 -0.3455  0.0324
 6086TIP3    H142453   6.959   6.553   1.361 -0.1368  0.9060  1.3706
 6086TIP3    H242454   6.901   6.636   1.249 -0.8656 -0.0908  0.9942
 6087TIP3   OH242455   6.521   2.685   1.613 -0.1989 -0.7098  0.1127
 6087TIP3    H142456   6.491   2.713   1.700  1.0487 -1.3765  0.7878
 6087TIP3    H242457   6.582   2.753   1.585 -2.0585  0.5298 -1.1610
 6088TIP3   OH242458   6.203   2.135   2.667 -0.2956  0.3214 -0.0902
 6088TIP3    H142459   6.268   2.069   2.691 -0.1326 -0.1113 -1.6542
 6088TIP3    H242460   6.129   2.117   2.725  0.9688  0.9451  1.8652
 6089TIP3   OH242461   1.629   1.452   0.563  0.3072 -0.0250  0.3284
 6089TIP3    H142462   1.575   1.461   0.642  1.0904 -0.3260  0.9179
 6089TIP3    H242463   1.674   1.536   0.555 -0.5719  0.3949 -0.4296
 6090TIP3   OH242464   3.556   0.662   2.413  0.0063  0.1789  0.3561
 6090TIP3    H142465   3.587   0.581   2.453  0.3441  0.6787  1.1244
 6090TIP3    H242466   3.607   0.671   2.332  1.0487  0.3899  1.0187
 6091TIP3   OH242467   7.425   0.478   0.320 -0.3031  0.4411 -0.0452
 6091TIP3    H142468   7.486   0.414   0.357 -1.2139 -0.4943 -0.1194
 6091TIP3    H242469   7.341   0.459   0.361 -0.6756  1.3604 -0.3441
 6092TIP3   OH242470   4.335   7.266   0.549 -0.0864  0.3175 -0.8695
 6092TIP3    H142471   4.382   7.297   0.471  2.4461 -0.0145  0.4424
 6092TIP3    H242472   4.307   7.346   0.593 -2.0555  0.5158 -2.3066
 6093TIP3   OH242473   7.459   0.716   2.143  0.0151  0.3747  0.0081
 6093TIP3    H142474   7.392   0.769   2.185  1.1123  1.3018  0.6254
 6093TIP3    H242475   7.476   0.761   2.060  0.4202  0.5811  0.2013
 6094TIP3   OH242476   2.538   5.661   1.332  0.0606 -0.0892  0.3053
 6094TIP3    H142477   2.559   5.568   1.341  1.8892  0.4070  1.7227
 6094TIP3    H242478   2.547   5.678   1.238  0.8973 -1.0757  0.1861
 6095TIP3   OH242479   0.762   0.864   1.206  0.1067  0.8211 -0.1006
 6095TIP3    H142480   0.795   0.808   1.276  0.2598  0.8994 -0.1113
 6095TIP3    H242481   0.677   0.895   1.238 -0.8415 -0.8625 -0.8312
 6096TIP3   OH242482   1.045   4.276   0.441  0.0875  0.3304 -0.8439
 6096TIP3    H142483   1.034   4.233   0.356 -1.6129 -0.8356 -0.0894
 6096TIP3    H242484   0.980   4.235   0.498  1.0956  1.1602  1.0132
 6097TIP3   OH242485   2.537   3.218   1.281  0.2793 -0.2430 -0.1221
 6097TIP3    H142486   2.497   3.177   1.204  0.5705 -0.0178 -0.3960
 6097TIP3    H242487   2.480   3.292   1.301 -0.6666 -1.1874  0.8198
 6098TIP3   OH242488   6.800   0.237   0.398 -0.0058  0.1704  0.5019
 6098TIP3    H142489   6.826   0.145   0.397 -0.5791  0.0111  0.2843
 6098TIP3    H242490   6.710   0.237   0.430 -0.2508  0.5968 -0.1726
 6099TIP3   OH242491   5.972   1.474   1.276  0.1405 -0.0598 -0.1909
 6099TIP3    H142492   5.973   1.569   1.281 -0.1765 -0.1147  1.4249
 6099TIP3    H242493   5.918   1.447   1.349 -1.4799 -1.4359 -1.8100
 6100TIP3   OH242494   2.587   3.413   1.595 -0.0105 -0.4677 -0.7314
 6100TIP3    H142495   2.626   3.453   1.516 -0.4357  2.0986  0.2471
 6100TIP3    H242496   2.493   3.420   1.581 -0.1234  1.6114  0.6547
 6101TIP3   OH242497   7.500   2.478   1.669 -0.3635  0.8035 -0.3971
 6101TIP3    H142498   7.408   2.450   1.672 -0.5811  1.3559 -1.3864
 6101TIP3    H242499   7.549   2.405   1.707 -1.0945 -0.0554 -1.0566
 6102TIP3   OH242500   2.790   4.746   2.434 -0.4794 -0.9778  0.2166
 6102TIP3    H142501   2.715   4.796   2.404  0.0894 -0.9221 -1.1744
 6102TIP3    H242502   2.865   4.803   2.418 -0.0687 -1.2974  0.9548
 6103TIP3   OH242503   4.236   5.311   2.881  0.5716  0.1959 -0.3496
 6103TIP3    H142504   4.146   5.312   2.848  0.3213 -1.0055  0.2226
 6103TIP3    H242505   4.256   5.403   2.898  0.1035  0.6830 -2.1436
 6104TIP3   OH242506   1.441   7.246   2.691 -0.5322  0.2396  0.6360
 6104TIP3    H142507   1.434   7.154   2.667 -1.3472  0.1727  1.1130
 6104TIP3    H242508   1.524   7.253   2.738  2.1290  0.6858 -3.5256
 6105TIP3   OH242509   1.393   2.637   0.792  0.3482  0.3861  0.1416
 6105TIP3    H142510   1.327   2.699   0.825 -0.5653  0.0800 -1.0460
 6105TIP3    H242511   1.351   2.594   0.718  1.3653 -0.8864  0.2592
 6106TIP3   OH242512   5.920   5.280   0.722  0.2288 -0.0089  0.2346
 6106TIP3    H142513   5.914   5.361   0.773  1.3640 -0.3077  0.8894
 6106TIP3    H242514   6.003   5.240   0.751 -0.5195 -1.6161  0.2474
 6107TIP3   OH242515   5.608   5.231   2.002  0.2939  0.1735  0.3247
 6107TIP3    H142516   5.658   5.161   2.044  0.0334 -0.1917  0.0298
 6107TIP3    H242517   5.520   5.196   1.991  0.5571 -0.0696 -1.2899
 6108TIP3   OH242518   0.435   5.630   1.191  0.5381 -0.2322 -0.9233
 6108TIP3    H142519   0.459   5.629   1.098 -0.0935 -1.9749 -1.1160
 6108TIP3    H242520   0.481   5.554   1.228  1.5109  0.9674  0.4127
 6109TIP3   OH242521   0.390   7.514   1.213  0.0806 -0.0924 -0.4617
 6109TIP3    H142522   0.424   7.603   1.206 -0.9957  0.5172  1.5285
 6109TIP3    H242523   0.395   7.493   1.306  1.4151 -2.5931 -1.0041
 6110TIP3   OH242524   7.328   1.879   0.843 -0.3348  0.3881  0.9262
 6110TIP3    H142525   7.256   1.930   0.807 -0.8949 -0.5647  0.6602
 6110TIP3    H242526   7.402   1.939   0.846 -0.7101  0.9237 -0.3130
 6111TIP3   OH242527   7.033   7.371   3.025 -0.6227  0.4971  0.6240
 6111TIP3    H142528   6.949   7.368   2.978 -1.8775 -0.3932  2.7633
 6111TIP3    H242529   7.056   7.279   3.038  0.5241  0.7344  0.4080
 6112TIP3   OH242530   6.676   3.881   2.547 -0.0794 -0.0577 -0.2882
 6112TIP3    H142531   6.587   3.848   2.564  0.3600 -0.6723  0.9028
 6112TIP3    H242532   6.684   3.957   2.605  0.3176 -0.2625 -0.0716
 6113TIP3   OH242533   6.901   6.750   0.565 -0.2744  0.2186 -0.1705
 6113TIP3    H142534   6.944   6.685   0.510  0.2993  1.0305 -0.7069
 6113TIP3    H242535   6.816   6.711   0.585 -0.3072 -0.3049 -1.2342
 6114TIP3   OH242536   4.610   3.838   2.891  0.5516  0.2944 -0.1331
 6114TIP3    H142537   4.549   3.765   2.905  1.4097 -0.7460 -1.4564
 6114TIP3    H242538   4.625   3.875   2.978 -1.8701  0.5428  0.2514
 6115TIP3   OH242539   6.904   7.284   1.105 -0.2994  0.1979 -0.0158
 6115TIP3    H142540   6.979   7.278   1.164  0.1714  0.1160 -0.6038
 6115TIP3    H242541   6.849   7.352   1.142 -0.0744  0.0585  0.5816
 6116TIP3   OH242542   1.303   2.148   0.890 -0.2907  0.2967 -0.5212
 6116TIP3    H142543   1.343   2.230   0.919  2.0547 -0.7708 -0.4928
 6116TIP3    H242544   1.238   2.174   0.825 -0.8350  2.2553  0.6997
 6117TIP3   OH242545   3.292   5.406   1.155 -0.2392  0.2846 -0.3565
 6117TIP3    H142546   3.379   5.440   1.135  1.0310 -0.5123  3.0264
 6117TIP3    H242547   3.234   5.481   1.142  1.1479  1.2646 -1.2836
 6118TIP3   OH242548   0.035   3.849   2.615 -0.6734  0.0974  0.0731
 6118TIP3    H142549   0.030   3.783   2.685  0.5669 -0.4967 -0.3760
 6118TIP3    H242550   0.129   3.866   2.605 -0.7549 -0.3653 -1.9232
 6119TIP3   OH242551   3.636   3.208   1.050  0.5676 -0.4135 -0.4258
 6119TIP3    H142552   3.709   3.154   1.021  1.3325  0.3947 -0.0695
 6119TIP3    H242553   3.664   3.298   1.032  0.6968  0.0833  1.9114
 6120TIP3   OH242554   2.439   4.757   0.581 -0.2230  0.6706  0.3015
 6120TIP3    H142555   2.345   4.757   0.599 -0.4571 -0.5549 -0.7959
 6120TIP3    H242556   2.479   4.720   0.659 -0.6492  1.2439  0.7925
 6121TIP3   OH242557   4.829   2.813   1.957  0.1159  0.2729 -0.0229
 6121TIP3    H142558   4.798   2.880   2.017  0.2059 -0.7819  1.2367
 6121TIP3    H242559   4.923   2.832   1.947  0.8222 -1.3268  2.6727
 6122TIP3   OH242560   2.103   0.434   0.830 -0.3876 -0.1319 -0.2179
 6122TIP3    H142561   2.092   0.527   0.812  1.2648  0.2034  0.3406
 6122TIP3    H242562   2.184   0.410   0.785 -0.7112 -1.2730 -0.2254
 6123TIP3   OH242563   5.392   0.523   0.999 -0.1899 -0.2265 -0.1663
 6123TIP3    H142564   5.378   0.589   0.931 -1.1946 -2.2900 -2.1383
 6123TIP3    H242565   5.479   0.540   1.033  0.1778  1.1685 -1.6958
 6124TIP3   OH242566   4.531   6.660   0.496  0.1761 -0.3966  0.0527
 6124TIP3    H142567   4.617   6.627   0.523 -0.2105 -0.1863  1.6899
 6124TIP3    H242568   4.549   6.746   0.457  0.7522 -0.5632 -0.0480
 6125TIP3   OH242569   6.519   3.298   1.676 -0.0254 -0.2260 -0.8979
 6125TIP3    H142570   6.598   3.248   1.654  2.2480  2.9227 -0.5189
 6125TIP3    H242571   6.485   3.255   1.755  3.2627  0.1944  0.9315
 6126TIP3   OH242572   5.329   4.924   1.736 -0.5719  0.4995  0.0730
 6126TIP3    H142573   5.274   4.977   1.678  0.1148  0.9260 -0.2137
 6126TIP3    H242574   5.413   4.917   1.689 -0.2079  0.3166  0.7337
 6127TIP3   OH242575   6.177   0.211   1.458  0.0699  0.2319  0.1805
 6127TIP3    H142576   6.201   0.304   1.463 -1.4794  0.6161  1.5454
 6127TIP3    H242577   6.260   0.164   1.456  1.0009  1.5128  3.2497
 6128TIP3   OH242578   7.135   1.879   2.278  0.2336  0.1770  0.0246
 6128TIP3    H142579   7.175   1.813   2.334  1.0268  0.1617 -0.5465
 6128TIP3    H242580   7.041   1.860   2.283  0.2912  0.0975  1.2351
 6129TIP3   OH242581   2.766   0.952   2.913 -0.4718 -0.4930  0.2088
 6129TIP3    H142582   2.727   0.909   2.990 -3.9200  1.1653 -0.3982
 6129TIP3    H242583   2.749   1.045   2.927  4.7065  0.7027  0.3962
 6130TIP3   OH242584   7.099   1.421   1.614  0.3720  0.3389 -0.0715
 6130TIP3    H142585   7.160   1.488   1.646 -1.3479  1.1198  1.7889
 6130TIP3    H242586   7.047   1.397   1.691 -0.1652 -1.9846 -1.0575
 6131TIP3   OH242587   2.779   3.913   2.503  0.2897 -0.5519  0.2053
 6131TIP3    H142588   2.833   3.984   2.537 -0.1982 -0.0836  0.0100
 6131TIP3    H242589   2.841   3.855   2.458  1.0256 -1.3820  2.1521
 6132TIP3   OH242590   6.007   6.129   1.304 -0.3128  0.1836 -0.0471
 6132TIP3    H142591   5.923   6.100   1.339 -0.1190 -1.0095 -0.5210
 6132TIP3    H242592   6.068   6.060   1.330  0.6511  1.3032  0.7852
 6133TIP3   OH242593   4.856   5.585   2.342 -0.0265 -0.1212  0.1024
 6133TIP3    H142594   4.794   5.645   2.301  1.9375  3.3565  1.7124
 6133TIP3    H242595   4.899   5.541   2.268 -2.7022 -0.9262 -1.0945
 6134TIP3   OH242596   5.111   3.969   1.046  0.3447 -0.1471  0.5423
 6134TIP3    H142597   5.080   4.030   0.979 -0.0145  0.5596  1.3220
 6134TIP3    H242598   5.136   4.026   1.120 -2.8144 -1.0213  2.4713
 6135TIP3   OH242599   5.254   2.851   1.664  0.3192  0.0898  0.1859
 6135TIP3    H142600   5.328   2.854   1.724  0.5308  1.6613 -0.1032
 6135TIP3    H242601   5.288   2.808   1.585  0.1939 -1.4687  0.9598
 6136TIP3   OH242602   5.299   5.512   2.295  0.0444 -0.0502 -0.0608
 6136TIP3    H142603   5.270   5.425   2.268 -0.4086  0.2972 -0.7271
 6136TIP3    H242604   5.224   5.569   2.277  0.9586  0.7960 -1.4354
 6137TIP3   OH242605   2.873   5.553   0.655 -0.0222  0.3518 -0.3890
 6137TIP3    H142606   2.917   5.469   0.668  1.5852  0.5129 -3.7174
 6137TIP3    H242607   2.799   5.533   0.597  0.6604  1.2411 -1.6125
 6138TIP3   OH242608   7.395   6.573   0.512  0.0999 -0.7282 -0.3595
 6138TIP3    H142609   7.355   6.493   0.478  0.9649 -0.3046 -2.5447
 6138TIP3    H242610   7.331   6.607   0.574 -2.0856 -1.1065 -2.2591
 6139TIP3   OH242611   4.971   4.128   3.208  0.7220  0.5507  0.0466
 6139TIP3    H142612   5.004   4.169   3.127  0.3651  0.0761 -0.3454
 6139TIP3    H242613   4.912   4.060   3.177  1.8039 -0.7116  0.6670
 6140TIP3   OH242614   4.628   4.390   2.987 -0.4250  0.0255  0.4017
 6140TIP3    H142615   4.616   4.422   3.076  1.7146 -1.2289  1.1999
 6140TIP3    H242616   4.683   4.312   2.996 -0.6655 -0.5029 -1.9662
 6141TIP3   OH242617   1.184   2.613   2.125  0.0877 -0.1879  0.4340
 6141TIP3    H142618   1.275   2.584   2.138  0.5586  0.8181 -0.4347
 6141TIP3    H242619   1.168   2.674   2.196  0.4802  0.4691 -0.0305
 6142TIP3   OH242620   1.204   4.471   0.560  0.1447  0.1522  0.3714
 6142TIP3    H142621   1.161   4.513   0.635 -1.2724 -1.2128  0.3933
 6142TIP3    H242622   1.139   4.408   0.529  0.9070  0.3132 -1.6959
 6143TIP3   OH242623   5.417   0.323   2.702  0.1255  0.5910  0.0521
 6143TIP3    H142624   5.349   0.268   2.664  0.6479 -0.0922  0.0749
 6143TIP3    H242625   5.403   0.318   2.797  0.1813  0.4832  0.0547
 6144TIP3   OH242626   6.526   6.636   0.358 -0.4426 -0.0016 -0.4428
 6144TIP3    H142627   6.614   6.628   0.396 -0.5570 -0.8501 -0.3267
 6144TIP3    H242628   6.521   6.565   0.294 -1.1021 -0.0788 -0.3157
 6145TIP3   OH242629   6.765   0.080   2.200 -0.3810 -0.4937  0.1489
 6145TIP3    H142630   6.804   0.031   2.128  0.7935 -0.9429  1.0404
 6145TIP3    H242631   6.683   0.115   2.165 -0.7401 -2.2245 -0.8431
 6146TIP3   OH242632   1.292   3.658   0.881  0.2127 -0.4457 -0.3239
 6146TIP3    H142633   1.293   3.718   0.956  1.0233 -0.2171 -0.5027
 6146TIP3    H242634   1.370   3.604   0.894  0.2635 -0.5144 -0.9165
 6147TIP3   OH242635   2.421   0.199   2.645 -0.0673 -0.2682  0.4825
 6147TIP3    H142636   2.329   0.218   2.630 -0.5000  0.6820  3.6262
 6147TIP3    H242637   2.467   0.275   2.610 -0.5374 -0.3906 -0.4184
 6148TIP3   OH242638   3.642   0.605   2.815  0.6635  0.0581  0.0878
 6148TIP3    H142639   3.666   0.688   2.774 -1.7899  0.1240 -1.3702
 6148TIP3    H242640   3.679   0.538   2.758 -2.8332  0.1458 -2.5517
 6149TIP3   OH242641   3.461   1.770   2.304 -0.5477  0.1604  0.6861
 6149TIP3    H142642   3.466   1.721   2.386  0.8224 -1.4189 -0.2971
 6149TIP3    H242643   3.385   1.734   2.259 -0.2204 -0.2570  0.4662
 6150TIP3   OH242644   5.046   4.798   1.554 -0.0198 -0.0718 -0.3318
 6150TIP3    H142645   5.097   4.761   1.626 -0.7488  1.1433  0.8424
 6150TIP3    H242646   5.074   4.890   1.550 -0.1022 -0.0895 -1.5112
 6151TIP3   OH242647   2.245   5.090   0.690 -0.4468  0.5897 -0.3160
 6151TIP3    H142648   2.203   5.010   0.722 -0.4975  0.2148 -1.3089
 6151TIP3    H242649   2.179   5.132   0.634  0.6269 -0.2569 -2.2993
 6152TIP3   OH242650   4.945   4.794   2.078 -0.1752 -0.3653 -0.2672
 6152TIP3    H142651   4.999   4.733   2.027  0.1539  0.3259 -0.7633
 6152TIP3    H242652   4.855   4.761   2.068  0.2689 -2.8416  2.3600
 6153TIP3   OH242653   4.117   6.175   2.278  0.1741 -0.5752  0.2190
 6153TIP3    H142654   4.067   6.172   2.197  0.1449  2.7565 -0.0493
 6153TIP3    H242655   4.203   6.210   2.253  0.5368 -0.4954  1.4765
 6154TIP3   OH242656   1.985   1.786   2.938 -0.2794  0.2319 -0.1950
 6154TIP3    H142657   1.936   1.868   2.929  0.9247  1.1217  0.9573
 6154TIP3    H242658   2.075   1.810   2.916  0.3255 -0.4613  1.3986
 6155TIP3   OH242659   2.120   5.820   1.488  0.4784 -0.1118 -1.0365
 6155TIP3    H142660   2.207   5.846   1.458  0.3405  0.7659 -0.7039
 6155TIP3    H242661   2.086   5.897   1.534 -0.6110 -0.3239 -1.4463
 6156TIP3   OH242662   0.412   6.388   0.506  0.1208 -0.2726  0.5206
 6156TIP3    H142663   0.408   6.455   0.574 -0.8238  0.1693  0.0574
 6156TIP3    H242664   0.505   6.373   0.491  0.3550  1.3563  0.2394
 6157TIP3   OH242665   6.847   4.443   0.640 -0.1490  0.7529 -0.3483
 6157TIP3    H142666   6.756   4.415   0.642 -0.1447  0.7890  0.6629
 6157TIP3    H242667   6.897   4.362   0.629 -0.2698  0.6651 -0.2555
 6158TIP3   OH242668   0.422   4.725   1.607 -0.0609  0.0871  0.6147
 6158TIP3    H142669   0.472   4.697   1.530  1.4946 -2.3022  2.3383
 6158TIP3    H242670   0.330   4.712   1.582  0.3629  0.0843 -1.0537
 6159TIP3   OH242671   0.005   1.250   1.327 -0.6265  0.1722 -0.2975
 6159TIP3    H142672  -0.028   1.310   1.393 -0.1633 -0.8584  0.9172
 6159TIP3    H242673   0.100   1.257   1.332 -0.5837  0.2074 -0.9851
 6160TIP3   OH242674   3.509   1.645   1.937 -0.3304  0.2632 -0.0789
 6160TIP3    H142675   3.550   1.724   1.902  1.5607  0.3706  2.1065
 6160TIP3    H242676   3.416   1.665   1.941  0.1661  2.6535  1.0067
 6161TIP3   OH242677   1.670   7.096   0.723 -0.0724  0.0143  0.0156
 6161TIP3    H142678   1.665   7.015   0.775 -0.2062  1.2641  2.0633
 6161TIP3    H242679   1.584   7.136   0.734  0.5761  1.2966  0.5488
 6162TIP3   OH242680   3.566   6.258   2.031 -0.3134  0.4256  0.2354
 6162TIP3    H142681   3.602   6.224   1.950 -1.1591 -0.5794  0.2689
 6162TIP3    H242682   3.641   6.262   2.091  0.6883  2.7754 -1.0350
 6163TIP3   OH242683   1.821   7.409   1.985  0.1915  0.5978 -0.2063
 6163TIP3    H142684   1.895   7.471   1.987  0.1877  0.7471 -2.4946
 6163TIP3    H242685   1.757   7.451   1.928 -1.9384  0.6811  2.0821
 6164TIP3   OH242686   3.533   3.290   2.324  0.4110  0.3081 -0.0222
 6164TIP3    H142687   3.544   3.364   2.383 -0.7915  1.1286 -0.7721
 6164TIP3    H242688   3.622   3.255   2.313  1.0522  1.7779  0.1756
 6165TIP3   OH242689   2.882   5.797   0.786 -0.0178  0.2592 -0.3338
 6165TIP3    H142690   2.865   5.715   0.738 -1.2162  0.0291  0.4389
 6165TIP3    H242691   2.818   5.796   0.857  0.5571  1.4514  0.2142
 6166TIP3   OH242692   4.313   6.255   1.277 -0.3209  0.1907  0.4244
 6166TIP3    H142693   4.252   6.226   1.209  0.4700  0.2681 -0.3271
 6166TIP3    H242694   4.399   6.255   1.235  0.1396  0.5616  1.3281
 6167TIP3   OH242695   1.246   5.965   2.676  0.0315  0.1947  0.0791
 6167TIP3    H142696   1.212   6.031   2.737 -0.4027 -1.1477  1.3514
 6167TIP3    H242697   1.312   6.012   2.625 -2.1016  2.3275 -0.9531
 6168TIP3   OH242698   2.084   2.904   3.281 -0.1657  0.0516  0.0722
 6168TIP3    H142699   2.147   2.910   3.353 -1.2704 -0.3151  1.0983
 6168TIP3    H242700   2.076   2.994   3.248  1.1131  0.0534 -0.2914
 6169TIP3   OH242701   3.722   1.156   9.315  0.3146 -0.1226 -0.6099
 6169TIP3    H142702   3.691   1.199   9.235  2.0393  0.8736 -0.7975
 6169TIP3    H242703   3.731   1.064   9.291  0.9876  0.1968 -1.6439
 6170TIP3   OH242704   4.164   5.901   1.067 -0.0911 -0.2414  0.2883
 6170TIP3    H142705   4.150   5.995   1.054  0.0039  0.1651  2.6559
 6170TIP3    H242706   4.081   5.861   1.042 -0.3558  0.5444 -0.1194
 6171TIP3   OH242707   4.820   7.009   2.364  0.4447 -0.1140  0.6090
 6171TIP3    H142708   4.897   7.009   2.308  2.5344 -0.7133  3.2844
 6171TIP3    H242709   4.813   7.099   2.396  2.8697 -0.8631  3.7634
 6172TIP3   OH242710   3.326   2.956   2.126 -0.2762 -0.5011  0.9758
 6172TIP3    H142711   3.351   2.880   2.074 -0.9225 -1.0510  1.4462
 6172TIP3    H242712   3.272   3.009   2.066  0.9278  0.0655  0.3603
 6173TIP3   OH242713   5.135   3.882   2.118 -0.5607 -0.4554  0.4930
 6173TIP3    H142714   5.085   3.853   2.041 -1.0488 -0.9556  0.9916
 6173TIP3    H242715   5.078   3.863   2.192 -0.6804  1.3172  0.8989
 6174TIP3   OH242716   4.201   1.837   1.651  0.1319 -0.3615 -0.0814
 6174TIP3    H142717   4.227   1.905   1.590 -1.4918  2.2377  1.9010
 6174TIP3    H242718   4.122   1.799   1.614 -0.5516  0.8385  0.1200
 6175TIP3   OH242719   1.896   5.672   1.518  0.3905 -0.0201 -0.0833
 6175TIP3    H142720   1.978   5.708   1.484  0.0270  0.5047 -0.4270
 6175TIP3    H242721   1.922   5.615   1.590  0.9797  1.1958  0.7035
 6176TIP3   OH242722   4.673   0.003   1.990  0.1628 -0.0840 -0.4783
 6176TIP3    H142723   4.652   0.097   1.988 -1.4577 -0.4124 -0.2090
 6176TIP3    H242724   4.660  -0.026   1.900 -3.0407 -0.7318  0.0508
 6177TIP3   OH242725   5.203   4.173   1.173  0.3196  0.3068  0.1979
 6177TIP3    H142726   5.287   4.207   1.144  0.0672 -1.2339 -2.6759
 6177TIP3    H242727   5.146   4.250   1.178  1.4723  1.1516  0.6364
 6178TIP3   OH242728   6.324   3.178   2.779 -0.3270  0.2248 -0.4321
 6178TIP3    H142729   6.318   3.088   2.749  1.9048 -1.0919  2.5120
 6178TIP3    H242730   6.247   3.190   2.834 -0.8668  0.2874 -1.1950
 6179TIP3   OH242731   3.056   1.680   2.703 -0.4014  0.2494 -0.0831
 6179TIP3    H142732   3.103   1.603   2.735 -1.2794 -0.1549  0.2426
 6179TIP3    H242733   3.126   1.741   2.677  0.2992 -0.6960 -0.4755
 6180TIP3   OH242734   1.504   2.822   2.619 -0.1134 -0.2725  0.5372
 6180TIP3    H142735   1.562   2.885   2.662  0.8354 -1.2686  0.7657
 6180TIP3    H242736   1.475   2.866   2.539  0.0562  0.6717  0.9875
 6181TIP3   OH242737   1.188   4.293   1.221 -0.4131  0.6480  0.3147
 6181TIP3    H142738   1.274   4.330   1.240  0.7268 -1.3858 -0.5922
 6181TIP3    H242739   1.185   4.212   1.271 -2.0509  0.9462  0.7539
 6182TIP3   OH242740   3.769   3.981   1.493  0.4424 -0.5552 -0.6836
 6182TIP3    H142741   3.837   3.925   1.531  0.6848 -0.6268 -1.2123
 6182TIP3    H242742   3.805   4.070   1.498 -0.3977 -0.2745  1.1726
 6183TIP3   OH242743   5.551   4.556   2.670  0.0551  0.5119 -0.0847
 6183TIP3    H142744   5.621   4.522   2.725  0.2643  2.7904  1.1644
 6183TIP3    H242745   5.471   4.522   2.710  0.3271  0.0672  0.0835
 6184TIP3   OH242746   5.317   1.074   2.264 -0.2914  0.1890 -0.1046
 6184TIP3    H142747   5.363   1.049   2.345 -1.6688 -0.3792  0.5339
 6184TIP3    H242748   5.332   1.000   2.205 -0.8985 -0.2954  0.3319
 6185TIP3   OH242749   6.254   5.945   1.968 -0.1671  0.2470  0.4166
 6185TIP3    H142750   6.203   5.936   1.887 -1.0523 -0.6543  1.0376
 6185TIP3    H242751   6.302   6.027   1.957  1.4922 -0.9041 -1.9719
 6186TIP3   OH242752   6.836   5.583   1.268 -0.2130  0.5015 -0.0630
 6186TIP3    H142753   6.868   5.495   1.290  2.1586  1.3423  0.1164
 6186TIP3    H242754   6.741   5.575   1.274 -0.0820 -2.0228  0.0443
 6187TIP3   OH242755   3.362   6.911   2.088  0.2316  0.0156 -0.4704
 6187TIP3    H142756   3.284   6.965   2.078 -0.3433 -0.0738  2.5536
 6187TIP3    H242757   3.432   6.973   2.106  0.9387  0.0888 -3.1055
 6188TIP3   OH242758   3.474   5.700   3.181 -0.1391 -0.7909  0.4010
 6188TIP3    H142759   3.563   5.718   3.211 -0.5718  0.5058  0.9902
 6188TIP3    H242760   3.449   5.778   3.131 -1.6573 -0.1873  1.9804
 6189TIP3   OH242761   5.671   6.346   0.342 -0.1358  0.8618  0.1493
 6189TIP3    H142762   5.652   6.366   0.251 -3.5790 -1.0590  0.2930
 6189TIP3    H242763   5.647   6.425   0.390 -0.8253  0.9921 -0.3966
 6190TIP3   OH242764   7.057   3.607   1.292  0.2173 -0.2562  0.0612
 6190TIP3    H142765   7.147   3.598   1.263 -0.1743  0.5644 -1.5275
 6190TIP3    H242766   7.058   3.577   1.383  1.9480 -0.8511 -0.1151
 6191TIP3   OH242767   6.177   3.215   1.021  0.1808 -0.3971  0.5197
 6191TIP3    H142768   6.224   3.226   0.938 -0.2342 -1.1508  0.1684
 6191TIP3    H242769   6.246   3.200   1.086  0.4636 -0.9919  0.0992
 6192TIP3   OH242770   2.474   0.909   1.937  0.5860 -0.0394  0.1152
 6192TIP3    H142771   2.389   0.886   1.974 -0.0373  1.7238 -0.1378
 6192TIP3    H242772   2.537   0.860   1.991 -0.5153 -0.5983  0.9418
 6193TIP3   OH242773   3.654   4.384   1.657  0.2330 -0.1331 -0.2929
 6193TIP3    H142774   3.599   4.362   1.732 -1.3924  0.1104 -1.3558
 6193TIP3    H242775   3.671   4.478   1.666 -0.2154 -0.0410 -0.3711
 6194TIP3   OH242776   1.103   6.259   1.862 -0.1898 -0.1140  0.0066
 6194TIP3    H142777   1.163   6.194   1.897 -0.1112  0.2237  0.5084
 6194TIP3    H242778   1.065   6.301   1.940 -1.4428 -0.6515 -0.2787
 6195TIP3   OH242779   6.783   6.045   1.003  0.1633  0.2677  0.2317
 6195TIP3    H142780   6.839   5.975   1.037  0.8201  0.3616 -0.6276
 6195TIP3    H242781   6.767   6.102   1.078 -0.2789 -0.7240  0.9173
 6196TIP3   OH242782   2.078   7.138   1.498  0.0033  0.1770 -0.0844
 6196TIP3    H142783   2.154   7.142   1.440  0.2114 -1.1035  0.0691
 6196TIP3    H242784   2.035   7.223   1.487  1.1954  0.7523 -0.5143
 6197TIP3   OH242785   2.369   4.713   1.558  0.1973 -0.5029 -0.0887
 6197TIP3    H142786   2.428   4.691   1.486  1.4161  0.1140  0.6929
 6197TIP3    H242787   2.426   4.747   1.626 -0.8996 -1.3410  1.2942
 6198TIP3   OH242788   4.919   6.227   1.622  0.4043  0.0038 -0.0719
 6198TIP3    H142789   4.825   6.212   1.617  0.3452  0.7109 -2.3420
 6198TIP3    H242790   4.934   6.264   1.709 -1.1690 -1.4793  0.8882
 6199TIP3   OH242791   7.381   7.425   0.893 -0.0617 -0.0928 -0.6876
 6199TIP3    H142792   7.345   7.355   0.839 -1.0346  0.1174 -0.3330
 6199TIP3    H242793   7.311   7.490   0.899 -0.3609 -0.5281  1.5765
 6200TIP3   OH242794   7.377   2.952   1.080 -0.8988  0.0955 -0.4688
 6200TIP3    H142795   7.390   3.026   1.020  3.5780 -0.1455 -0.1455
 6200TIP3    H242796   7.399   2.988   1.166  0.2721 -1.2633 -0.1616
 6201TIP3   OH242797   7.303   2.942   2.055  0.1507 -0.7234  0.1102
 6201TIP3    H142798   7.309   3.037   2.043 -1.5850 -0.5206  0.6329
 6201TIP3    H242799   7.391   2.917   2.084 -0.0401  1.1676  2.7010
 6202TIP3   OH242800   3.888   1.168   1.209  0.4165 -0.1106 -0.3152
 6202TIP3    H142801   3.900   1.263   1.221 -0.2997 -0.1218  0.6867
 6202TIP3    H242802   3.811   1.161   1.152 -0.0844 -0.0805  0.3427
 6203TIP3   OH242803   0.389   6.842   2.885 -0.0526 -0.0397 -0.0594
 6203TIP3    H142804   0.379   6.754   2.849 -1.0995  1.0167 -2.5247
 6203TIP3    H242805   0.468   6.877   2.843  0.5308  0.1306  1.1282
 6204TIP3   OH242806   4.359   4.512   2.096  0.1338 -0.5202 -0.4579
 6204TIP3    H142807   4.361   4.418   2.075  0.4579 -0.2960 -1.5354
 6204TIP3    H242808   4.422   4.522   2.167  0.5543 -1.0324 -0.7504
 6205TIP3   OH242809   4.525   7.062   1.785 -0.3344  0.4745 -0.9949
 6205TIP3    H142810   4.546   6.987   1.841  0.0541  1.3922  0.1086
 6205TIP3    H242811   4.453   7.106   1.829 -1.6140 -0.0679 -2.4304
 6206TIP3   OH242812   1.156   5.629   0.445 -0.7156  0.8994 -0.3973
 6206TIP3    H142813   1.072   5.584   0.446 -0.9160  1.2399 -1.3335
 6206TIP3    H242814   1.137   5.717   0.412 -0.4640  1.9834  2.0878
 6207TIP3   OH242815   4.189   1.245   2.119  0.0222 -0.5540  0.1691
 6207TIP3    H142816   4.234   1.204   2.193  0.8881  0.2010  0.0824
 6207TIP3    H242817   4.214   1.338   2.125 -2.6880  0.2193  0.9873
 6208TIP3   OH242818   1.241   0.392   3.372  0.0817 -1.0331  0.0170
 6208TIP3    H142819   1.219   0.300   3.355 -0.8376 -0.6091 -1.2687
 6208TIP3    H242820   1.156   0.436   3.373  0.4360 -0.3235  1.6122
 6209TIP3   OH242821   3.612   5.531   2.405  0.5235 -0.4500  0.2881
 6209TIP3    H142822   3.558   5.600   2.369  1.3490  0.7785  1.3149
 6209TIP3    H242823   3.551   5.477   2.456 -0.1463 -0.6062 -0.6443
 6210TIP3   OH242824   2.577   3.622   1.783  0.2277  0.0891 -0.0241
 6210TIP3    H142825   2.559   3.532   1.756 -0.0637 -0.0430  0.5830
 6210TIP3    H242826   2.627   3.614   1.864 -0.2862  0.4689  0.3413
 6211TIP3   OH242827   2.876   7.066   1.120 -0.0782 -0.2748  0.5727
 6211TIP3    H142828   2.894   7.107   1.036 -1.5975 -1.3316 -0.3294
 6211TIP3    H242829   2.961   7.037   1.152  0.4352 -0.7264 -1.0997
 6212TIP3   OH242830   4.313   1.382   0.902 -0.4036  0.1219 -0.1729
 6212TIP3    H142831   4.253   1.456   0.900  0.3029  0.7413  0.8036
 6212TIP3    H242832   4.317   1.352   0.811 -0.9224  1.0998 -0.5330
 6213TIP3   OH242833   4.996   2.128   1.253 -0.0530  0.2682 -0.9526
 6213TIP3    H142834   5.018   2.060   1.317 -2.1342 -1.0359 -1.5260
 6213TIP3    H242835   5.008   2.210   1.301  4.0119 -0.2748 -0.6764
 6214TIP3   OH242836   2.783   7.140   2.394  0.2506  0.3349  0.2844
 6214TIP3    H142837   2.794   7.196   2.317  0.6962  0.8447  0.7098
 6214TIP3    H242838   2.692   7.111   2.390  0.5336 -0.4423 -0.9723
 6215TIP3   OH242839   3.657   5.249   1.618 -0.3080  0.1536 -0.2655
 6215TIP3    H142840   3.616   5.199   1.547 -0.2489  1.4547 -1.2633
 6215TIP3    H242841   3.592   5.250   1.688 -0.5381 -0.8031 -0.4492
 6216TIP3   OH242842   0.558   3.842   1.291  0.3187 -0.6188  0.2357
 6216TIP3    H142843   0.595   3.859   1.204 -1.5204  1.1905 -0.2601
 6216TIP3    H242844   0.465   3.862   1.282 -0.1169 -1.4492  2.3652
 6217TIP3   OH242845   6.972   1.857   1.817 -0.2424 -0.2702  0.3388
 6217TIP3    H142846   6.884   1.824   1.838 -0.1140  0.2182  1.7301
 6217TIP3    H242847   7.013   1.872   1.902  1.7447 -1.8947 -0.2612
 6218TIP3   OH242848   6.556   5.397   0.769 -0.1525  0.0570  0.1827
 6218TIP3    H142849   6.576   5.486   0.799  0.1832 -0.4023  1.4227
 6218TIP3    H242850   6.486   5.367   0.827 -0.1334 -0.5416 -0.0900
 6219TIP3   OH242851   2.955   2.089   3.852  0.0529  0.2499 -0.2368
 6219TIP3    H142852   2.961   2.166   3.909 -0.8733  0.2974 -0.1794
 6219TIP3    H242853   3.028   2.098   3.792 -0.3772  1.4990 -0.6124
 6220TIP3   OH242854   1.878   6.806   1.985  0.2632 -0.0790  0.7644
 6220TIP3    H142855   1.911   6.772   1.902  0.5638 -0.4962  1.0483
 6220TIP3    H242856   1.846   6.894   1.965 -2.1936 -1.1378 -0.3957
 6221TIP3   OH242857   0.453   6.975   2.571  0.2424  0.1719  0.3840
 6221TIP3    H142858   0.517   6.985   2.501 -0.7806  0.5674 -0.5353
 6221TIP3    H242859   0.435   6.881   2.573  0.9419  0.0388  0.7460
 6222TIP3   OH242860   1.693   2.429   3.496 -0.3044  0.1075 -0.6308
 6222TIP3    H142861   1.768   2.393   3.543 -1.7935 -1.2895  0.8306
 6222TIP3    H242862   1.648   2.484   3.560 -3.4081 -3.2766  0.4542
 6223TIP3   OH242863   2.681   0.795   2.398 -0.3812 -0.3092 -0.0806
 6223TIP3    H142864   2.679   0.767   2.489 -0.3580  0.2342  0.0950
 6223TIP3    H242865   2.768   0.772   2.366 -0.9470 -2.0089 -0.4664
 6224TIP3   OH242866   4.175   6.738   2.453 -0.5946 -0.7349 -0.2422
 6224TIP3    H142867   4.251   6.796   2.444 -0.7004 -0.8085 -1.8583
 6224TIP3    H242868   4.107   6.779   2.399 -1.3904 -1.2043  0.3833
 6225TIP3   OH242869   4.017   3.584   0.425 -0.4813  0.1629  0.2869
 6225TIP3    H142870   4.001   3.678   0.419  1.3694  0.6289  1.6290
 6225TIP3    H242871   4.108   3.577   0.454 -0.5765 -2.0511  0.2375
 6226TIP3   OH242872   6.302   3.994   0.841 -0.2915  0.4470  0.5844
 6226TIP3    H142873   6.382   4.035   0.809 -1.2415  0.9725 -1.2906
 6226TIP3    H242874   6.232   4.051   0.808 -1.4974 -0.8156  0.8771
 6227TIP3   OH242875   1.216   4.033   1.365 -0.1810 -0.3571 -0.1749
 6227TIP3    H142876   1.220   3.944   1.402  0.3168 -0.4119 -0.3490
 6227TIP3    H242877   1.306   4.051   1.337  0.0890  0.8352  1.3381
 6228TIP3   OH242878   6.624   6.412   1.899 -0.4206 -0.0583 -0.5847
 6228TIP3    H142879   6.606   6.470   1.973 -0.4235 -1.0781  0.2351
 6228TIP3    H242880   6.704   6.447   1.860 -0.7318  0.8286 -0.4666
 6229TIP3   OH242881   3.565   3.896   3.180  0.1668  0.3814 -0.2097
 6229TIP3    H142882   3.501   3.849   3.127  0.4401 -0.6583  0.3675
 6229TIP3    H242883   3.606   3.957   3.118  0.2378 -0.5600 -1.1192
 6230TIP3   OH242884   2.856   4.776   3.111  0.0969 -0.1353  0.2779
 6230TIP3    H142885   2.868   4.704   3.174  0.1885 -1.1986 -0.9080
 6230TIP3    H242886   2.868   4.735   3.025 -2.7142  0.6434 -0.6047
 6231TIP3   OH242887   6.442   5.487   0.488 -0.3266 -0.0847 -0.0831
 6231TIP3    H142888   6.501   5.557   0.518 -0.1420 -0.3317  0.1351
 6231TIP3    H242889   6.354   5.518   0.511 -0.2487  0.0956 -0.0256
 6232TIP3   OH242890   2.250   0.139   1.287 -0.2860  0.1600 -0.1938
 6232TIP3    H142891   2.254   0.086   1.207  0.0111  0.9612 -0.7261
 6232TIP3    H242892   2.325   0.198   1.279  1.3465 -1.4545  1.9211
 6233TIP3   OH242893   4.097   6.155   1.134  0.3482  0.2914 -0.6547
 6233TIP3    H142894   4.100   6.210   1.056 -0.5732 -2.2685 -2.6336
 6233TIP3    H242895   4.015   6.180   1.177 -0.0339  0.5215 -1.4862
 6234TIP3   OH242896   4.960   5.640   1.179  0.0731 -0.4749 -0.7263
 6234TIP3    H142897   4.933   5.576   1.245  2.6602 -1.0854 -0.1410
 6234TIP3    H242898   4.924   5.723   1.211 -0.0849 -1.0197  0.5977
 6235TIP3   OH242899   6.130   2.063   1.119 -0.0698  0.3088  0.2253
 6235TIP3    H142900   6.104   1.981   1.077  0.6602 -0.0216  0.4001
 6235TIP3    H242901   6.223   2.050   1.140 -0.2297  0.7713  1.2282
 6236TIP3   OH242902   1.764   0.649   2.249 -0.2317  0.5763 -0.3974
 6236TIP3    H142903   1.806   0.697   2.177 -0.0144  0.9058 -0.0538
 6236TIP3    H242904   1.787   0.557   2.233 -0.6603  0.5759 -1.0690
 6237TIP3   OH242905   1.380   0.902   2.137  0.0512 -0.2699 -0.0506
 6237TIP3    H142906   1.429   0.842   2.080  0.8577  0.6445 -0.3381
 6237TIP3    H242907   1.445   0.937   2.197 -0.0725  1.5273 -0.9107
 6238TIP3   OH242908   2.999   1.380   0.549 -0.1725 -0.1002  0.8036
 6238TIP3    H142909   3.051   1.459   0.536  1.2008 -0.8744  1.3523
 6238TIP3    H242910   2.912   1.402   0.515  0.7854  0.9083 -1.1541
 6239TIP3   OH242911   0.671   0.164   2.321  0.3161  0.0627 -0.2562
 6239TIP3    H142912   0.662   0.232   2.254 -3.2443  0.0404 -0.0036
 6239TIP3    H242913   0.726   0.097   2.281 -0.7154  0.5918 -2.7546
 6240TIP3   OH242914   0.713   6.776   2.049  0.5762  0.3332 -0.1105
 6240TIP3    H142915   0.784   6.754   2.110 -0.8931  0.2462  1.6380
 6240TIP3    H242916   0.755   6.832   1.984  2.1771  0.6692  1.1366
 6241TIP3   OH242917   2.291   5.377   3.004  0.3563  0.0861 -0.0057
 6241TIP3    H142918   2.222   5.357   3.066  0.5080 -1.2309 -0.2364
 6241TIP3    H242919   2.372   5.361   3.053  0.4885 -2.0391 -0.8056
 6242TIP3   OH242920   0.100   6.149   1.599  0.1264 -0.4594  0.0167
 6242TIP3    H142921   0.150   6.082   1.645 -1.4304 -1.5568  0.2043
 6242TIP3    H242922   0.070   6.106   1.519 -0.7874  0.0405  0.0727
 6243TIP3   OH242923   4.108   6.092   2.534 -0.6027 -0.0744 -0.1564
 6243TIP3    H142924   4.094   6.104   2.440  1.3946  0.1041 -0.4659
 6243TIP3    H242925   4.127   6.180   2.567  1.1797 -0.4661 -0.0620
 6244TIP3   OH242926   1.931   4.378   2.709  0.2058  0.0233 -0.0593
 6244TIP3    H142927   1.869   4.305   2.714  2.2209 -1.8791 -1.0624
 6244TIP3    H242928   1.891   4.439   2.647 -1.2256 -0.5400  0.2744
 6245TIP3   OH242929   4.386   5.549   2.556 -0.3107  0.3745 -0.0730
 6245TIP3    H142930   4.404   5.457   2.577  1.1333  0.8406  0.8947
 6245TIP3    H242931   4.417   5.559   2.466 -1.7060 -0.3833 -0.6673
 6246TIP3   OH242932   1.133   1.718   2.900  0.3268 -0.2581  0.0589
 6246TIP3    H142933   1.142   1.625   2.919 -0.7901 -0.9382 -2.3687
 6246TIP3    H242934   1.039   1.731   2.890  0.5035  1.0558 -0.0691
 6247TIP3   OH242935   3.806   2.175   0.446 -0.7366  0.0833 -0.3184
 6247TIP3    H142936   3.777   2.084   0.452 -0.8030  0.0983 -0.4199
 6247TIP3    H242937   3.728   2.227   0.467 -0.4101  0.1018  0.9375
 6248TIP3   OH242938   4.384   2.439   1.693 -0.2400 -0.2407 -0.4354
 6248TIP3    H142939   4.386   2.511   1.630  0.5524 -0.8059 -1.0859
 6248TIP3    H242940   4.389   2.360   1.638  0.4472 -0.7416  0.3338
 6249TIP3   OH242941   0.041   3.978   1.248  0.0930  0.6754  0.5309
 6249TIP3    H142942   0.056   4.041   1.319  2.4208  1.4060 -0.5241
 6249TIP3    H242943   0.050   3.892   1.290 -0.0213  1.0717  1.3960
 6250TIP3   OH242944   6.572   2.921   2.587  0.1525 -0.1382  0.5044
 6250TIP3    H142945   6.512   2.950   2.656  0.0847  0.3521  0.2448
 6250TIP3    H242946   6.516   2.902   2.513  0.3306  0.5930  0.1688
 6251TIP3   OH242947   1.089   5.491   2.278 -0.2549 -0.3481 -0.0699
 6251TIP3    H142948   1.183   5.486   2.293 -0.1681  0.5762 -0.2768
 6251TIP3    H242949   1.061   5.570   2.324 -1.0674 -1.0372  0.6438
 6252TIP3   OH242950   3.482   4.736   0.604 -0.0656 -0.0741 -0.1221
 6252TIP3    H142951   3.392   4.768   0.596  0.5149  1.9725  1.0452
 6252TIP3    H242952   3.502   4.699   0.518 -3.3542 -4.5066  0.6058
 6253TIP3   OH242953   6.670   2.978   0.444 -0.0948 -0.6842  0.2382
 6253TIP3    H142954   6.725   2.969   0.367 -1.7998 -0.6795 -1.0517
 6253TIP3    H242955   6.725   3.022   0.509  1.6020 -1.3305 -0.7227
 6254TIP3   OH242956   1.513   0.490   0.860 -0.1655 -0.4592 -0.3199
 6254TIP3    H142957   1.426   0.525   0.883 -0.0324 -0.0312 -0.4516
 6254TIP3    H242958   1.515   0.491   0.764  0.0730 -0.2296 -0.3163
 6255TIP3   OH242959   5.154   4.945   3.027 -0.1108 -0.4614 -0.4708
 6255TIP3    H142960   5.194   4.864   2.996 -1.1635 -0.9553 -0.5966
 6255TIP3    H242961   5.194   4.961   3.112  0.2503 -1.0063 -0.5364
 6256TIP3   OH242962   3.596   1.531   0.555  0.9268  0.1375 -0.5339
 6256TIP3    H142963   3.635   1.450   0.587  0.2271  0.1861  0.5075
 6256TIP3    H242964   3.503   1.511   0.547  1.1238 -0.0653 -3.2373
 6257TIP3   OH242965   4.911   5.538   2.067  0.1267 -0.2932  0.0920
 6257TIP3    H142966   4.926   5.562   1.975  2.5966  1.3194  0.7884
 6257TIP3    H242967   4.881   5.448   2.064  3.1350 -1.4033 -2.2448
 6258TIP3   OH242968   4.619   5.342   0.417  0.0603  0.3556 -0.4367
 6258TIP3    H142969   4.604   5.406   0.485 -0.9829 -0.3310  0.0109
 6258TIP3    H242970   4.671   5.388   0.351  2.2676  0.6493  1.3814
 6259TIP3   OH242971   5.425   1.091   0.646 -0.1944  0.4586 -0.5342
 6259TIP3    H142972   5.453   1.116   0.558 -1.2279  0.5594 -0.8514
 6259TIP3    H242973   5.362   1.158   0.672  0.5584  0.7823  0.5507
 6260TIP3   OH242974   0.458   3.567   2.835  0.0215 -0.0216  0.6629
 6260TIP3    H142975   0.462   3.553   2.929  0.0596  0.1089  0.6819
 6260TIP3    H242976   0.512   3.645   2.820  1.2684 -0.9102  0.3453
 6261TIP3   OH242977   2.983   4.153   1.160 -0.0881  1.0256 -0.0301
 6261TIP3    H142978   2.914   4.136   1.097 -0.3917 -2.1470  0.9670
 6261TIP3    H242979   3.064   4.151   1.109 -0.4105 -0.3754 -0.5194
 6262TIP3   OH242980   2.205   2.652   3.378 -0.0547  0.0004 -0.7334
 6262TIP3    H142981   2.279   2.622   3.431  1.0849  0.2512 -2.1350
 6262TIP3    H242982   2.233   2.640   3.288 -0.7364  2.3451 -1.3421
 6263TIP3   OH242983   2.848   6.984   1.441 -0.3345 -0.1739 -0.7172
 6263TIP3    H142984   2.829   7.033   1.361 -1.1337  1.3998  0.3931
 6263TIP3    H242985   2.802   7.031   1.510 -0.9669 -2.3787  0.4762
 6264TIP3   OH242986   2.727   7.283   2.829  0.1500  0.4512  0.0618
 6264TIP3    H142987   2.789   7.289   2.757 -0.6733  3.1753 -0.5690
 6264TIP3    H242988   2.669   7.211   2.805  2.4292 -1.5697  0.2469
 6265TIP3   OH242989   2.266   3.323   1.949 -0.0670 -0.2760  0.2587
 6265TIP3    H142990   2.355   3.290   1.937  0.3970  0.7186  0.8485
 6265TIP3    H242991   2.277   3.404   1.998 -1.2689  0.1243 -0.1053
 6266TIP3   OH242992   5.997   5.242   1.037 -0.0120  0.1091  0.6003
 6266TIP3    H142993   6.055   5.307   0.999  0.5344 -1.1791 -0.8980
 6266TIP3    H242994   5.915   5.251   0.988 -0.8747  1.3921  2.1781
 6267TIP3   OH242995   5.980   4.080   1.310 -0.1839 -0.2706  0.0108
 6267TIP3    H142996   6.037   4.038   1.245  0.7533 -0.1175  0.7006
 6267TIP3    H242997   5.930   4.009   1.349 -0.2336 -0.4522 -0.3805
 6268TIP3   OH242998   2.828   6.204   0.331 -0.0738 -0.1579 -0.0847
 6268TIP3    H142999   2.841   6.215   0.425  0.4017 -1.6827  0.0501
 6268TIP3    H243000   2.833   6.293   0.296 -0.3205  0.4391  1.3296
 6269TIP3   OH243001   0.507   2.390   1.543 -0.5647 -0.5666  0.5723
 6269TIP3    H143002   0.498   2.320   1.608 -0.6708  1.0662  2.4037
 6269TIP3    H243003   0.422   2.391   1.498 -1.5774  0.0955  2.3913
 6270TIP3   OH243004   5.646   1.061   0.823  0.2990  0.4284 -1.0281
 6270TIP3    H143005   5.564   1.065   0.774 -0.5557 -0.8263  0.2437
 6270TIP3    H243006   5.694   0.988   0.784  0.5419  0.7568 -1.3511
 6271TIP3   OH243007   3.068   0.636   0.891  1.0331  0.6148  0.2790
 6271TIP3    H143008   3.087   0.551   0.851 -0.3031  0.3999  0.0405
 6271TIP3    H243009   3.118   0.636   0.972  1.3675 -0.2381  0.0812
 6272TIP3   OH243010   3.561   7.086   2.116 -0.2760  0.0978 -0.7716
 6272TIP3    H143011   3.601   7.149   2.056  0.1234  0.2737 -0.3309
 6272TIP3    H243012   3.542   7.137   2.195  1.2969 -0.5879  0.1071
 6273TIP3   OH243013   6.338   1.871   2.526 -0.5748 -0.3589  0.4358
 6273TIP3    H143014   6.262   1.914   2.565 -0.7962  1.0578 -1.3992
 6273TIP3    H243015   6.413   1.920   2.560 -0.7028  0.2258 -0.0948
 6274TIP3   OH243016   1.178   1.109   1.602  0.2009 -0.1585 -0.6709
 6274TIP3    H143017   1.212   1.111   1.513  1.9899 -0.5856 -0.0300
 6274TIP3    H243018   1.211   1.189   1.642 -2.3030  1.1033 -0.9245
 6275TIP3   OH243019   3.927   1.969   2.309 -0.1430 -0.6040  0.5670
 6275TIP3    H143020   3.860   1.925   2.257 -1.5414  0.7871  1.0898
 6275TIP3    H243021   3.892   1.968   2.398  0.2757  0.5995  0.7610
 6276TIP3   OH243022   2.273   5.730   2.600 -0.0512 -0.5098  0.0827
 6276TIP3    H143023   2.193   5.677   2.597 -0.3373 -0.0418 -1.2369
 6276TIP3    H243024   2.245   5.813   2.637 -0.6695  0.3707 -2.1716
 6277TIP3   OH243025   1.796   7.345   0.651  0.2693 -0.0940 -1.1692
 6277TIP3    H143026   1.748   7.264   0.668 -0.0615  0.4634  0.9362
 6277TIP3    H243027   1.888   7.320   0.658  0.1657 -0.2258  0.1390
 6278TIP3   OH243028   1.791   3.052   2.012 -0.1775  0.1593 -0.2846
 6278TIP3    H143029   1.863   3.114   2.000 -0.4127  0.6801  0.8351
 6278TIP3    H243030   1.804   3.019   2.102 -0.9225 -0.2860 -0.3364
 6279TIP3   OH243031   3.978   5.004   3.461  0.0321  0.6069 -0.5790
 6279TIP3    H143032   3.973   5.081   3.405 -0.8338  0.1315 -1.1705
 6279TIP3    H243033   4.021   5.036   3.541  1.4687  1.2490 -1.5515
 6280TIP3   OH243034   3.493   6.310   1.238  0.6759 -0.4491  0.1602
 6280TIP3    H143035   3.419   6.250   1.245 -0.3387  0.8643  1.0998
 6280TIP3    H243036   3.464   6.377   1.176  0.7296  0.5213  1.1605
 6281TIP3   OH243037   6.006   6.582   1.277 -0.1978 -0.3583  0.5147
 6281TIP3    H143038   5.943   6.521   1.237 -0.9710  0.5934  0.2501
 6281TIP3    H243039   6.051   6.621   1.202 -0.3169  0.0334  0.6461
 6282TIP3   OH243040   6.572   0.917   2.388  0.2488 -0.1902  0.5133
 6282TIP3    H143041   6.601   0.997   2.432  0.2278 -0.6604  1.4058
 6282TIP3    H243042   6.633   0.849   2.418  1.3368 -0.2173 -1.5521
 6283TIP3   OH243043   3.499   4.702   2.755  0.5725 -0.1405  0.0566
 6283TIP3    H143044   3.407   4.688   2.780  1.2079 -0.2458  2.5648
 6283TIP3    H243045   3.549   4.670   2.830  2.6273  1.0954 -0.7243
 6284TIP3   OH243046   0.895   5.877   0.842 -0.3150  0.2133 -0.2374
 6284TIP3    H143047   0.828   5.911   0.901  0.6589  0.0912  0.9645
 6284TIP3    H243048   0.966   5.849   0.899  1.1912  1.2291 -1.5323
 6285TIP3   OH243049   3.552   2.540   1.660  0.2074 -0.0837  0.0726
 6285TIP3    H143050   3.462   2.569   1.646  0.1291 -0.1208  0.4908
 6285TIP3    H243051   3.546   2.476   1.731  0.4860 -0.5311 -0.3000
 6286TIP3   OH243052   6.527   2.209   2.078  0.4600 -0.3081 -0.4749
 6286TIP3    H143053   6.452   2.248   2.125  0.3291 -0.2916 -0.6975
 6286TIP3    H243054   6.498   2.204   1.987  0.7751 -0.1953 -0.5817
 6287TIP3   OH243055   2.064   5.721   2.872 -0.2356  0.1489 -0.1561
 6287TIP3    H143056   2.028   5.800   2.832  0.5712 -0.2543 -1.7930
 6287TIP3    H243057   2.137   5.752   2.925 -0.3487  0.5732 -0.2480
 6288TIP3   OH243058   2.224   4.416   2.142 -0.7019 -0.4618 -0.3074
 6288TIP3    H143059   2.154   4.443   2.202 -1.3653 -0.6094 -0.9885
 6288TIP3    H243060   2.222   4.320   2.144 -1.2799 -0.4809 -1.1619
 6289TIP3   OH243061   7.011   4.200   0.598  0.7681 -0.4737  0.6512
 6289TIP3    H143062   7.093   4.249   0.601  1.0198 -0.7425 -0.7901
 6289TIP3    H243063   7.037   4.111   0.572  0.0586 -0.6471  0.5060
 6290TIP3   OH243064   6.701   5.361   0.371 -0.2433 -0.2807  0.6424
 6290TIP3    H143065   6.645   5.330   0.442 -2.8700  1.1101 -0.6757
 6290TIP3    H243066   6.649   5.348   0.292  1.6045  0.4537 -0.7760
 6291TIP3   OH243067   5.363   6.108   0.780  0.5168  0.2482  0.1213
 6291TIP3    H143068   5.348   6.173   0.711 -1.0106  0.2746  0.4400
 6291TIP3    H243069   5.445   6.136   0.822 -0.1758  2.1025  0.3736
 6292TIP3   OH243070   1.553   4.138   2.848 -0.2231 -0.1296  0.1446
 6292TIP3    H143071   1.623   4.185   2.894  0.7511 -1.8647  0.5255
 6292TIP3    H243072   1.482   4.134   2.912 -1.0516  2.3047 -0.4995
 6293TIP3   OH243073   3.110   6.757   1.477 -0.2253  0.3695 -0.2994
 6293TIP3    H143074   3.102   6.848   1.449  1.4199  0.6589  0.0619
 6293TIP3    H243075   3.191   6.755   1.529 -1.5896 -0.7435  1.9516
 6294TIP3   OH243076   2.843   3.150   1.282  0.4091 -0.1275  0.6282
 6294TIP3    H143077   2.749   3.160   1.266  0.4862 -0.5021 -0.0715
 6294TIP3    H243078   2.863   3.218   1.347  0.1488  1.6853 -1.0742
 6295TIP3   OH243079   1.633   2.395   0.757  0.5743 -0.2319 -0.0609
 6295TIP3    H143080   1.562   2.357   0.809  0.4682 -0.4590 -0.3677
 6295TIP3    H243081   1.588   2.445   0.688  0.6968 -1.1550 -0.8294
 6296TIP3   OH243082   4.225   0.212   2.435  0.2692  0.2446 -0.2430
 6296TIP3    H143083   4.213   0.121   2.407 -0.8254 -0.0390  1.0454
 6296TIP3    H243084   4.319   0.228   2.425  0.3696 -0.7898 -1.1471
 6297TIP3   OH243085   0.589   5.047   1.883  0.7219 -0.0402 -0.7943
 6297TIP3    H143086   0.510   5.030   1.832  1.2674  0.0032 -1.6728
 6297TIP3    H243087   0.620   4.960   1.909  1.1160 -0.1485 -1.5932
 6298TIP3   OH243088   4.687   7.160   0.463 -0.1785 -0.6225 -0.2287
 6298TIP3    H143089   4.631   7.184   0.537  1.2978  2.6542 -0.0162
 6298TIP3    H243090   4.665   7.224   0.395  2.1052 -0.2720 -0.7112
 6299TIP3   OH243091   6.429   6.335   1.513 -0.1098  0.5888 -0.6825
 6299TIP3    H143092   6.469   6.421   1.530 -1.5630  1.0711  0.5003
 6299TIP3    H243093   6.342   6.356   1.477 -0.2659 -0.3979 -0.8972
 6300TIP3   OH243094   2.153   4.732   1.707 -0.2671  0.4271 -0.2825
 6300TIP3    H143095   2.187   4.797   1.767 -0.1061 -0.2495  0.3716
 6300TIP3    H243096   2.223   4.721   1.642  0.1009  0.2156  0.1443
 6301TIP3   OH243097   3.981   5.692   3.115 -0.3420  0.3620  0.0273
 6301TIP3    H143098   4.061   5.689   3.168 -0.6943  1.2322  0.6336
 6301TIP3    H243099   3.974   5.604   3.078  1.0710  0.3700 -0.3099
 6302TIP3   OH243100   5.448   2.315   0.916  0.2401 -0.5734  0.1366
 6302TIP3    H143101   5.416   2.292   1.003  0.0608 -0.7027  0.0360
 6302TIP3    H243102   5.519   2.253   0.899 -2.4480 -3.4722 -1.5766
 6303TIP3   OH243103   5.923   3.169   2.599  0.3297  0.3334 -0.0715
 6303TIP3    H143104   5.976   3.090   2.615 -0.0204  0.1435  0.1565
 6303TIP3    H243105   5.840   3.136   2.565  0.3232  0.6292 -0.3537
 6304TIP3   OH243106   0.400   0.689   2.804 -0.2441 -0.3438  0.2192
 6304TIP3    H143107   0.372   0.770   2.847  0.0346  1.1665 -2.2169
 6304TIP3    H243108   0.348   0.685   2.724  2.0231 -0.7901 -1.3327
 6305TIP3   OH243109   5.984   6.670   1.726  0.3754  0.3168 -0.0794
 6305TIP3    H143110   6.080   6.669   1.726  0.4393 -2.5835 -0.1929
 6305TIP3    H243111   5.961   6.627   1.809 -0.6476 -2.7154 -1.7700
 6306TIP3   OH243112   1.769   3.141   3.332 -0.1406  0.0142 -0.6104
 6306TIP3    H143113   1.826   3.135   3.409 -0.6636 -2.4839 -0.3601
 6306TIP3    H243114   1.703   3.073   3.345  0.5649 -1.4915 -3.8952
 6307TIP3   OH243115   7.445   1.048   0.955 -0.5706  0.1620  0.3992
 6307TIP3    H143116   7.388   0.972   0.962 -0.1728 -0.0188  2.0069
 6307TIP3    H243117   7.491   1.037   0.872 -0.3228 -1.4898  0.7373
 6308TIP3   OH243118   6.379   1.404   1.968 -0.3874  0.3453  0.1126
 6308TIP3    H143119   6.330   1.331   2.005 -0.0248 -0.1450 -0.3517
 6308TIP3    H243120   6.377   1.471   2.036 -0.9070 -0.0129  0.4615
 6309TIP3   OH243121   1.004   3.056   1.337  0.4059 -0.6550  0.0084
 6309TIP3    H143122   1.056   3.057   1.256  0.3628 -0.0535 -0.0168
 6309TIP3    H243123   0.941   3.127   1.326  0.6227 -0.3440  0.7120
 6310TIP3   OH243124   0.887   7.092   0.953  0.1757 -0.2573  0.5604
 6310TIP3    H143125   0.956   7.049   0.902 -0.2323  0.1041 -0.3247
 6310TIP3    H243126   0.808   7.040   0.934 -0.3017  0.7733 -0.4303
 6311TIP3   OH243127   3.746   5.764   1.251  0.1457  0.5408 -0.8900
 6311TIP3    H143128   3.727   5.698   1.318 -0.6061 -0.4665 -2.0434
 6311TIP3    H243129   3.737   5.848   1.297  0.2866 -0.1321  0.4120
 6312TIP3   OH243130   0.939   4.949   0.415 -0.0674  0.0295  0.3601
 6312TIP3    H143131   0.997   4.886   0.458 -1.7249 -2.1853 -0.4582
 6312TIP3    H243132   0.853   4.934   0.455 -0.7221  1.0535 -0.6046
 6313TIP3   OH243133   1.414   3.956   1.027  0.3339 -0.9538  0.4878
 6313TIP3    H143134   1.393   3.974   0.935 -1.4985 -0.2274  0.9867
 6313TIP3    H243135   1.329   3.938   1.067  1.0621 -0.9350  2.1078
 6314TIP3   OH243136   0.737   3.465   2.618  0.3865  0.2657 -0.6637
 6314TIP3    H143137   0.655   3.436   2.576  1.1783 -1.7853 -0.8832
 6314TIP3    H243138   0.712   3.546   2.663 -1.6606 -0.0440 -1.0993
 6315TIP3   OH243139   6.421   4.854   1.786 -0.4559 -0.2150  0.3084
 6315TIP3    H143140   6.426   4.884   1.696 -0.5214 -2.1239 -0.3777
 6315TIP3    H243141   6.376   4.924   1.833 -1.7217  0.1905 -1.4393
 6316TIP3   OH243142   5.155   5.224   1.954 -0.2373  0.2897 -0.1885
 6316TIP3    H143143   5.098   5.148   1.964 -1.7663  1.4311  0.0399
 6316TIP3    H243144   5.177   5.249   2.044 -0.1395  0.4162 -0.2482
 6317TIP3   OH243145   0.910   2.419   2.301  0.3449 -0.2803 -0.4774
 6317TIP3    H143146   0.949   2.342   2.343 -1.9745 -0.9870  0.5659
 6317TIP3    H243147   0.914   2.487   2.368 -2.7744 -1.2241  0.8234
 6318TIP3   OH243148   7.077   0.587   1.308 -0.1677  0.0865 -0.3591
 6318TIP3    H143149   7.155   0.535   1.329 -0.9186 -1.5798 -1.4441
 6318TIP3    H243150   7.106   0.648   1.241  0.7361  1.1169  0.9286
 6319TIP3   OH243151   1.053   6.949   1.137 -0.2790  0.1561  0.2263
 6319TIP3    H143152   0.989   7.019   1.133 -3.1352 -2.3079 -1.7442
 6319TIP3    H243153   1.056   6.924   1.229 -1.7913  0.6981  0.4424
 6320TIP3   OH243154   0.971   2.258   1.768 -0.0383  0.1930 -0.0069
 6320TIP3    H143155   0.960   2.352   1.780 -1.5423  0.1570 -0.8502
 6320TIP3    H243156   0.972   2.246   1.673  0.1968 -0.6352  0.0956
 6321TIP3   OH243157   0.484   6.486   1.468  0.2863  0.4166  0.5106
 6321TIP3    H143158   0.397   6.471   1.506  0.5618  0.0529  1.0155
 6321TIP3    H243159   0.511   6.571   1.504  0.8623 -0.2676  1.7745
 6322TIP3   OH243160   2.301   7.256   2.512 -0.3507  0.1458  0.1579
 6322TIP3    H143161   2.234   7.196   2.480  0.4434 -0.9147  0.4371
 6322TIP3    H243162   2.255   7.339   2.525 -1.5012 -0.4409 -0.0885
 6323TIP3   OH243163   6.990   2.371   1.231 -0.0539  0.5525  0.1933
 6323TIP3    H143164   7.067   2.413   1.193  0.0875 -0.2343 -0.4318
 6323TIP3    H243165   6.919   2.434   1.219  0.3958  1.0833  0.3274
 6324TIP3   OH243166   5.016   6.731   3.140  0.0965  0.1714  0.3415
 6324TIP3    H143167   5.098   6.698   3.177  1.6436  2.3028 -0.9933
 6324TIP3    H243168   5.041   6.775   3.059 -2.0047  2.8294  0.9709
 6325TIP3   OH243169   5.902   6.391   0.867 -0.7796  0.1003 -0.0331
 6325TIP3    H143170   5.907   6.388   0.962 -0.2180  1.2561 -0.0129
 6325TIP3    H243171   5.985   6.429   0.839 -0.5947 -0.9587 -1.0477
 6326TIP3   OH243172   2.312   3.242   2.783  0.3811 -0.2431  0.0137
 6326TIP3    H143173   2.370   3.167   2.771  0.0323 -0.6907  1.0014
 6326TIP3    H243174   2.224   3.205   2.777  0.2022  0.1537  0.1295
 6327TIP3   OH243175   5.842   5.834   2.218  0.2468 -0.1503 -0.1456
 6327TIP3    H143176   5.925   5.867   2.251 -1.0073  1.5974  1.5189
 6327TIP3    H243177   5.804   5.785   2.291  0.0825 -1.5056 -1.1055
 6328TIP3   OH243178   7.080   5.662   1.463  0.8477 -0.2458  0.1302
 6328TIP3    H143179   7.081   5.568   1.479  0.4793  0.1685  3.2409
 6328TIP3    H243180   6.989   5.682   1.440  0.7772 -0.5549  0.1453
 6329TIP3   OH243181   3.171   4.753   1.381  0.1041  0.0351 -0.1761
 6329TIP3    H143182   3.096   4.718   1.428 -0.9239  0.5703 -1.3509
 6329TIP3    H243183   3.135   4.823   1.326  1.2695 -0.4217 -1.5944
 6330TIP3   OH243184   3.740   1.793   2.239  0.1461  0.1939  0.5062
 6330TIP3    H143185   3.649   1.799   2.267  0.0093  0.6351 -0.0223
 6330TIP3    H243186   3.767   1.704   2.265  0.4384  0.9805  3.2419
 6331TIP3   OH243187   5.043   0.981   1.537  0.0218  0.1063  0.0726
 6331TIP3    H143188   5.104   0.909   1.552 -0.5856 -0.8635 -1.7830
 6331TIP3    H243189   5.098   1.056   1.513  0.5468 -0.6835 -1.3310
 6332TIP3   OH243190   0.992   6.727   2.679 -0.3461  0.0553 -0.8871
 6332TIP3    H143191   0.937   6.806   2.681 -0.2843  0.1070 -1.2351
 6332TIP3    H243192   1.081   6.760   2.689 -0.4789 -0.1684  1.8148
 6333TIP3   OH243193   5.302   1.443   3.100 -0.3347  0.4123  0.1881
 6333TIP3    H143194   5.347   1.369   3.059 -0.1246 -0.2688  1.5772
 6333TIP3    H243195   5.220   1.405   3.133 -0.1495  0.7397  1.0561
 6334TIP3   OH243196   4.043   5.608   0.617 -0.1270 -0.3128 -0.2662
 6334TIP3    H143197   4.023   5.657   0.697  1.4304  0.9791 -0.6267
 6334TIP3    H243198   3.992   5.527   0.625  0.4703 -0.5255  2.3538
 6335TIP3   OH243199   3.904   1.942   3.645  0.0182 -0.3275 -0.3994
 6335TIP3    H143200   3.813   1.967   3.626 -0.0455  0.1071  0.4591
 6335TIP3    H243201   3.906   1.848   3.631 -1.2742 -0.8358  2.2129
 6336TIP3   OH243202   1.936   2.388   0.753 -0.0769  0.3843  0.0461
 6336TIP3    H143203   1.949   2.395   0.848  1.2441 -1.7818  0.0846
 6336TIP3    H243204   1.842   2.405   0.741 -0.0053  2.1802  1.5237
 6337TIP3   OH243205   7.005   7.115   1.682  0.3114  0.3596  0.5958
 6337TIP3    H143206   6.936   7.053   1.707 -1.6494  0.9481 -2.7423
 6337TIP3    H243207   7.076   7.059   1.650 -0.3900 -0.2463  0.0505
 6338TIP3   OH243208   6.001   5.891   1.108  0.1015 -0.8281 -0.2494
 6338TIP3    H143209   5.963   5.853   1.029 -0.3890 -1.2384  0.1836
 6338TIP3    H243210   5.926   5.920   1.160  0.4377  1.9959 -1.1474
 6339TIP3   OH243211   4.906   3.009   2.148  0.1317 -0.2209 -0.4106
 6339TIP3    H143212   4.909   2.927   2.197  0.0747 -0.7498 -1.2803
 6339TIP3    H243213   4.995   3.043   2.152 -0.3781  1.0181  2.1633
 6340TIP3   OH243214   5.148   5.575   0.353 -0.5217  0.0103 -0.1542
 6340TIP3    H143215   5.234   5.544   0.327 -1.2909 -1.3703 -1.1803
 6340TIP3    H243216   5.166   5.644   0.417  1.4318  2.0797 -2.6974
 6341TIP3   OH243217   7.262   6.628   0.769  0.5337  0.3652 -0.0695
 6341TIP3    H143218   7.303   6.567   0.830  0.7164 -0.0268 -0.5758
 6341TIP3    H243219   7.180   6.654   0.812 -0.2927 -1.4049 -0.4669
 6342TIP3   OH243220   3.627   2.928   1.665  0.3004  0.3201 -0.4406
 6342TIP3    H143221   3.601   3.008   1.710  2.1735  0.8889 -0.2952
 6342TIP3    H243222   3.555   2.910   1.605 -1.0384  1.0149  0.8827
 6343TIP3   OH243223   5.718   5.563   0.649  0.0479  0.2369 -0.1765
 6343TIP3    H143224   5.811   5.567   0.625 -0.0657 -0.1148 -0.6941
 6343TIP3    H243225   5.672   5.567   0.566 -0.4328  1.1867  0.1306
 6344TIP3   OH243226   4.987   0.319   2.560 -0.4925  0.0555  0.0583
 6344TIP3    H143227   4.924   0.378   2.599 -0.1154 -0.1466  0.9896
 6344TIP3    H243228   4.939   0.238   2.545 -0.5958  0.0847  0.2381
 6345TIP3   OH243229   0.597   2.438   1.912 -0.2573 -0.0791 -0.5109
 6345TIP3    H143230   0.583   2.520   1.865  0.2717  0.3450  0.0506
 6345TIP3    H243231   0.543   2.374   1.866 -0.9505  0.6582 -0.7447
 6346TIP3   OH243232   3.639   4.274   2.667 -0.2543 -0.2438 -0.4179
 6346TIP3    H143233   3.658   4.187   2.632  0.4761 -0.5889  0.7741
 6346TIP3    H243234   3.679   4.334   2.604  1.0679 -0.8442 -0.1783
 6347TIP3   OH243235   6.413   7.212   1.982 -0.5878  0.4407 -0.2034
 6347TIP3    H143236   6.501   7.178   1.999 -1.1121 -1.1386 -0.5033
 6347TIP3    H243237   6.407   7.291   2.036  0.5990 -0.0605  0.7074
 6348TIP3   OH243238   6.298   0.654   2.679 -0.6849  0.2867  0.3198
 6348TIP3    H143239   6.304   0.739   2.635  0.4756 -0.1416 -0.4128
 6348TIP3    H243240   6.289   0.591   2.607 -0.4382 -0.2950  0.7937
 6349TIP3   OH243241   1.205   1.046   2.771  0.4683 -0.0349  0.1331
 6349TIP3    H143242   1.140   1.040   2.701  1.3992 -0.4718 -0.7193
 6349TIP3    H243243   1.289   1.047   2.726  1.1241 -0.8894  1.2675
 6350TIP3   OH243244   0.489   5.287   2.030 -0.4903 -0.3340  0.0728
 6350TIP3    H143245   0.404   5.324   2.004 -1.7129 -2.5962  0.5846
 6350TIP3    H243246   0.503   5.214   1.970 -0.1204 -1.4917  1.5109
 6351TIP3   OH243247   0.294   1.005   2.167  0.8164 -0.5191 -0.2781
 6351TIP3    H143248   0.230   1.064   2.207 -0.1781 -1.3698 -0.5693
 6351TIP3    H243249   0.309   0.938   2.233  0.2322 -1.1619 -0.7893
 6352TIP3   OH243250   1.114   1.113   1.949  0.6151 -0.1241  0.6087
 6352TIP3    H143251   1.035   1.165   1.963  1.1344  1.0619 -0.6751
 6352TIP3    H243252   1.081   1.026   1.924 -0.3022  0.5701 -0.7001
 6353TIP3   OH243253   2.283   6.803   1.763  0.0064 -0.1328  0.5002
 6353TIP3    H143254   2.291   6.762   1.677  0.6462 -0.0111  0.4983
 6353TIP3    H243255   2.278   6.730   1.824 -1.0239 -0.2285  0.3195
 6354TIP3   OH243256   5.381   4.759   1.959 -0.1145 -0.2879  0.4889
 6354TIP3    H143257   5.318   4.784   1.891 -0.7300 -1.1920  0.7141
 6354TIP3    H243258   5.446   4.829   1.958 -0.3232 -0.0827 -0.7681
 6355TIP3   OH243259   4.345   5.849   1.288 -0.4167 -0.2256 -0.3726
 6355TIP3    H143260   4.318   5.828   1.377 -0.0293  4.8895  1.2760
 6355TIP3    H243261   4.264   5.860   1.239 -0.8783  1.4317  0.7041
 6356TIP3   OH243262   1.492   4.906   1.591 -0.0836  0.6092  0.6709
 6356TIP3    H143263   1.568   4.859   1.559 -1.1529 -1.5020  1.0958
 6356TIP3    H243264   1.447   4.844   1.648  0.2449  3.2259  4.1175
 6357TIP3   OH243265   6.259   3.150   0.763  0.4902 -0.2615 -0.5399
 6357TIP3    H143266   6.339   3.118   0.803  0.7903  0.1770 -0.7888
 6357TIP3    H243267   6.266   3.123   0.671 -0.2924 -1.4576 -0.2712
 6358TIP3   OH243268   5.020   6.598   0.907  0.6321 -0.0395  0.5535
 6358TIP3    H143269   4.969   6.638   0.977 -1.7132 -1.4445 -0.2343
 6358TIP3    H243270   5.105   6.641   0.912 -0.8902  3.1658  1.3253
 6359TIP3   OH243271   7.370   7.032   1.343 -0.4212 -0.1223 -0.8016
 6359TIP3    H143272   7.318   6.952   1.337 -0.0184 -0.4214 -0.3780
 6359TIP3    H243273   7.374   7.065   1.253 -1.3299 -0.0983 -0.8403
 6360TIP3   OH243274   3.281   0.243   2.024  0.1994 -0.0486 -0.1474
 6360TIP3    H143275   3.273   0.337   2.036 -0.7518 -0.0406 -0.7342
 6360TIP3    H243276   3.228   0.204   2.093 -0.8689 -0.1071 -0.9832
 6361TIP3   OH243277   1.641   7.487   1.811  0.0100 -0.6488  0.0340
 6361TIP3    H143278   1.569   7.429   1.787  0.2980 -0.8557 -0.3310
 6361TIP3    H243279   1.627   7.566   1.758 -0.1395 -0.5503  0.2170
 6362TIP3   OH243280   2.699   2.624   2.946 -0.1502 -0.0275  0.1768
 6362TIP3    H143281   2.626   2.621   3.009 -1.1548  0.2591 -0.9426
 6362TIP3    H243282   2.671   2.568   2.874  0.2730  0.9168 -0.7415
 6363TIP3   OH243283   6.838   1.165   0.563  0.1579 -0.4167  0.2476
 6363TIP3    H143284   6.850   1.239   0.503  1.3173 -1.4071 -0.7957
 6363TIP3    H243285   6.750   1.177   0.598 -0.6989  0.0395 -1.9066
 6364TIP3   OH243286   6.006   2.983   0.914 -0.2023 -0.1195  0.4275
 6364TIP3    H143287   6.015   2.918   0.983  1.3495 -0.3993  0.0013
 6364TIP3    H243288   6.074   3.047   0.932 -0.7450  0.5953 -0.0153
 6365TIP3   OH243289   0.534   2.208   1.764 -0.1775 -1.0410 -0.1101
 6365TIP3    H143290   0.620   2.169   1.753  0.5703  0.5336 -0.1292
 6365TIP3    H243291   0.480   2.138   1.802  1.2920 -1.8265  0.5994
 6366TIP3   OH243292   7.350   4.611   2.460  0.2902  0.8130  0.6375
 6366TIP3    H143293   7.426   4.658   2.424  2.2466 -0.5929  2.6193
 6366TIP3    H243294   7.343   4.533   2.406  1.3828  0.1284  1.4354
 6367TIP3   OH243295   4.609   1.720   1.036  0.3812  0.8129 -0.0962
 6367TIP3    H143296   4.525   1.761   1.017 -0.5602 -1.2729 -0.7937
 6367TIP3    H243297   4.623   1.736   1.129 -0.8876  1.0432  0.0746
 6368TIP3   OH243298   2.226   6.971   1.992 -0.4807  0.5364  0.5588
 6368TIP3    H143299   2.133   6.953   1.977 -0.6549  2.0552 -0.4790
 6368TIP3    H243300   2.268   6.945   1.910  0.0568 -0.2770  1.0755
 6369TIP3   OH243301   0.123   3.892   1.685  0.0280 -0.2854 -0.4774
 6369TIP3    H143302   0.140   3.829   1.754  0.7195 -0.4295 -0.7682
 6369TIP3    H243303   0.105   3.839   1.607 -1.3389 -0.1309 -0.2885
 6370TIP3   OH243304   0.102   4.473   1.469  0.2313 -0.1373 -0.0468
 6370TIP3    H143305   0.138   4.439   1.387  1.9984 -0.3176  0.7606
 6370TIP3    H243306   0.033   4.410   1.491  0.1170 -0.4073 -1.0881
 6371TIP3   OH243307   5.285   0.006   1.624 -0.6233 -0.4351 -0.3496
 6371TIP3    H143308   5.287   0.031   1.716  1.9524  2.0076 -0.9293
 6371TIP3    H243309   5.376  -0.013   1.602 -1.2296 -1.3297 -2.3391
 6372TIP3   OH243310   6.751   1.255   3.225  0.3720  0.4937 -0.4574
 6372TIP3    H143311   6.745   1.336   3.175  0.6687  1.4133  0.9363
 6372TIP3    H243312   6.844   1.249   3.250  0.1154  0.4043  0.5126
 6373TIP3   OH243313   6.508   7.468   0.937 -0.4541  0.0075 -0.6106
 6373TIP3    H143314   6.443   7.398   0.941  0.8463 -1.2341  2.2840
 6373TIP3    H243315   6.459   7.549   0.953 -1.6987 -0.4348 -1.9970
 6374TIP3   OH243316   1.724   0.518   1.680 -0.2506  0.3336  0.7597
 6374TIP3    H143317   1.795   0.482   1.626  0.8157  0.3371  2.1102
 6374TIP3    H243318   1.719   0.610   1.654  0.2933  0.3509  0.6916
 6375TIP3   OH243319   4.799   0.229   1.402  0.3157  0.4547 -0.2634
 6375TIP3    H143320   4.750   0.291   1.456  1.3206  2.8407 -1.9525
 6375TIP3    H243321   4.765   0.242   1.313  2.8256  1.0761 -1.2161
 6376TIP3   OH243322   6.387   2.172   1.261  0.4220 -0.0335  0.3347
 6376TIP3    H143323   6.437   2.199   1.184  1.0786 -0.4789  0.5876
 6376TIP3    H243324   6.404   2.078   1.268 -2.1932 -0.6730 -0.8207
 6377TIP3   OH243325   6.684   4.404   0.890 -0.4409 -0.4151  0.4802
 6377TIP3    H143326   6.749   4.349   0.935 -0.0648 -0.6798 -0.3593
 6377TIP3    H243327   6.628   4.342   0.843  0.2263 -0.0984 -0.7932
 6378TIP3   OH243328   4.800   4.505   2.336  0.0353  0.1845 -0.5935
 6378TIP3    H143329   4.795   4.421   2.382 -0.4279  0.4134 -0.2221
 6378TIP3    H243330   4.874   4.550   2.378 -1.4231  1.0977  1.1447
 6379TIP3   OH243331   6.107   6.864   0.364 -0.2269 -0.4472  0.0393
 6379TIP3    H143332   6.058   6.807   0.424  0.0658 -0.6898  0.0468
 6379TIP3    H243333   6.161   6.804   0.313  0.8212 -0.0893  0.7185
 6380TIP3   OH243334   2.895   5.456   1.281  0.6407  0.4199 -0.4712
 6380TIP3    H143335   2.973   5.494   1.240  0.5499 -0.8937 -1.9797
 6380TIP3    H243336   2.868   5.387   1.221  0.4372 -1.6119  1.7697
 6381TIP3   OH243337   4.386   5.779   0.480 -0.3984 -0.3365  0.0919
 6381TIP3    H143338   4.331   5.854   0.457 -0.4855 -0.5383 -0.3574
 6381TIP3    H243339   4.473   5.816   0.491 -0.3072 -0.2793 -0.8114
 6382TIP3   OH243340   5.764   7.174   0.375 -0.0511  0.3251  0.1116
 6382TIP3    H143341   5.678   7.203   0.406 -0.7653 -0.6416 -0.9179
 6382TIP3    H243342   5.775   7.218   0.291  0.5430  0.5704  0.3143
 6383TIP3   OH243343   3.622   6.016   0.648  0.7999  0.5869  0.5428
 6383TIP3    H143344   3.574   6.072   0.587 -1.6729  0.4639  2.2369
 6383TIP3    H243345   3.608   6.056   0.734  1.5450 -0.9551  1.4257
 6384TIP3   OH243346   4.442   1.561   1.528  0.1972 -0.0772 -0.4784
 6384TIP3    H143347   4.499   1.502   1.479  0.5216 -0.0967 -0.0866
 6384TIP3    H243348   4.442   1.526   1.617  1.4660  1.2427  0.0885
 6385TIP3   OH243349   5.654   3.436   1.829  0.1079 -0.1377 -0.1238
 6385TIP3    H143350   5.663   3.485   1.747  0.8594  1.9945  1.1586
 6385TIP3    H243351   5.569   3.462   1.864  2.2986  4.3068  2.8653
 6386TIP3   OH243352   3.032   3.106   0.482  0.0729 -0.0733  0.0352
 6386TIP3    H143353   3.032   3.162   0.559  2.4653 -1.2802  0.9999
 6386TIP3    H243354   3.017   3.166   0.409  1.9267  1.7979  1.0707
 6387TIP3   OH243355   1.962   3.473   2.080  0.5620 -0.2904 -0.6594
 6387TIP3    H143356   1.937   3.396   2.030  1.2650 -1.4445  0.6830
 6387TIP3    H243357   1.891   3.535   2.067 -0.6849 -1.6809 -0.6961
 6388TIP3   OH243358   3.440   5.210   2.827  0.4707 -0.2017 -0.1444
 6388TIP3    H143359   3.387   5.288   2.843  2.4916  1.3004 -0.5428
 6388TIP3    H243360   3.399   5.169   2.750 -2.2676 -1.1623  1.6368
 6389TIP3   OH243361   1.672   3.405   3.345 -0.5242  0.0457  0.2310
 6389TIP3    H143362   1.697   3.312   3.348  1.2775  0.3714 -1.8926
 6389TIP3    H243363   1.625   3.415   3.262 -1.5996  0.8466  0.9218
 6390TIP3   OH243364   6.844   5.195   1.493  0.2136  0.3383 -0.4190
 6390TIP3    H143365   6.875   5.245   1.417  0.1398  0.4298 -0.3898
 6390TIP3    H243366   6.879   5.243   1.569  0.3003  0.2390 -0.3965
 6391TIP3   OH243367   1.011   1.932   2.209  0.1428  0.1148 -0.1094
 6391TIP3    H143368   1.090   1.964   2.165 -0.2152  0.4210 -0.5364
 6391TIP3    H243369   1.027   1.838   2.222  1.5659  0.5543  1.9068
 6392TIP3   OH243370   7.120   6.089   2.978  0.2587 -0.1593 -0.1892
 6392TIP3    H143371   7.175   6.022   3.019  1.0218  0.8309  0.4455
 6392TIP3    H243372   7.154   6.172   3.011  0.3530  0.6525 -2.1833
 6393TIP3   OH243373   1.983   1.111   3.083  0.0867  0.0524 -0.2018
 6393TIP3    H143374   2.074   1.082   3.093  1.8303  4.6095 -0.4972
 6393TIP3    H243375   1.970   1.171   3.156 -2.7046 -0.3058 -0.3112
 6394TIP3   OH243376   6.469   0.253   2.472 -0.2442 -0.3263 -0.0504
 6394TIP3    H143377   6.484   0.195   2.398 -0.1174  0.3985 -0.6078
 6394TIP3    H243378   6.375   0.273   2.467 -0.4264 -1.0096  0.5413
 6395TIP3   OH243379   3.251   6.652   2.064 -0.0199 -0.1664  0.3327
 6395TIP3    H143380   3.261   6.572   2.117 -0.3180 -0.6902 -0.3743
 6395TIP3    H243381   3.306   6.717   2.108 -0.3307 -0.5553  1.3351
 6396TIP3   OH243382   0.861   1.970   8.266  0.5210  0.0194 -0.1693
 6396TIP3    H143383   0.851   2.049   8.319 -1.4344  0.1549 -0.6641
 6396TIP3    H243384   0.900   1.906   8.325  1.1251  1.0257  0.5562
 6397TIP3   OH243385   5.672   4.577   3.092  0.2352 -0.9719 -0.0478
 6397TIP3    H143386   5.739   4.588   3.160 -0.4642  1.5291  0.3605
 6397TIP3    H243387   5.599   4.534   3.138  0.1258 -0.1586  0.5715
 6398TIP3   OH243388   1.319   1.503   0.989 -0.1867 -0.6054 -0.3264
 6398TIP3    H143389   1.339   1.492   1.082 -0.0536 -1.3276 -0.4348
 6398TIP3    H243390   1.240   1.450   0.974 -1.4295  1.1350 -0.1982
 6399TIP3   OH243391   0.695   3.754   2.711 -0.4243 -0.1054 -0.7072
 6399TIP3    H143392   0.756   3.792   2.649 -0.7601  0.3212 -0.7789
 6399TIP3    H243393   0.741   3.755   2.795 -0.3158  0.1647 -0.7722
 6400TIP3   OH243394   1.966   7.144   0.349  0.0387 -0.2995  0.5541
 6400TIP3    H143395   1.936   7.060   0.384  1.4227 -1.7161 -1.4510
 6400TIP3    H243396   1.887   7.198   0.349 -1.7485 -2.6455 -1.0121
 6401TIP3   OH243397   3.014   5.048   0.942  0.5427  0.0382  0.1313
 6401TIP3    H143398   2.984   4.979   1.001 -0.4212  0.2006 -0.1534
 6401TIP3    H243399   2.988   5.019   0.855  0.4295  0.5990 -0.0276
 6402TIP3   OH243400   3.447   4.186   0.731 -0.2023 -0.0867  0.3376
 6402TIP3    H143401   3.471   4.275   0.705 -0.6810 -0.1098 -0.2054
 6402TIP3    H243402   3.512   4.130   0.688 -0.4235 -0.0543 -0.0489
 6403TIP3   OH243403   2.744   1.322   1.489  0.2286 -0.2909 -0.3302
 6403TIP3    H143404   2.790   1.375   1.424  1.8178 -0.0107  0.9628
 6403TIP3    H243405   2.808   1.308   1.559 -1.0213 -1.6415  0.6126
 6404TIP3   OH243406   6.512   5.667   2.379  0.1284  0.0427  0.0671
 6404TIP3    H143407   6.471   5.753   2.387  0.2061 -0.0993  4.3005
 6404TIP3    H243408   6.606   5.685   2.380  0.1727 -0.0480 -1.0968
 6405TIP3   OH243409   5.598   1.434   2.191  0.0731  0.6933 -0.3544
 6405TIP3    H143410   5.596   1.501   2.259  0.6142  0.1427  0.2180
 6405TIP3    H243411   5.662   1.370   2.223 -0.4744 -0.1178 -0.8575
 6406TIP3   OH243412   3.287   1.567   1.616 -0.4299 -0.3835 -0.2940
 6406TIP3    H143413   3.208   1.516   1.634 -0.5693 -0.9103 -2.1677
 6406TIP3    H243414   3.358   1.503   1.623 -0.3849 -0.3556 -0.4749
 6407TIP3   OH243415   1.340   2.866   1.568 -0.2638  0.6125  0.4539
 6407TIP3    H143416   1.246   2.869   1.587 -0.5805 -0.2106 -0.8397
 6407TIP3    H243417   1.372   2.790   1.616 -0.7986 -0.6528 -1.0789
 6408TIP3   OH243418   0.297   0.799   1.183  0.3273  0.2862  0.1475
 6408TIP3    H143419   0.223   0.859   1.175  0.1545 -0.1447 -1.8041
 6408TIP3    H243420   0.281   0.754   1.266 -1.2704  0.6401  0.0772
 6409TIP3   OH243421   3.236   1.632   1.348 -0.0283 -0.8534  0.6337
 6409TIP3    H143422   3.193   1.605   1.430  0.5246  0.6027  1.4341
 6409TIP3    H243423   3.283   1.711   1.371  1.0419 -1.0248 -0.8552
 6410TIP3   OH243424   1.642   7.274   1.106  0.9972  0.0877 -0.1503
 6410TIP3    H143425   1.587   7.270   1.184 -0.5434  1.0540 -1.1254
 6410TIP3    H243426   1.728   7.246   1.136  0.2022 -0.6243  1.6424
 6411TIP3   OH243427   2.256   1.388   1.974  0.5617  0.3577 -0.6319
 6411TIP3    H143428   2.198   1.336   1.918 -0.6347  0.6092  0.3337
 6411TIP3    H243429   2.321   1.326   2.006 -2.3614 -1.3654  2.6938
 6412TIP3   OH243430   2.232   5.518   1.423  0.6302 -0.4140 -0.3312
 6412TIP3    H143431   2.163   5.584   1.425  0.3082 -0.7646  0.5935
 6412TIP3    H243432   2.237   5.491   1.332 -0.9594 -0.9062 -0.2977
 6413TIP3   OH243433   3.577   3.750   1.017  0.4124 -0.6164 -0.7314
 6413TIP3    H143434   3.565   3.662   1.053  3.7329 -0.4212  1.2806
 6413TIP3    H243435   3.543   3.808   1.085  2.0679 -0.3369 -0.0957
 6414TIP3   OH243436   4.767   5.967   1.952 -0.0971  0.4705  0.6480
 6414TIP3    H143437   4.854   5.940   1.923  0.0616 -0.3984  1.8648
 6414TIP3    H243438   4.743   6.038   1.892  1.2034  0.3456 -0.0584
 6415TIP3   OH243439   6.738   4.115   0.618 -0.1532  0.3101 -0.2190
 6415TIP3    H143440   6.746   4.046   0.553 -0.1625  0.0804  0.0224
 6415TIP3    H243441   6.826   4.122   0.656 -0.5932 -0.9071  1.1057
 6416TIP3   OH243442   5.387   2.354   1.889 -0.3419 -0.3016  0.2369
 6416TIP3    H143443   5.426   2.371   1.974 -0.3726  0.1759  0.1553
 6416TIP3    H243444   5.462   2.352   1.829 -0.4308  0.5790  0.0858
 6417TIP3   OH243445   3.268   5.787   1.844 -0.1230  0.3238 -0.0185
 6417TIP3    H143446   3.175   5.800   1.821 -0.0195  1.4225  0.1005
 6417TIP3    H243447   3.278   5.693   1.853 -1.4511  0.2411  0.8431
 6418TIP3   OH243448   3.708   6.653   2.251 -0.3887  0.1758 -0.0425
 6418TIP3    H143449   3.803   6.662   2.252 -0.5042  1.7614  1.1762
 6418TIP3    H243450   3.679   6.705   2.175 -0.2464 -1.1299 -1.0142
 6419TIP3   OH243451   7.125   6.029   1.748 -0.0914 -0.8148 -0.0527
 6419TIP3    H143452   7.173   5.954   1.714 -2.1797 -0.9127 -3.2185
 6419TIP3    H243453   7.033   6.005   1.737 -0.8380  1.2624  1.1415
 6420TIP3   OH243454   5.564   0.443   0.673 -0.1592 -0.0863 -0.0774
 6420TIP3    H143455   5.585   0.500   0.748 -1.4560  0.2050  0.0956
 6420TIP3    H243456   5.648   0.410   0.644  0.4903  0.7561  0.7627
 6421TIP3   OH243457   2.257   5.171   1.902 -0.4183 -0.0948  0.3482
 6421TIP3    H143458   2.254   5.220   1.820 -0.6205  1.1900  1.1027
 6421TIP3    H243459   2.350   5.162   1.922 -0.3848  0.0267  0.2402
 6422TIP3   OH243460   1.924   1.479   2.092 -0.4330 -0.8262 -0.6320
 6422TIP3    H143461   1.929   1.574   2.095 -1.2214 -0.6921 -2.4875
 6422TIP3    H243462   1.845   1.457   2.142  0.0933 -0.5831  0.3356
 6423TIP3   OH243463   3.722   6.845   3.252  0.8599  0.2407 -0.5110
 6423TIP3    H143464   3.673   6.908   3.200  0.3986  0.0825 -0.2793
 6423TIP3    H243465   3.808   6.886   3.266  0.5528  0.8313 -0.3334
 6424TIP3   OH243466   3.551   5.329   2.169  0.2460 -0.7746 -0.2732
 6424TIP3    H143467   3.635   5.284   2.177 -0.7389 -2.3800  2.2167
 6424TIP3    H243468   3.555   5.400   2.232 -0.2537 -0.9053 -0.0813
 6425TIP3   OH243469   3.995   0.486   0.545 -0.5391  0.2997 -0.2059
 6425TIP3    H143470   3.996   0.582   0.542 -2.2791  0.3393 -0.2824
 6425TIP3    H243471   3.903   0.463   0.537  0.0523 -1.5052 -3.2235
 6426TIP3   OH243472   3.097   0.465   1.379  0.2512 -0.3111  0.0305
 6426TIP3    H143473   3.073   0.385   1.426 -1.9586 -0.0730 -0.5823
 6426TIP3    H243474   3.014   0.512   1.368  0.8723  0.2728 -2.9546
 6427TIP3   OH243475   5.192   5.357   1.498  0.5804 -0.0373 -0.5062
 6427TIP3    H143476   5.176   5.400   1.582 -1.2975 -0.7008 -0.4712
 6427TIP3    H243477   5.175   5.425   1.432 -0.5338 -0.1947 -0.3992
 6428TIP3   OH243478   5.168   3.141   2.211 -0.1578  0.0514  0.1346
 6428TIP3    H143479   5.181   3.224   2.167  0.1202  0.2835  0.6440
 6428TIP3    H243480   5.114   3.163   2.287 -0.8284 -0.3791 -0.2068
 6429TIP3   OH243481   5.434   0.324   0.448 -0.2105  0.2521 -0.3691
 6429TIP3    H143482   5.340   0.345   0.449 -0.3686 -0.4316 -0.0193
 6429TIP3    H243483   5.473   0.386   0.510 -0.5028  0.2348 -0.1633
 6430TIP3   OH243484   3.540   3.432   2.556  0.1307  0.1240  0.2105
 6430TIP3    H143485   3.493   3.355   2.588  1.9992 -0.5437  1.4733
 6430TIP3    H243486   3.512   3.503   2.614 -1.5491  0.4594 -0.9197
 6431TIP3   OH243487   5.838   5.096   0.557  0.0906  0.3745 -0.0296
 6431TIP3    H143488   5.828   5.155   0.482 -0.2624  1.1757  0.6355
 6431TIP3    H243489   5.866   5.153   0.628  2.4565 -0.6765 -0.0312
 6432TIP3   OH243490   1.930   0.676   2.881  0.5875  0.3694  0.6116
 6432TIP3    H143491   1.949   0.615   2.952 -1.2116  0.6188  1.3812
 6432TIP3    H243492   1.847   0.645   2.845  1.7240 -0.0687 -1.7840
 6433TIP3   OH243493   1.924   2.437   1.842  0.1665 -0.0891  0.3055
 6433TIP3    H143494   1.984   2.363   1.846  0.1752 -0.2744 -1.8229
 6433TIP3    H243495   1.978   2.511   1.814  0.0128  0.5706  1.6728
 6434TIP3   OH243496   1.121   5.198   1.744  0.2044  0.1484  0.0536
 6434TIP3    H143497   1.165   5.114   1.757 -0.1757 -0.2251 -0.9770
 6434TIP3    H243498   1.039   5.189   1.791  0.6996  0.4165  0.9974
 6435TIP3   OH243499   1.855   6.932   3.606  0.1516  0.2638  0.2409
 6435TIP3    H143500   1.814   6.847   3.622  0.5171  0.1309  0.4947
 6435TIP3    H243501   1.795   6.995   3.646 -2.2408  0.5661 -3.3548
 6436TIP3   OH243502   5.902   0.287   1.553 -0.3466 -0.3840 -0.4853
 6436TIP3    H143503   5.994   0.293   1.526 -0.6016  0.0073 -1.2840
 6436TIP3    H243504   5.855   0.263   1.473 -1.1919  1.4189 -0.5892
 6437TIP3   OH243505   2.048   6.415   2.072 -0.2803  0.1155  0.0202
 6437TIP3    H143506   1.960   6.454   2.076 -0.1332  0.3848  0.7550
 6437TIP3    H243507   2.032   6.324   2.047 -0.9698 -0.4597  2.3351
 6438TIP3   OH243508   5.109   2.827   1.883  0.3252  0.0310  0.0260
 6438TIP3    H143509   5.161   2.844   1.804  0.5057 -0.6586 -0.0084
 6438TIP3    H243510   5.169   2.782   1.941  0.2705  0.7684  0.6728
 6439TIP3   OH243511   7.471   6.764   1.608 -0.2292  0.0571 -0.1655
 6439TIP3    H143512   7.441   6.754   1.518  0.5628  2.3644 -0.7496
 6439TIP3    H243513   7.566   6.760   1.603 -0.1750  0.2240  0.5821
 6440TIP3   OH243514   7.362   6.717   2.987 -0.3914 -0.0055  0.7714
 6440TIP3    H143515   7.271   6.748   2.993  0.0462  1.3420  0.7182
 6440TIP3    H243516   7.408   6.762   3.057  0.3333 -0.3525  0.5279
 6441TIP3   OH243517   0.920   1.763   1.306  0.0606 -0.0403  0.4129
 6441TIP3    H143518   0.990   1.716   1.259 -1.8881 -0.5238 -2.2600
 6441TIP3    H243519   0.952   1.852   1.314  0.9533 -0.1968 -0.9800
 6442TIP3   OH243520   7.177   3.606   1.837 -0.2225 -0.0038 -0.7998
 6442TIP3    H143521   7.162   3.692   1.877 -0.3550  0.4564 -1.8177
 6442TIP3    H243522   7.107   3.551   1.873  0.5189 -0.0143  0.7343
 6443TIP3   OH243523   6.590   1.212   0.671  0.0829 -0.6548 -0.0032
 6443TIP3    H143524   6.537   1.133   0.678  0.6501 -0.9026  1.9173
 6443TIP3    H243525   6.611   1.236   0.761 -0.1159  1.7342 -0.5264
 6444TIP3   OH243526   0.326   0.615   3.438 -0.4861 -0.0671  0.4477
 6444TIP3    H143527   0.342   0.677   3.510  1.0651 -0.5669  0.5671
 6444TIP3    H243528   0.296   0.670   3.366 -0.5367  0.6431  0.9954
 6445TIP3   OH243529   0.128   1.986   3.201  0.1326 -0.1044 -0.3447
 6445TIP3    H143530   0.082   1.911   3.162 -0.9553 -1.3024  2.8869
 6445TIP3    H243531   0.193   1.946   3.259 -0.9953  1.3772  2.0618
 6446TIP3   OH243532   3.170   0.534   2.035 -0.1855 -0.2654  0.2015
 6446TIP3    H143533   3.197   0.528   1.944 -0.0460 -1.8362  0.3255
 6446TIP3    H243534   3.223   0.605   2.071  0.6419 -0.4366 -0.6371
 6447TIP3   OH243535   4.875   3.181   1.248 -0.0333  0.5184  0.0613
 6447TIP3    H143536   4.784   3.206   1.265 -0.1451  0.4212 -0.3931
 6447TIP3    H243537   4.919   3.263   1.225  0.4383  0.8982  2.0961
 6448TIP3   OH243538   5.749   7.182   1.951 -0.2156 -0.0053  0.2206
 6448TIP3    H143539   5.704   7.209   1.871 -0.2426  0.7649  0.4831
 6448TIP3    H243540   5.817   7.248   1.964  1.0548 -1.1933 -0.2039
 6449TIP3   OH243541   4.092   6.296   0.910  0.0759  0.1510 -0.3508
 6449TIP3    H143542   3.998   6.279   0.900  0.4700 -1.9107 -0.8516
 6449TIP3    H243543   4.122   6.321   0.823  0.6517 -2.9625 -1.1526
 6450TIP3   OH243544   3.794   3.630   0.679  0.2842  0.4645  0.0769
 6450TIP3    H143545   3.711   3.674   0.698  0.7347  1.0154  0.8573
 6450TIP3    H243546   3.824   3.669   0.597 -0.9191 -0.7868 -1.0053
 6451TIP3   OH243547   3.590   4.325   2.325  0.1303 -0.5960  0.4830
 6451TIP3    H143548   3.677   4.284   2.323  0.4298 -0.1488  2.5084
 6451TIP3    H243549   3.608   4.419   2.318 -0.3848 -0.5956 -1.4446
 6452TIP3   OH243550   1.210   1.735   0.757 -0.9081 -0.1732  0.9970
 6452TIP3    H143551   1.291   1.744   0.707  0.1907  0.6094  2.8258
 6452TIP3    H243552   1.180   1.646   0.737 -0.5399  0.0921 -1.0029
 6453TIP3   OH243553   2.369   6.641   2.759  0.4354 -0.1060  0.3787
 6453TIP3    H143554   2.332   6.728   2.749 -1.1997 -0.9460 -1.5524
 6453TIP3    H243555   2.299   6.589   2.798 -0.3708 -1.5678 -2.6997
 6454TIP3   OH243556   2.385   6.232   0.581  0.4264  0.5395 -0.4422
 6454TIP3    H143557   2.425   6.191   0.504  0.1380 -0.9681  0.1855
 6454TIP3    H243558   2.456   6.284   0.619  2.0987 -2.5030  0.9606
 6455TIP3   OH243559   6.486   1.761   0.977 -0.5337  0.2523 -0.4056
 6455TIP3    H143560   6.402   1.715   0.983 -0.5166  0.3856  2.5565
 6455TIP3    H243561   6.550   1.691   0.965 -0.9023 -0.0320 -0.7703
 6456TIP3   OH243562   6.729   2.485   1.216  0.1392 -0.3306 -0.0096
 6456TIP3    H143563   6.738   2.490   1.311 -1.6546 -0.2775  0.1896
 6456TIP3    H243564   6.696   2.571   1.190  1.0192 -0.2051 -0.7436
 6457TIP3   OH243565   5.754   6.596   1.589 -0.0050 -0.2966  0.4982
 6457TIP3    H143566   5.803   6.657   1.645  2.3033 -0.6863 -0.9601
 6457TIP3    H243567   5.730   6.524   1.647  2.0275 -0.5344  1.1116
 6458TIP3   OH243568   6.788   3.027   2.445 -0.3329 -0.2110 -0.2849
 6458TIP3    H143569   6.806   3.118   2.469  1.7622 -0.8789  0.9051
 6458TIP3    H243570   6.713   3.002   2.498  0.1214  0.3403  0.6323
 6459TIP3   OH243571   4.015   2.191   1.272 -0.5659  0.2920  0.4490
 6459TIP3    H143572   4.066   2.148   1.341  0.1579  2.8405  1.5969
 6459TIP3    H243573   4.069   2.186   1.194  0.7602  1.5006  1.2515
 6460TIP3   OH243574   6.091   4.380   0.824 -0.4946  0.0066 -0.0351
 6460TIP3    H143575   6.166   4.440   0.833 -0.3264 -0.1251 -0.5400
 6460TIP3    H243576   6.104   4.315   0.893 -0.7818  0.6543  0.6470
 6461TIP3   OH243577   0.315   3.962   1.368  0.2079  0.1011  0.3866
 6461TIP3    H143578   0.249   3.911   1.414  0.4809  1.5767  2.5535
 6461TIP3    H243579   0.335   4.035   1.426 -0.0951  2.7013 -2.4970
 6462TIP3   OH243580   2.605   2.137   2.913  0.3870  0.1595 -0.0421
 6462TIP3    H143581   2.565   2.055   2.941 -0.0696  0.3989  0.0248
 6462TIP3    H243582   2.685   2.144   2.966 -0.3499  0.4897  1.0754
 6463TIP3   OH243583   1.053   7.041   0.718 -0.2665 -0.3850  0.1458
 6463TIP3    H143584   1.147   7.054   0.708 -0.2318 -1.1699 -0.7287
 6463TIP3    H243585   1.045   6.959   0.767 -0.5005  0.1821  1.0809
 6464TIP3   OH243586   6.229   4.487   1.402 -0.4108 -0.3325 -0.0320
 6464TIP3    H143587   6.240   4.448   1.315 -0.8757 -1.6836  0.4868
 6464TIP3    H243588   6.145   4.532   1.397 -0.2959 -0.1486 -0.3693
 6465TIP3   OH243589   1.457   2.525   2.176 -0.5107 -0.3068 -0.1375
 6465TIP3    H143590   1.488   2.589   2.240 -1.7777  0.9666 -0.7384
 6465TIP3    H243591   1.413   2.459   2.229  0.0193 -0.2170  0.4325
 6466TIP3   OH243592   2.283   3.523   3.126  0.3612 -0.0436 -0.8567
 6466TIP3    H143593   2.312   3.455   3.065 -0.2607 -0.4583 -0.7075
 6466TIP3    H243594   2.311   3.605   3.086  1.1506 -0.3868 -1.0293
 6467TIP3   OH243595   5.597   3.199   1.366  0.3257 -0.0056  0.1003
 6467TIP3    H143596   5.592   3.104   1.356  0.5421 -0.2033  1.6297
 6467TIP3    H243597   5.628   3.212   1.455 -0.4848  1.5176  0.1917
 6468TIP3   OH243598   5.249   1.841   1.778 -0.3202  0.4833  0.5047
 6468TIP3    H143599   5.263   1.833   1.684  0.9223  0.3250  0.6811
 6468TIP3    H243600   5.268   1.933   1.797 -4.2223  1.5649  0.0859
 6469TIP3   OH243601   0.901   2.653   0.459  0.2565  0.3653 -0.3467
 6469TIP3    H143602   0.960   2.725   0.438 -0.2724  0.3348 -2.0422
 6469TIP3    H243603   0.824   2.668   0.405  0.3812 -1.8024 -1.2176
 6470TIP3   OH243604   5.378   1.579   0.849  0.0413 -0.0143 -0.1506
 6470TIP3    H143605   5.428   1.572   0.767  1.7040 -1.2383  0.9133
 6470TIP3    H243606   5.415   1.512   0.906 -1.9575 -0.0609  1.1912
 6471TIP3   OH243607   6.895   3.598   3.060 -0.1693  0.8800 -0.6516
 6471TIP3    H143608   6.810   3.622   3.024 -1.1306  0.4288  1.1678
 6471TIP3    H243609   6.939   3.681   3.074 -1.4643  1.3635  0.9420
 6472TIP3   OH243610   4.898   5.917   1.235  0.0576 -0.6918  0.4929
 6472TIP3    H143611   4.819   5.961   1.204  0.2891  0.1959  1.1404
 6472TIP3    H243612   4.968   5.981   1.224  0.8315 -1.7023 -0.7041
 6473TIP3   OH243613   3.729   0.797   3.150 -0.1779  0.0430 -0.2513
 6473TIP3    H143614   3.762   0.715   3.187 -0.5727 -1.7305 -3.4180
 6473TIP3    H243615   3.803   0.831   3.099 -0.2702  1.2613  0.4082
 6474TIP3   OH243616   0.834   0.152   3.221 -0.4126  0.0652 -0.0787
 6474TIP3    H143617   0.905   0.109   3.269 -0.5348  0.3987  0.4101
 6474TIP3    H243618   0.780   0.079   3.189 -0.5225 -0.1597  0.5914
 6475TIP3   OH243619   1.382   3.682   1.541 -0.5257  0.1153  0.1063
 6475TIP3    H143620   1.290   3.705   1.529 -0.8711 -0.5919  1.2916
 6475TIP3    H243621   1.390   3.594   1.504  0.3444  1.2267 -2.5819
 6476TIP3   OH243622   2.241   5.300   2.730 -0.4563  0.7330  0.1741
 6476TIP3    H143623   2.285   5.320   2.813 -1.8432  2.0668  0.6511
 6476TIP3    H243624   2.160   5.351   2.734 -1.8700 -1.3014 -0.8194
 6477TIP3   OH243625   1.358   0.675   3.070  0.1369  0.5282 -0.4153
 6477TIP3    H143626   1.308   0.743   3.113  0.4229  1.6702 -1.8109
 6477TIP3    H243627   1.444   0.678   3.112  1.0639  2.9824 -2.2619
 6478TIP3   OH243628   6.077   4.462   1.720 -0.3022 -0.2851 -0.2414
 6478TIP3    H143629   5.983   4.453   1.734 -0.4208 -2.4386 -1.8793
 6478TIP3    H243630   6.087   4.546   1.677 -1.1980  0.8786  1.6799
 6479TIP3   OH243631   3.414   2.005   2.127 -0.6089  0.2134 -0.3173
 6479TIP3    H143632   3.429   1.938   2.193  0.5636  0.0873 -0.6905
 6479TIP3    H243633   3.399   1.957   2.046  0.7619  0.3847 -0.6935
 6480TIP3   OH243634   0.195   5.443   2.784  0.1682 -0.1969  0.3985
 6480TIP3    H143635   0.147   5.363   2.805 -0.4984 -0.0954 -0.6487
 6480TIP3    H243636   0.164   5.508   2.847  0.5979 -0.7112  1.1529
 6481TIP3   OH243637   5.336   6.383   0.639  0.0458  0.3459  0.1612
 6481TIP3    H143638   5.272   6.363   0.707 -0.1233  2.1623  0.6033
 6481TIP3    H243639   5.325   6.477   0.624  0.8593  0.1955 -1.5847
 6482TIP3   OH243640   0.349   5.854   0.969 -0.4175  0.4437 -0.3686
 6482TIP3    H143641   0.370   5.901   1.050 -0.3952  1.4341 -0.9321
 6482TIP3    H243642   0.255   5.866   0.958 -1.1754 -2.7555  1.3822
 6483TIP3   OH243643   3.148   5.720   1.490  0.2503 -0.2664  0.1269
 6483TIP3    H143644   3.093   5.784   1.535  0.6068  0.3250 -0.2619
 6483TIP3    H243645   3.216   5.772   1.448  0.9091 -0.9604  0.3157
 6484TIP3   OH243646   3.892   6.699   1.806  0.3853  0.0913  0.1295
 6484TIP3    H143647   3.927   6.669   1.722  0.6906 -1.0690  0.6541
 6484TIP3    H243648   3.848   6.623   1.842 -2.3662  1.3357 -0.2831
 6485TIP3   OH243649   1.326   7.178   3.114 -0.3978 -0.7263  0.2627
 6485TIP3    H143650   1.324   7.191   3.019  0.7574  0.5379  0.3785
 6485TIP3    H243651   1.236   7.196   3.142 -0.4877  0.0733 -0.4691
 6486TIP3   OH243652   0.237   0.930   0.442 -0.2779  0.1479 -0.6138
 6486TIP3    H143653   0.301   0.860   0.439 -0.2587  0.0669  0.8629
 6486TIP3    H243654   0.152   0.886   0.435 -0.2415  0.0460 -0.4149
 6487TIP3   OH243655   4.933   5.224   2.732 -0.4456 -0.2640 -0.0194
 6487TIP3    H143656   4.890   5.270   2.803 -0.2182  0.1413 -0.1383
 6487TIP3    H243657   5.016   5.270   2.720  0.0079 -1.0144  0.1862
 6488TIP3   OH243658   5.640   4.290   1.907  0.3975  0.4138 -0.0349
 6488TIP3    H143659   5.719   4.337   1.880  0.2192  0.1801 -1.0363
 6488TIP3    H243660   5.569   4.339   1.866  0.2355 -0.9123 -1.4150
 6489TIP3   OH243661   0.567   3.071   1.525 -0.0313 -0.3481  0.5194
 6489TIP3    H143662   0.660   3.084   1.511 -0.2073  0.9502  0.3704
 6489TIP3    H243663   0.526   3.109   1.447 -0.6684 -1.4216  0.3115
 6490TIP3   OH243664   6.640   6.261   2.716  0.3101 -0.3060  0.3201
 6490TIP3    H143665   6.733   6.250   2.735  0.6404  0.3373 -0.8395
 6490TIP3    H243666   6.600   6.280   2.801  1.4721  0.8959  0.6220
 6491TIP3   OH243667   4.650   3.774   2.219 -0.4718 -0.5689 -0.1383
 6491TIP3    H143668   4.689   3.687   2.214  2.3309  0.6388 -0.8204
 6491TIP3    H243669   4.556   3.758   2.205 -0.1060 -3.4764  0.0731
 6492TIP3   OH243670   4.920   2.567   2.366  0.5232  0.3030  0.2612
 6492TIP3    H143671   4.923   2.594   2.458 -1.8523 -0.2305  0.5549
 6492TIP3    H243672   4.948   2.644   2.317  0.5301  1.0347  1.3823
 6493TIP3   OH243673   0.269   1.248   2.909  0.4316  0.0388  0.3017
 6493TIP3    H143674   0.225   1.313   2.963 -0.1735 -0.8058  0.8529
 6493TIP3    H243675   0.203   1.222   2.844  1.0501  0.8128 -0.6615
 6494TIP3   OH243676   2.901   5.315   1.782 -0.0091 -0.3492  0.1932
 6494TIP3    H143677   2.994   5.293   1.777  0.7082  2.2815  0.6847
 6494TIP3    H243678   2.882   5.357   1.699 -1.1143 -1.8541 -0.3703
 6495TIP3   OH243679   3.422   6.256   0.830 -0.1423 -0.0185 -0.1936
 6495TIP3    H143680   3.488   6.325   0.821  0.4382 -0.4187  0.8473
 6495TIP3    H243681   3.341   6.297   0.800 -0.0828  1.5552  1.6069
 6496TIP3   OH243682   1.798   5.493   2.101  0.3092  0.1042 -0.6761
 6496TIP3    H143683   1.880   5.505   2.053  1.2766  0.4928  1.0103
 6496TIP3    H243684   1.825   5.475   2.191 -1.4028 -2.3079 -0.5438
 6497TIP3   OH243685   3.957   7.430   2.329 -0.5234 -0.3138 -0.0384
 6497TIP3    H143686   3.932   7.518   2.302 -1.3226 -0.3713  0.4805
 6497TIP3    H243687   4.052   7.431   2.329 -0.5132  0.1634 -1.2894
 6498TIP3   OH243688   6.882   5.664   2.995  0.4730 -0.1037  0.2687
 6498TIP3    H143689   6.846   5.597   2.936  1.4350  0.4768 -1.0337
 6498TIP3    H243690   6.912   5.615   3.072 -2.6649 -0.6601  1.2729
 6499TIP3   OH243691   7.000   2.108   0.455 -0.1033  0.0316  0.5021
 6499TIP3    H143692   7.059   2.180   0.476 -1.3666  1.2762 -0.0424
 6499TIP3    H243693   7.043   2.063   0.382  0.5979  0.3449  0.7101
 6500TIP3   OH243694   0.629   6.105   1.276 -0.4675 -0.2334 -0.6497
 6500TIP3    H143695   0.722   6.089   1.262 -0.5986 -1.3360 -0.3734
 6500TIP3    H243696   0.619   6.200   1.268  0.7444 -0.0606 -0.2534
 6501TIP3   OH243697   5.665   0.453   1.189  0.2302 -0.6141  0.4973
 6501TIP3    H143698   5.609   0.474   1.263 -0.6871  0.8222 -0.5530
 6501TIP3    H243699   5.623   0.377   1.148  0.2301 -0.8392  0.9084
 6502TIP3   OH243700   5.064   2.109   1.670 -0.1436  0.2566 -0.5419
 6502TIP3    H143701   5.079   2.197   1.703 -0.6061  0.6628 -1.3879
 6502TIP3    H243702   5.035   2.059   1.746 -0.2350  0.9254 -0.1337
 6503TIP3   OH243703   4.332   5.305   2.249 -0.1185 -0.8344 -0.0806
 6503TIP3    H143704   4.251   5.333   2.293  1.3828  0.8837  1.8090
 6503TIP3    H243705   4.377   5.251   2.314  1.5622  0.6934  0.1092
 6504TIP3   OH243706   4.177   1.208   3.006 -0.2804 -0.2683 -0.4221
 6504TIP3    H143707   4.252   1.266   3.018  0.2284 -0.5701 -1.9401
 6504TIP3    H243708   4.102   1.258   3.039  0.4416  0.3905  0.2556
 6505TIP3   OH243709   6.216   6.087   1.072  0.4674  0.1120  0.1734
 6505TIP3    H143710   6.131   6.067   1.112  0.6616 -1.9422 -0.3399
 6505TIP3    H243711   6.238   6.173   1.106 -1.9411  0.8275  0.1410
 6506TIP3   OH243712   3.668   0.202   2.960 -0.4820 -0.3893  0.0744
 6506TIP3    H143713   3.706   0.262   3.024  0.9496  1.1093 -2.0814
 6506TIP3    H243714   3.685   0.115   2.997  1.4220  0.3654  1.1523
 6507TIP3   OH243715   1.731   6.207   2.706  0.1724 -0.4964 -0.2146
 6507TIP3    H143716   1.736   6.266   2.631 -0.6862 -0.5175 -0.2918
 6507TIP3    H243717   1.802   6.143   2.691 -0.9129 -1.3960 -1.7858
 6508TIP3   OH243718   0.906   5.212   0.419 -0.2870  0.3811  0.1938
 6508TIP3    H143719   0.942   5.131   0.383  0.8494  0.7650  0.4261
 6508TIP3    H243720   0.824   5.185   0.460 -0.4174 -0.4753 -0.5803
 6509TIP3   OH243721   6.097   0.034   0.353 -0.4551  0.2082  0.0231
 6509TIP3    H143722   6.125   0.004   0.267 -0.2126  1.1407 -0.2339
 6509TIP3    H243723   6.046  -0.039   0.389  5.1881 -3.4759  2.1401
 6510TIP3   OH243724   2.918   4.022   1.790 -0.2011  0.2115 -0.1769
 6510TIP3    H143725   2.876   4.017   1.705 -0.0553  0.9146 -0.2900
 6510TIP3    H243726   2.846   4.035   1.852 -0.3128 -0.3635 -0.1787
 6511TIP3   OH243727   2.780   3.696   0.584  0.3789 -0.4607 -0.2021
 6511TIP3    H143728   2.692   3.687   0.548  1.2403  0.2261 -2.6597
 6511TIP3    H243729   2.777   3.777   0.635 -0.0843  0.3142 -1.4220
 6512TIP3   OH243730   4.551   1.305   1.051 -0.1226 -0.2138  0.1777
 6512TIP3    H143731   4.612   1.352   0.994 -0.1832 -1.2109 -0.7348
 6512TIP3    H243732   4.466   1.316   1.009 -0.1758 -0.9010  0.0956
 6513TIP3   OH243733   0.362   1.566   1.727 -0.2821 -0.3927 -0.1887
 6513TIP3    H143734   0.356   1.593   1.636 -2.5142 -0.6651 -0.1814
 6513TIP3    H243735   0.353   1.471   1.725 -0.9623 -0.3549  0.3203
 6514TIP3   OH243736   0.887   1.673   0.948 -0.1049  0.0867  0.3224
 6514TIP3    H143737   0.808   1.713   0.912  0.9995  0.9198 -1.3163
 6514TIP3    H243738   0.940   1.747   0.977  1.1003 -0.2630 -0.8787
 6515TIP3   OH243739   3.279   0.716   1.064  0.1829  0.5048 -0.2043
 6515TIP3    H143740   3.372   0.730   1.047 -0.0466  0.8142 -1.3095
 6515TIP3    H243741   3.275   0.629   1.104  0.7423 -0.7036 -2.5819
 6516TIP3   OH243742   1.636   2.165   0.584 -0.3789  0.1186 -0.2853
 6516TIP3    H143743   1.600   2.095   0.639  1.8282 -1.3837 -0.6378
 6516TIP3    H243744   1.639   2.241   0.641 -2.1910 -0.2082  0.3220
 6517TIP3   OH243745   5.475   4.235   1.139  0.2038 -0.0017  0.3169
 6517TIP3    H143746   5.474   4.233   1.234  0.3464  1.7624  0.3843
 6517TIP3    H243747   5.482   4.328   1.116  2.5979 -0.4938 -1.3894
 6518TIP3   OH243748   4.354   3.845   0.925  0.4923  0.1618 -0.2631
 6518TIP3    H143749   4.375   3.772   0.866  2.9491 -0.6363  1.4486
 6518TIP3    H243750   4.306   3.804   0.997  0.1014  0.6171 -0.2622
 6519TIP3   OH243751   1.881   2.743   3.189 -0.4061  0.0523  0.5640
 6519TIP3    H143752   1.945   2.814   3.186 -1.7783  1.3320 -2.3058
 6519TIP3    H243753   1.912   2.680   3.124 -2.4982  1.2587 -1.7749
 6520TIP3   OH243754   1.770   5.099   2.967 -0.3859 -0.1358 -0.1329
 6520TIP3    H143755   1.753   5.021   3.019 -0.9126  0.6152  0.8475
 6520TIP3    H243756   1.818   5.067   2.891  0.2548 -1.2766  0.7243
 6521TIP3   OH243757   1.217   5.784   1.683  0.6344 -0.5670  0.1775
 6521TIP3    H143758   1.192   5.761   1.772  1.2606  0.8930  0.7682
 6521TIP3    H243759   1.312   5.793   1.686  0.6561 -0.4439 -0.6166
 6522TIP3   OH243760   6.562   2.096   0.409 -0.1183  0.1984 -0.6976
 6522TIP3    H143761   6.619   2.073   0.336  0.5028  1.8975 -0.8068
 6522TIP3    H243762   6.568   2.022   0.469  2.4679  0.4275 -0.5638
 6523TIP3   OH243763   4.849   3.598   1.675 -0.0452  0.4204  0.2109
 6523TIP3    H143764   4.809   3.545   1.743 -0.3938 -0.0556 -0.3516
 6523TIP3    H243765   4.825   3.688   1.697 -1.0755  0.1834  0.1211
 6524TIP3   OH243766   6.298   0.896   0.834 -0.0041 -0.0810 -0.1678
 6524TIP3    H143767   6.262   0.850   0.759 -0.2576  0.5358 -0.4249
 6524TIP3    H243768   6.322   0.826   0.895  1.4033 -0.6683 -1.3302
 6525TIP3   OH243769   4.149   5.163   3.073 -0.2201 -0.5205 -0.2837
 6525TIP3    H143770   4.200   5.186   2.994 -0.5591 -2.2107 -1.0267
 6525TIP3    H243771   4.199   5.093   3.114  0.0601  0.4864  1.1667
 6526TIP3   OH243772   0.594   0.430   3.467  0.2763  0.0480  0.2337
 6526TIP3    H143773   0.664   0.447   3.404  0.2494 -1.4877 -0.2528
 6526TIP3    H243774   0.524   0.490   3.442  1.1175  1.0621  0.2493
 6527TIP3   OH243775   2.271   7.150   1.269 -0.3730  0.0412  0.0132
 6527TIP3    H143776   2.323   7.086   1.219 -1.2221  0.4437 -1.4473
 6527TIP3    H243777   2.300   7.235   1.236 -0.3742  0.3668  0.8232
 6528TIP3   OH243778   2.790   2.519   3.784 -0.1744  0.0019  0.0043
 6528TIP3    H143779   2.880   2.553   3.788 -0.7125  1.4183  0.5040
 6528TIP3    H243780   2.736   2.595   3.764 -1.3373 -0.7138  0.3231
 6529TIP3   OH243781   7.031   6.023   2.183 -0.8361 -0.1521  0.7011
 6529TIP3    H143782   7.090   6.029   2.259 -0.3028  1.0640  0.2043
 6529TIP3    H243783   7.082   6.057   2.110 -1.4615 -1.0106 -0.1614
 6530TIP3   OH243784   0.945   5.462   2.974 -0.3337  0.2742  0.5662
 6530TIP3    H143785   1.021   5.458   2.915 -0.0356  0.9542  0.8836
 6530TIP3    H243786   0.927   5.371   2.997 -1.1272 -0.1093 -1.4157
 6531TIP3   OH243787   3.131   0.365   0.683  0.0582  0.0343 -0.4702
 6531TIP3    H143788   3.193   0.390   0.615 -0.0631  1.6955 -0.0043
 6531TIP3    H243789   3.045   0.380   0.644 -0.0954 -1.9483 -0.9978
 6532TIP3   OH243790   6.771   4.538   1.124 -0.3934  0.4573 -0.0522
 6532TIP3    H143791   6.704   4.517   1.190  1.1571 -1.1991  1.0918
 6532TIP3    H243792   6.735   4.503   1.042 -0.9316 -0.4405  0.5481
 6533TIP3   OH243793   6.906   6.281   2.803  0.1276  0.2764  0.0270
 6533TIP3    H143794   6.991   6.243   2.825 -0.8044 -0.6153  2.4194
 6533TIP3    H243795   6.909   6.369   2.840  0.0045  0.2371  0.1308
 6534TIP3   OH243796   3.244   5.526   3.132 -0.2837  0.6599  0.0575
 6534TIP3    H143797   3.337   5.545   3.145 -0.5080  2.4134 -0.6356
 6534TIP3    H243798   3.198   5.584   3.193 -0.9626  0.5242 -0.3079
 6535TIP3   OH243799   1.874   0.972   0.534  0.2086 -0.2069  0.4591
 6535TIP3    H143800   1.837   0.885   0.546  0.7147 -0.2090  2.3198
 6535TIP3    H243801   1.799   1.027   0.511 -0.3338 -0.8954  0.5456
 6536TIP3   OH243802   3.091   3.536   3.068 -0.3191  0.0717  0.4936
 6536TIP3    H143803   3.158   3.482   3.112 -0.6976 -1.0368 -0.2495
 6536TIP3    H243804   3.081   3.612   3.125  1.1604 -0.0199  0.9188
 6537TIP3   OH243805   4.545   7.292   2.328 -0.1616 -0.2394 -0.2281
 6537TIP3    H143806   4.569   7.228   2.260  0.1876 -1.0885  0.6604
 6537TIP3    H243807   4.503   7.239   2.396  1.0400  0.2960  0.9850
 6538TIP3   OH243808   5.499   5.646   2.085  0.0462  0.1599  1.4275
 6538TIP3    H143809   5.560   5.576   2.108 -1.2708 -2.2163 -1.6388
 6538TIP3    H243810   5.413   5.612   2.109 -0.6671  0.4180 -0.5874
 6539TIP3   OH243811   0.057   2.755   0.983  0.5830  0.2177 -0.2582
 6539TIP3    H143812   0.125   2.813   0.948  1.2933  0.4678  1.4434
 6539TIP3    H243813  -0.015   2.814   1.006  0.2065  0.0783 -1.0337
 6540TIP3   OH243814   5.223   6.218   1.529  0.2590 -0.6417  0.0118
 6540TIP3    H143815   5.131   6.197   1.547 -0.0269  0.8430  0.3870
 6540TIP3    H243816   5.264   6.223   1.616  0.7531 -1.5026 -0.1625
 6541TIP3   OH243817   5.998   0.538   0.452 -0.7536 -0.0945 -0.2887
 6541TIP3    H143818   6.064   0.536   0.521 -2.4751  0.6374  1.4973
 6541TIP3    H243819   6.037   0.489   0.380  1.3371 -0.4808  1.0085
 6542TIP3   OH243820   1.727   2.862   1.390 -0.0777 -0.0447  0.5398
 6542TIP3    H143821   1.678   2.812   1.456 -0.8755  1.5273  1.1969
 6542TIP3    H243822   1.740   2.948   1.430 -0.3381  0.8711 -1.2317
 6543TIP3   OH243823   6.330   3.090   1.250  0.4902 -0.0490  0.3684
 6543TIP3    H143824   6.302   3.165   1.303 -1.2012  0.0737 -0.6050
 6543TIP3    H243825   6.280   3.016   1.284 -1.3742  0.2247 -1.5890
 6544TIP3   OH243826   4.354   2.607   2.563  0.4750  0.1658 -0.6411
 6544TIP3    H143827   4.289   2.643   2.502  0.4066  1.3927  0.1148
 6544TIP3    H243828   4.308   2.602   2.646  1.1188  0.3149 -0.2676
 6545TIP3   OH243829   4.282   2.069   3.347 -0.1918 -0.3519  0.1620
 6545TIP3    H143830   4.205   2.040   3.396  0.0925 -2.1023 -0.3615
 6545TIP3    H243831   4.356   2.024   3.389  0.1897 -0.9701 -1.1262
 6546TIP3   OH243832   5.713   6.623   1.252 -0.2769  0.2584  0.4405
 6546TIP3    H143833   5.749   6.708   1.276 -1.7986  0.8931  0.5929
 6546TIP3    H243834   5.641   6.609   1.313  0.4365 -1.5409  0.9614
 6547TIP3   OH243835   5.189   0.930   0.480  0.1946 -0.1046 -0.6722
 6547TIP3    H143836   5.119   0.866   0.496 -1.0611  1.6625  1.5030
 6547TIP3    H243837   5.187   0.988   0.557  3.0987  0.9299 -1.2365
 6548TIP3   OH243838   0.579   0.160   0.799  0.4494  0.5017  0.2478
 6548TIP3    H143839   0.560   0.242   0.753 -4.0097  0.3799  1.4234
 6548TIP3    H243840   0.553   0.176   0.889 -0.5005 -2.1226  0.5298
 6549TIP3   OH243841   0.070   6.309   2.088  0.1183 -0.1911 -0.2635
 6549TIP3    H143842   0.102   6.398   2.103 -0.0264 -0.3516  1.1372
 6549TIP3    H243843   0.054   6.305   1.994 -1.9144  1.9735 -0.1213
 6550TIP3   OH243844   0.565   0.964   1.600  0.0761 -0.4396 -0.0358
 6550TIP3    H143845   0.525   0.882   1.630  0.3735 -0.1534  1.1756
 6550TIP3    H243846   0.654   0.961   1.633  0.8593 -0.6807 -2.0011
 6551TIP3   OH243847   2.038   6.548   2.362  0.7162  0.3508 -0.2455
 6551TIP3    H143848   2.034   6.642   2.340 -3.2861  0.4224  0.0741
 6551TIP3    H243849   2.020   6.504   2.279 -1.3772  0.1158  0.2770
 6552TIP3   OH243850   3.178   2.779   1.252 -0.4235  0.2754  0.2036
 6552TIP3    H143851   3.088   2.751   1.231 -0.1020  0.3521 -1.3495
 6552TIP3    H243852   3.170   2.873   1.270 -0.5402  0.4613 -0.7642
 6553TIP3   OH243853   1.697   3.020   3.018 -0.5901  0.3760  0.0115
 6553TIP3    H143854   1.615   3.023   3.068 -0.7311 -0.3653 -0.1682
 6553TIP3    H243855   1.711   3.111   2.990 -0.0500  1.0179  2.1378
 6554TIP3   OH243856   0.770   5.182   2.734 -0.6392 -0.1508  0.4696
 6554TIP3    H143857   0.836   5.114   2.746  0.1090  0.6147  0.7281
 6554TIP3    H243858   0.786   5.215   2.645 -0.7215 -0.0096  0.5073
 6555TIP3   OH243859   5.040   4.310   2.240  0.8263  0.6134 -0.0956
 6555TIP3    H143860   5.048   4.240   2.175 -0.0546 -0.0638  0.4974
 6555TIP3    H243861   4.967   4.282   2.296  0.2713  2.1461 -0.0129
 6556TIP3   OH243862   2.048   1.249   2.242 -0.4969 -0.4024 -0.2823
 6556TIP3    H143863   1.990   1.191   2.193  2.3544 -0.9355 -3.4580
 6556TIP3    H243864   2.088   1.305   2.175  1.4117  1.0654  1.9022
 6557TIP3   OH243865   3.829   5.836   2.393  0.0483  0.6026 -0.4931
 6557TIP3    H143866   3.824   5.790   2.477  1.4943  0.2883 -0.5524
 6557TIP3    H243867   3.833   5.928   2.416 -2.5878  0.7750 -0.3628
 6558TIP3   OH243868   3.432   2.878   1.475 -0.7307  0.3807  0.2009
 6558TIP3    H143869   3.361   2.836   1.524 -0.4881  0.9653  1.0916
 6558TIP3    H243870   3.388   2.930   1.408 -1.1099  0.0539  0.1962
 6559TIP3   OH243871   6.449   6.832   1.052 -0.4048  0.2106 -0.0277
 6559TIP3    H143872   6.412   6.917   1.032  0.0192  0.4017 -0.0085
 6559TIP3    H243873   6.400   6.802   1.128  1.3200  1.7076  1.7898
 6560TIP3   OH243874   7.090   0.020   2.165  0.1958 -0.1573 -0.8565
 6560TIP3    H143875   7.039   0.070   2.102  1.5641 -0.0692 -1.9647
 6560TIP3    H243876   7.154  -0.027   2.111  0.8067 -0.8215  0.4036
 6561TIP3   OH243877   2.899   0.371   1.024  0.0533 -0.5813  0.0688
 6561TIP3    H143878   2.875   0.278   1.022  1.2720 -0.9063 -2.1589
 6561TIP3    H243879   2.824   0.417   0.986  1.0339 -1.1480 -2.7713
 6562TIP3   OH243880   3.611   4.476   2.874  0.3461 -0.4958 -0.2555
 6562TIP3    H143881   3.613   4.406   2.808 -0.1292 -1.0284  0.2815
 6562TIP3    H243882   3.688   4.461   2.928 -1.1352 -2.2577  1.4976
 6563TIP3   OH243883   4.509   6.360   1.518 -0.3817 -0.2839 -0.1518
 6563TIP3    H143884   4.533   6.429   1.579  0.2119 -0.0251 -0.6627
 6563TIP3    H243885   4.465   6.294   1.571  0.3230 -0.1648  0.5883
 6564TIP3   OH243886   4.493   0.474   2.156  0.0734 -0.7133 -0.8881
 6564TIP3    H143887   4.450   0.541   2.102 -0.8742  0.7964  1.5901
 6564TIP3    H243888   4.567   0.520   2.196  1.6547 -2.2141 -1.9302
 6565TIP3   OH243889   0.993   1.482   2.588  0.1515  0.0882 -0.3035
 6565TIP3    H143890   1.065   1.486   2.525  0.0847 -0.4296 -0.4166
 6565TIP3    H243891   1.029   1.435   2.662 -0.6035 -1.8286 -1.1013
 6566TIP3   OH243892   0.883   3.819   2.514 -0.0924  0.3793  0.1261
 6566TIP3    H143893   0.878   3.897   2.459  1.6319 -0.9160 -2.0276
 6566TIP3    H243894   0.848   3.749   2.460  0.0802 -0.6704  1.3225
 6567TIP3   OH243895   3.468   5.867   1.569 -1.5005 -0.3400 -0.6322
 6567TIP3    H143896   3.497   5.956   1.547  2.3674 -0.8463  1.4565
 6567TIP3    H243897   3.397   5.880   1.633 -0.4826  1.3158  0.2311
 6568TIP3   OH243898   0.456   5.004   0.587 -0.1905  0.7198  0.4070
 6568TIP3    H143899   0.365   4.976   0.581 -0.3241  1.4691 -2.8000
 6568TIP3    H243900   0.506   4.923   0.596 -0.9857 -0.0965 -1.8807
 6569TIP3   OH243901   7.158   5.083   0.436 -0.9511 -0.3996 -0.1208
 6569TIP3    H143902   7.192   5.038   0.358 -0.6342 -0.3073 -0.0391
 6569TIP3    H243903   7.074   5.118   0.409 -0.1618  0.9639 -0.8928
 6570TIP3   OH243904   5.814   6.311   2.117  0.1304  0.5649  0.0668
 6570TIP3    H143905   5.746   6.243   2.118  0.2035  0.4982  0.6786
 6570TIP3    H243906   5.822   6.339   2.208  1.8919 -0.4032  0.2499
 6571TIP3   OH243907   0.996   5.316   1.412 -0.4302  0.2271 -0.1241
 6571TIP3    H143908   0.949   5.273   1.484 -1.4952 -0.0964 -0.9690
 6571TIP3    H243909   0.935   5.382   1.380 -0.7440 -0.8192 -1.8552
 6572TIP3   OH243910   0.393   6.340   2.128 -0.3831  0.4251  1.0142
 6572TIP3    H143911   0.461   6.280   2.161 -0.5242 -0.5119 -0.3237
 6572TIP3    H243912   0.353   6.293   2.055 -1.6657  1.4740  1.0099
 6573TIP3   OH243913   0.314   4.312   1.040  0.3927  0.4745  0.6822
 6573TIP3    H143914   0.289   4.390   0.991  1.7259  1.0286  0.8505
 6573TIP3    H243915   0.374   4.265   0.982  1.7143  0.9620  1.6125
 6574TIP3   OH243916   5.778   6.897   0.409  0.3281  0.0032 -0.0583
 6574TIP3    H143917   5.760   6.988   0.386  0.0439  0.2102  0.9142
 6574TIP3    H243918   5.691   6.855   0.411  0.4488 -0.2687 -0.4183
 6575TIP3   OH243919   0.266   3.419   1.800 -0.0113 -0.4884  0.4932
 6575TIP3    H143920   0.347   3.395   1.843  0.0747 -1.4125 -0.1708
 6575TIP3    H243921   0.286   3.417   1.706 -1.0218 -1.6441  0.2748
 6576TIP3   OH243922   3.886   0.815   1.870  0.2680  0.1928  0.4750
 6576TIP3    H143923   3.846   0.729   1.857 -0.1715  0.1218  2.0480
 6576TIP3    H243924   3.850   0.869   1.800 -0.4554 -0.5792  0.2322
 6577TIP3   OH243925   6.302   1.139   2.067  0.1800 -0.0713  0.5657
 6577TIP3    H143926   6.284   1.075   2.136 -0.0224 -0.5506  0.0676
 6577TIP3    H243927   6.218   1.179   2.048 -0.0647 -1.0515 -0.5030
 6578TIP3   OH243928   5.540   5.374   1.103 -0.6749 -0.3865  0.0250
 6578TIP3    H143929   5.551   5.281   1.120  0.3490 -0.2316  0.2837
 6578TIP3    H243930   5.568   5.417   1.184 -2.0643  0.1214  0.2593
 6579TIP3   OH243931   2.803   2.782   3.934  0.3770 -0.1868  0.2064
 6579TIP3    H143932   2.751   2.704   3.953  0.8521 -0.8609 -1.0959
 6579TIP3    H243933   2.740   2.854   3.933 -0.5537 -0.9700 -1.1747
 6580TIP3   OH243934   2.246   5.831   0.796 -0.1247  0.3564 -0.9189
 6580TIP3    H143935   2.160   5.821   0.836  0.8084 -2.3071  0.6976
 6580TIP3    H243936   2.246   5.920   0.761 -3.1027  0.8234 -0.0167
 6581TIP3   OH243937   3.289   7.304   2.059  0.2481  0.0420  0.0577
 6581TIP3    H143938   3.208   7.257   2.080  1.2600 -1.9123 -0.2032
 6581TIP3    H243939   3.295   7.299   1.964  0.4215  0.6098  0.0400
 6582TIP3   OH243940   0.024   0.775   1.888  0.3216 -0.0739 -0.1769
 6582TIP3    H143941   0.106   0.726   1.883  0.1968 -0.3201  0.1545
 6582TIP3    H243942  -0.038   0.725   1.834  0.8328  1.0392 -1.8877
 6583TIP3   OH243943   0.543   0.653   1.442  0.1352  0.2728 -0.5916
 6583TIP3    H143944   0.567   0.654   1.349  0.4885 -1.1039 -0.5313
 6583TIP3    H243945   0.621   0.685   1.487  1.2442 -2.2178 -0.5576
 6584TIP3   OH243946   7.455   2.331   1.903 -0.0687 -0.3486  0.2674
 6584TIP3    H143947   7.519   2.275   1.947  0.0972  0.1006  0.6099
 6584TIP3    H243948   7.437   2.401   1.967  0.3043  0.4112 -0.4500
 6585TIP3   OH243949   2.630   5.553   0.535 -0.0480 -0.4509 -0.0092
 6585TIP3    H143950   2.571   5.510   0.473 -0.9284  2.4934 -1.4506
 6585TIP3    H243951   2.575   5.570   0.612 -0.2307 -0.3571 -0.1580
 6586TIP3   OH243952   2.558   3.226   0.980  0.5169 -0.1314  0.5228
 6586TIP3    H143953   2.573   3.263   0.892 -0.0888 -0.4891  0.2654
 6586TIP3    H243954   2.479   3.269   1.011 -0.1574 -1.1559  0.2510
 6587TIP3   OH243955   2.977   0.787   2.059 -0.2189 -0.4093  0.4078
 6587TIP3    H143956   2.939   0.732   1.990 -2.3274  1.4999 -0.0763
 6587TIP3    H243957   2.942   0.750   2.140  0.6412 -1.4294  0.3421
 6588TIP3   OH243958   5.045   6.513   1.352  0.1428 -0.4280 -0.2279
 6588TIP3    H143959   4.953   6.517   1.378  0.5357  1.6560  1.0779
 6588TIP3    H243960   5.094   6.504   1.434  1.1298 -2.2922 -0.9528
 6589TIP3   OH243961   1.672   1.749   2.003 -0.8880 -0.2582  0.0466
 6589TIP3    H143962   1.761   1.758   2.036 -0.8133  0.7436 -0.3980
 6589TIP3    H243963   1.642   1.665   2.039 -0.5410  0.4061  2.0388
 6590TIP3   OH243964   4.751   1.196   2.654 -0.3154 -0.0177  0.4256
 6590TIP3    H143965   4.800   1.267   2.694 -0.6446 -0.0890  0.9589
 6590TIP3    H243966   4.759   1.123   2.715  0.2894 -0.5475 -0.2671
 6591TIP3   OH243967   7.114   7.035   2.488 -0.1773  0.1964 -0.3709
 6591TIP3    H143968   7.106   7.097   2.415 -2.1560 -0.9867 -1.2098
 6591TIP3    H243969   7.132   7.091   2.564 -1.8824  1.8251 -1.0958
 6592TIP3   OH243970   0.996   6.993   1.561  0.0377  0.1716 -0.1788
 6592TIP3    H143971   1.040   7.056   1.618  0.5801 -0.3105 -0.0557
 6592TIP3    H243972   0.911   6.979   1.602 -0.1281  0.8946 -0.2619
 6593TIP3   OH243973   5.870   3.960   0.821 -0.1197  0.0915  0.0663
 6593TIP3    H143974   5.912   3.884   0.780  0.5886  0.6849 -0.3256
 6593TIP3    H243975   5.813   3.922   0.888 -1.7407 -0.9491 -1.7974
 6594TIP3   OH243976   3.027   3.179   1.686  0.1153 -0.1683  0.7836
 6594TIP3    H143977   2.963   3.169   1.757 -0.4440  0.1629  0.3420
 6594TIP3    H243978   3.003   3.111   1.623 -1.6319  1.6717 -0.7012
 6595TIP3   OH243979   5.113   2.357   1.780 -0.2496 -0.8158  0.3467
 6595TIP3    H143980   5.201   2.352   1.818 -0.7814 -0.4475  1.7000
 6595TIP3    H243981   5.119   2.425   1.714  0.8436 -1.8271 -0.6410
 6596TIP3   OH243982   2.449   5.746   2.844 -0.8619 -0.3606  0.1879
 6596TIP3    H143983   2.413   5.796   2.770 -0.3872  2.1708  1.5695
 6596TIP3    H243984   2.543   5.761   2.839 -0.9457  1.1419  2.1371
 6597TIP3   OH243985   4.161   0.717   2.049  0.5917  0.1705 -0.1997
 6597TIP3    H143986   4.239   0.756   2.087  1.6928 -1.2632 -0.8814
 6597TIP3    H243987   4.175   0.723   1.954 -0.1411 -0.0859 -0.3323
 6598TIP3   OH243988   1.416   1.071   1.336  0.1501  0.7349  0.4580
 6598TIP3    H143989   1.457   1.136   1.393 -2.1180  1.4081  1.4543
 6598TIP3    H243990   1.409   1.115   1.251  0.4531  1.0448  0.5926
 6599TIP3   OH243991   6.135   5.470   0.853  0.0226 -0.7654 -0.5831
 6599TIP3    H143992   6.212   5.413   0.849 -0.4995 -1.4984 -0.3745
 6599TIP3    H243993   6.171   5.558   0.866  0.8684 -0.9549 -1.5392
 6600TIP3   OH243994   6.951   6.349   1.392 -0.2143  0.3187  0.2787
 6600TIP3    H143995   6.975   6.339   1.484 -2.0832 -1.5295  0.6484
 6600TIP3    H243996   7.028   6.321   1.343  1.7220  3.6241  1.1326
 6601TIP3   OH243997   1.692   0.987   3.697  0.5368  0.0935 -0.0343
 6601TIP3    H143998   1.643   0.910   3.726  1.7423 -0.8539 -0.4427
 6601TIP3    H243999   1.660   1.058   3.754 -2.3813 -0.0978 -1.2673
 6602TIP3   OH244000   3.991   7.169   1.343  0.4387 -0.5023 -0.0259
 6602TIP3    H144001   4.080   7.150   1.371  0.6486  1.0336  0.4314
 6602TIP3    H244002   3.937   7.144   1.418  0.5704 -0.5669  0.0478
 6603TIP3   OH244003   3.786   2.131   2.740  0.0264  0.4311  0.1982
 6603TIP3    H144004   3.717   2.175   2.690  0.0688 -0.8847 -1.0643
 6603TIP3    H244005   3.770   2.038   2.727 -0.1445  0.0037  2.9515
 6604TIP3   OH244006   4.934   4.939   2.835  0.1926  0.0709 -0.7483
 6604TIP3    H144007   4.958   5.028   2.811  2.3192  0.4819  2.2186
 6604TIP3    H244008   5.012   4.905   2.881 -0.3194 -3.5298 -2.1762
 6605TIP3   OH244009   7.430   0.219   0.715 -0.6842  0.1937 -0.2025
 6605TIP3    H144010   7.395   0.162   0.647  0.0537  0.4486 -0.8143
 6605TIP3    H244011   7.369   0.210   0.788 -1.6987  0.2138 -1.0310
 6606TIP3   OH244012   4.659   4.419   0.978 -0.0467  0.2806 -0.6273
 6606TIP3    H144013   4.744   4.398   1.016 -0.7488  0.1214  0.9098
 6606TIP3    H244014   4.645   4.511   1.000 -2.4688 -0.8921  3.7313
 6607TIP3   OH244015   2.065   2.781   1.013 -0.0438 -0.4952  0.6004
 6607TIP3    H144016   2.154   2.756   0.990  0.7829  1.8242  0.9782
 6607TIP3    H244017   2.032   2.826   0.936 -0.3799 -0.1344  0.9523
 6608TIP3   OH244018   4.661   0.338   0.816  0.1358 -0.9203  0.6215
 6608TIP3    H144019   4.635   0.429   0.829 -0.1704 -0.8619 -0.3161
 6608TIP3    H244020   4.660   0.300   0.903 -0.6869 -0.2707  0.9074
 6609TIP3   OH244021   2.286   3.903   1.955  0.1175 -0.3783  0.3531
 6609TIP3    H144022   2.265   3.963   1.883 -0.2220 -0.3793  0.4499
 6609TIP3    H244023   2.217   3.838   1.953 -0.8481  0.5604  1.7278
 6610TIP3   OH244024   0.798   4.660   8.113  0.6140  0.7295 -0.3842
 6610TIP3    H144025   0.816   4.567   8.097  0.7845  0.5381  0.8428
 6610TIP3    H244026   0.715   4.661   8.160  1.2211  1.0927  0.7307
 6611TIP3   OH244027   4.815   4.945   1.734 -0.1360 -0.3871  0.1010
 6611TIP3    H144028   4.722   4.946   1.709 -0.5053 -1.1536  1.3376
 6611TIP3    H244029   4.862   4.928   1.653 -0.9722  1.3203 -0.7906
 6612TIP3   OH244030   7.244   7.305   1.626 -0.3796  0.2194  0.4274
 6612TIP3    H144031   7.295   7.369   1.676  0.6144 -0.7010  0.6486
 6612TIP3    H244032   7.164   7.293   1.677  0.4042 -0.3508  1.6001
 6613TIP3   OH244033   3.027   3.779   1.883 -0.0225  0.2936 -0.2208
 6613TIP3    H144034   3.006   3.872   1.890 -0.5532  0.3271 -1.9016
 6613TIP3    H244035   2.968   3.746   1.815 -0.3191 -1.4326  0.8159
 6614TIP3   OH244036   5.017   5.315   0.552  0.5737  0.1448  0.1024
 6614TIP3    H144037   4.949   5.358   0.501  0.2471 -0.8433 -0.3248
 6614TIP3    H244038   4.993   5.331   0.644 -0.5007 -0.5500 -0.0315
 6615TIP3   OH244039   1.053   1.426   0.939  0.5743 -0.7878  0.2413
 6615TIP3    H144040   1.022   1.513   0.912  0.3919 -1.0289 -0.3340
 6615TIP3    H244041   0.974   1.375   0.953  0.6877 -1.3605 -1.0859
 6616TIP3   OH244042   0.382   0.781   1.650 -0.1902 -0.3731 -0.1724
 6616TIP3    H144043   0.313   0.848   1.647 -0.6380 -0.8148  0.0002
 6616TIP3    H244044   0.355   0.723   1.722 -0.7488 -1.7230 -1.4076
 6617TIP3   OH244045   0.427   2.029   1.450 -0.5235 -0.0583  0.6252
 6617TIP3    H144046   0.347   1.976   1.443 -0.2292 -0.4314 -0.0086
 6617TIP3    H244047   0.436   2.047   1.543 -0.3042 -1.6276  0.9363
 6618TIP3   OH244048   3.188   5.196   1.788  0.0249  1.1418  0.2832
 6618TIP3    H144049   3.168   5.103   1.788  0.0823  1.0967 -1.7900
 6618TIP3    H244050   3.235   5.210   1.871 -0.7267 -0.4708  1.0254
 6619TIP3   OH244051   3.400   4.194   2.184 -0.6461  0.8872  0.3486
 6619TIP3    H144052   3.422   4.133   2.114 -0.6296 -2.0136  2.6663
 6619TIP3    H244053   3.481   4.244   2.199 -0.0121  0.0809 -0.2871
 6620TIP3   OH244054   6.646   3.862   0.506  0.2908 -0.1494  0.4132
 6620TIP3    H144055   6.552   3.849   0.519  0.0163  0.2563 -1.0440
 6620TIP3    H244056   6.687   3.791   0.556 -0.8183 -0.9902  0.1615
 6621TIP3   OH244057   4.566   6.603   2.438 -0.3933  0.2769 -0.4505
 6621TIP3    H144058   4.525   6.569   2.517 -1.3620 -2.0926 -1.8807
 6621TIP3    H244059   4.659   6.612   2.461 -1.0134  2.2881  1.7212
 6622TIP3   OH244060   2.670   3.767   2.049 -0.2620  0.2789  0.2973
 6622TIP3    H144061   2.638   3.852   2.021 -3.0736 -0.8040 -0.1475
 6622TIP3    H244062   2.603   3.735   2.110  0.7289 -1.5768  0.4875
 6623TIP3   OH244063   7.228   5.854   0.579  0.5377  0.0597 -0.0040
 6623TIP3    H144064   7.133   5.841   0.587  0.7019 -0.1818  2.2717
 6623TIP3    H244065   7.266   5.774   0.614  1.5512  1.3226  1.9855
 6624TIP3   OH244066   0.655   1.039   2.662 -0.0438  0.1243  0.5029
 6624TIP3    H144067   0.595   1.112   2.675 -1.6681 -0.9717 -0.4778
 6624TIP3    H244068   0.647   1.018   2.568  1.8124 -0.1204  0.3610
 6625TIP3   OH244069   0.482   6.229   0.769 -0.0069  0.1694 -0.9039
 6625TIP3    H144070   0.438   6.222   0.854  1.3934 -1.9037 -0.2789
 6625TIP3    H244071   0.410   6.239   0.706 -1.1622  0.3094  0.3797
 6626TIP3   OH244072   6.176   4.510   0.502 -0.1373 -0.2066 -0.0548
 6626TIP3    H144073   6.094   4.537   0.543  0.6389 -0.0719  1.4972
 6626TIP3    H244074   6.213   4.591   0.468 -0.2377 -0.1310  0.0153
 6627TIP3   OH244075   3.797   1.048   2.503 -0.4498  0.1153  0.4378
 6627TIP3    H144076   3.869   1.063   2.441  0.9979  0.1639  2.0717
 6627TIP3    H244077   3.765   1.136   2.523  0.6280  0.2958  1.4872
 6628TIP3   OH244078   4.981   1.869   2.684 -0.3929 -0.8977 -0.6300
 6628TIP3    H144079   5.064   1.884   2.639 -1.6645 -1.3892 -3.3487
 6628TIP3    H244080   4.915   1.903   2.623 -2.1465  1.3718  2.2948
 6629TIP3   OH244081   4.223   3.216   1.123 -0.0015  0.2553  0.0067
 6629TIP3    H144082   4.220   3.175   1.037 -1.5282 -0.3578  0.3277
 6629TIP3    H244083   4.225   3.144   1.185  0.6040  0.6880  0.4992
 6630TIP3   OH244084   2.917   5.595   2.631 -0.3773  0.2694  0.0121
 6630TIP3    H144085   2.961   5.564   2.710  1.0933  1.0481 -0.4604
 6630TIP3    H244086   2.853   5.527   2.611  0.5160 -0.8490  0.8140
 6631TIP3   OH244087   7.263   6.375   1.791 -0.1957 -0.7048  0.3054
 6631TIP3    H144088   7.189   6.322   1.822 -0.2710 -0.7227  0.0974
 6631TIP3    H244089   7.231   6.465   1.797  0.2229 -0.6261  1.4347
 6632TIP3   OH244090   1.907   1.823   2.126 -0.1116  0.2379  0.1906
 6632TIP3    H144091   1.935   1.879   2.054 -0.6416  0.0028 -0.2034
 6632TIP3    H244092   1.941   1.866   2.204  0.1643  0.6845 -0.1664
 6633TIP3   OH244093   3.967   5.304   2.776 -0.1597  0.6081  0.1972
 6633TIP3    H144094   3.888   5.300   2.723  0.0235  1.8586 -0.2150
 6633TIP3    H244095   3.954   5.239   2.845 -1.2949  0.4108 -0.1886
 6634TIP3   OH244096   4.656   0.667   2.257  0.2518 -0.1833  0.3456
 6634TIP3    H144097   4.701   0.751   2.264  0.0847  0.0539 -1.1225
 6634TIP3    H244098   4.718   0.603   2.292  0.4501  0.5230  1.3050
 6635TIP3   OH244099   1.049   0.080   1.006 -0.2181  0.1686 -0.0682
 6635TIP3    H144100   1.125   0.071   0.948 -0.9726 -0.6957 -0.9554
 6635TIP3    H244101   1.022  -0.010   1.023 -2.5511  0.4554 -1.8202
 6636TIP3   OH244102   6.454   6.893   1.831  0.0954 -0.1422  0.1747
 6636TIP3    H144103   6.505   6.925   1.756  0.3843 -0.2910  0.3085
 6636TIP3    H244104   6.512   6.832   1.875  0.1312  0.3635  0.8430
 6637TIP3   OH244105   1.584   0.984   2.312 -0.1039 -0.1786 -0.5318
 6637TIP3    H144106   1.678   0.979   2.294 -0.1527 -0.2731 -0.7629
 6637TIP3    H244107   1.572   1.070   2.352  0.0677 -0.1276 -0.5881
 6638TIP3   OH244108   6.779   6.514   0.848  0.2555  0.0411 -0.0599
 6638TIP3    H144109   6.769   6.570   0.925 -0.3945 -1.0987  0.7237
 6638TIP3    H244110   6.759   6.571   0.774 -0.1981  0.8931  0.6995
 6639TIP3   OH244111   0.662   1.259   2.279  0.8265 -0.2906  0.2005
 6639TIP3    H144112   0.645   1.293   2.367 -0.6190 -2.2701  0.7759
 6639TIP3    H244113   0.739   1.203   2.289  1.2394  0.2263 -0.0267
 6640TIP3   OH244114   0.699   6.301   0.952  0.1787  0.4636 -0.1894
 6640TIP3    H144115   0.663   6.248   0.881  1.2022 -0.2671 -0.1844
 6640TIP3    H244116   0.623   6.348   0.987 -0.7386 -0.8616 -0.3082
 6641TIP3   OH244117   3.090   0.061   1.858  0.0223  0.7555  0.0048
 6641TIP3    H144118   3.147   0.098   1.925 -1.1436 -0.0915  1.5367
 6641TIP3    H244119   3.001   0.075   1.892 -0.5508 -0.9233 -0.6938
 6642TIP3   OH244120   4.145   3.870   2.195 -0.4776  0.5564  0.7422
 6642TIP3    H144121   4.230   3.913   2.205 -0.7019  0.9466  1.0169
 6642TIP3    H244122   4.156   3.785   2.238  0.5930 -0.5408 -1.5663
 6643TIP3   OH244123   5.356   6.243   2.117 -0.5360  0.0082 -0.2099
 6643TIP3    H144124   5.314   6.167   2.156 -1.8652 -0.2145 -1.9419
 6643TIP3    H244125   5.298   6.316   2.139  0.2478  0.3949  0.6540
 6644TIP3   OH244126   0.001   0.575   2.741 -0.1498 -0.0241 -0.1129
 6644TIP3    H144127  -0.052   0.654   2.749 -0.2891 -0.2874  2.1648
 6644TIP3    H244128   0.083   0.605   2.702 -1.1436  0.7390 -1.7622
 6645TIP3   OH244129   2.763   2.072   1.805  0.3821  0.2516 -0.7321
 6645TIP3    H144130   2.744   2.145   1.865  0.9512  0.0769 -0.3325
 6645TIP3    H244131   2.717   1.998   1.844  0.1321  0.3055 -0.9228
 6646TIP3   OH244132   3.133   3.946   2.619  0.1484  0.1871 -0.0084
 6646TIP3    H144133   3.184   3.937   2.539 -1.0964  1.4014 -1.0124
 6646TIP3    H244134   3.167   4.025   2.661 -0.2360  0.4558 -0.1877
 6647TIP3   OH244135   7.414   6.452   0.942 -0.5279 -0.1609  0.0422
 6647TIP3    H144136   7.457   6.526   0.985 -0.2374 -0.0169 -0.4909
 6647TIP3    H244137   7.414   6.383   1.008 -0.7174  0.2799  0.5109
 6648TIP3   OH244138   2.204   3.035   2.244  0.0635  0.3411  0.1910
 6648TIP3    H144139   2.245   3.120   2.261 -0.6104  0.8062 -0.4575
 6648TIP3    H244140   2.168   3.008   2.329  2.0750 -0.3131  0.9114
 6649TIP3   OH244141   2.344   4.646   1.109 -0.7349 -0.1307  0.0142
 6649TIP3    H144142   2.299   4.686   1.035  0.9991 -1.6240 -1.9788
 6649TIP3    H244143   2.389   4.719   1.151  1.3656  0.3968 -2.7906
 6650TIP3   OH244144   6.581   2.623   0.469 -0.0690 -0.0843  0.7802
 6650TIP3    H144145   6.498   2.587   0.437  0.0860  2.0955 -2.4852
 6650TIP3    H244146   6.557   2.707   0.507  0.4511 -0.3505  1.7338
 6651TIP3   OH244147   5.896   1.483   0.608 -1.0886 -0.3873  0.5032
 6651TIP3    H144148   5.827   1.550   0.608  0.2355  1.0985 -1.1683
 6651TIP3    H244149   5.849   1.400   0.606 -2.9575  0.5593 -2.6802
 6652TIP3   OH244150   6.257   0.877   2.509  0.1025 -0.0822  0.1573
 6652TIP3    H144151   6.174   0.924   2.512 -0.5434 -1.2558  1.1162
 6652TIP3    H244152   6.285   0.884   2.417 -1.5416 -0.5230 -0.4021
 6653TIP3   OH244153   0.081   3.328   1.033  0.1971  0.2715 -0.3624
 6653TIP3    H144154   0.086   3.409   0.982  0.0088 -1.1092 -2.7212
 6653TIP3    H244155   0.012   3.277   0.991 -0.1707 -0.8502  1.5046
 6654TIP3   OH244156   1.868   4.821   1.715 -0.2217 -0.0196 -0.1163
 6654TIP3    H144157   1.869   4.863   1.629 -0.6211  1.5308  0.5929
 6654TIP3    H244158   1.955   4.784   1.725 -0.2481 -0.4083 -1.2741
 6655TIP3   OH244159   3.395   3.203   1.320  0.1752 -0.3602  0.1882
 6655TIP3    H144160   3.329   3.271   1.327 -0.4791 -0.9325 -0.2410
 6655TIP3    H244161   3.472   3.239   1.363 -0.7043 -0.0399  1.5692
 6656TIP3   OH244162   6.746   6.654   1.648  0.2758  0.3714 -0.2391
 6656TIP3    H144163   6.785   6.569   1.668 -1.3144 -0.2278  0.4983
 6656TIP3    H244164   6.821   6.713   1.637  1.3884 -0.5818  1.7033
 6657TIP3   OH244165   4.666   3.088   1.478  0.0659 -0.4084  0.2037
 6657TIP3    H144166   4.742   3.030   1.489  1.5511  1.0829 -1.5780
 6657TIP3    H244167   4.623   3.056   1.399  1.2710  1.2008 -1.1784
 6658TIP3   OH244168   5.639   6.842   0.997  0.2291  0.3703 -0.1468
 6658TIP3    H144169   5.598   6.895   1.066 -0.2026  0.2616 -0.3186
 6658TIP3    H244170   5.664   6.761   1.041 -0.3243  0.1778 -0.1888
 6659TIP3   OH244171   1.317   6.874   0.602 -0.7958 -0.1254  0.0881
 6659TIP3    H144172   1.335   6.966   0.621 -1.3631 -0.2601  1.3688
 6659TIP3    H244173   1.330   6.829   0.685  0.4264 -1.3816 -0.7417
 6660TIP3   OH244174   5.636   2.567   0.924 -0.0703 -0.1992 -0.0855
 6660TIP3    H144175   5.719   2.523   0.905 -0.7582 -2.1113  0.9752
 6660TIP3    H244176   5.593   2.509   0.987 -2.7546  0.0689 -1.5271
 6661TIP3   OH244177   6.623   3.616   2.778 -0.2667 -0.2702  0.5108
 6661TIP3    H144178   6.713   3.647   2.778 -0.0022 -1.0093  0.9527
 6661TIP3    H244179   6.591   3.634   2.866 -0.0254 -1.4592  0.8536
 6662TIP3   OH244180   1.897   7.471   2.949  0.5189  0.3562  0.0114
 6662TIP3    H144181   1.979   7.473   2.998  0.8965  0.8186 -0.6309
 6662TIP3    H244182   1.841   7.412   2.999  1.2169  0.0919  0.4942
 6663TIP3   OH244183   0.910   4.270   1.782  0.0243  0.3696  0.1616
 6663TIP3    H144184   0.968   4.277   1.706  0.8795  1.6207  0.9016
 6663TIP3    H244185   0.822   4.265   1.744  0.5395 -0.8299 -0.9545
 6664TIP3   OH244186   3.530   0.845   2.947  0.2952 -0.1413 -0.7610
 6664TIP3    H144187   3.584   0.870   3.022  0.3468 -1.2922 -0.3969
 6664TIP3    H244188   3.479   0.924   2.927  0.1394  0.1291  0.6010
 6665TIP3   OH244189   6.241   5.019   1.931  0.3764 -0.2872 -0.0551
 6665TIP3    H144190   6.168   4.962   1.954 -0.4632  0.1850 -1.4574
 6665TIP3    H244191   6.204   5.108   1.935  1.1452  0.0298  0.1887
 6666TIP3   OH244192   3.247   3.852   3.287  0.3072  0.2621  0.4686
 6666TIP3    H144193   3.314   3.872   3.222  0.3618  0.3685  0.5569
 6666TIP3    H244194   3.256   3.758   3.302 -0.3819  0.0419 -0.4258
 6667TIP3   OH244195   7.402   0.310   2.811  0.0883 -0.1382  0.4307
 6667TIP3    H144196   7.310   0.334   2.802  0.0335  0.7387  2.6768
 6667TIP3    H244197   7.450   0.392   2.803  0.6735 -0.5446 -0.4124
 6668TIP3   OH244198   3.052   3.643   0.603  0.5222  0.2564  0.3236
 6668TIP3    H144199   3.032   3.549   0.608  1.5097 -0.1461 -2.0729
 6668TIP3    H244200   2.974   3.682   0.563  0.3332  0.3827  0.8093
 6669TIP3   OH244201   7.299   0.007   2.774  0.6064 -0.4346 -0.3383
 6669TIP3    H144202   7.380   0.007   2.724  0.1905  0.7138 -1.0609
 6669TIP3    H244203   7.240   0.063   2.724  0.1829  0.8193  1.4721
 6670TIP3   OH244204   3.090   0.148   2.194  0.1930 -0.0167  0.2211
 6670TIP3    H144205   3.025   0.080   2.212 -0.7705  0.0731 -2.4751
 6670TIP3    H244206   3.073   0.216   2.259 -3.1090  0.3954 -0.8753
 6671TIP3   OH244207   7.479   1.751   0.627 -0.2663  0.4664 -0.0187
 6671TIP3    H144208   7.424   1.725   0.700  0.1084 -0.5776 -0.0819
 6671TIP3    H244209   7.568   1.727   0.654  0.0447  1.3210 -0.2664
 6672TIP3   OH244210   2.659   1.850   1.872 -0.3575 -0.3686 -0.1056
 6672TIP3    H144211   2.622   1.809   1.950 -0.8894 -1.9942 -1.1654
 6672TIP3    H244212   2.666   1.779   1.808  3.7541 -0.0204 -0.3170
 6673TIP3   OH244213   7.353   4.418   3.239 -0.1410 -0.0720 -0.2414
 6673TIP3    H144214   7.413   4.402   3.166  0.7848  0.1405  0.4497
 6673TIP3    H244215   7.303   4.337   3.247 -0.5920  0.0739 -1.4076
 6674TIP3   OH244216   7.149   3.162   1.353  0.3898 -0.1389 -0.1170
 6674TIP3    H144217   7.062   3.197   1.331  1.0716  1.4591 -0.4037
 6674TIP3    H244218   7.141   3.132   1.443 -0.8235 -1.3087 -0.5717
 6675TIP3   OH244219   2.159   1.799   3.688 -0.1732 -0.0337  0.1456
 6675TIP3    H144220   2.232   1.785   3.628 -0.4622  0.4130 -0.3151
 6675TIP3    H244221   2.201   1.814   3.773  0.3191  0.9561 -0.2515
 6676TIP3   OH244222   3.811   1.690   0.918  0.2010 -0.6350  0.0155
 6676TIP3    H144223   3.882   1.727   0.971 -0.8088 -0.9446  1.6291
 6676TIP3    H244224   3.768   1.767   0.879  0.3208 -0.3396  0.4616
 6677TIP3   OH244225   0.676   4.024   2.925  0.3312 -0.8102  0.5757
 6677TIP3    H144226   0.755   4.076   2.911 -0.5017  1.2165  2.7794
 6677TIP3    H244227   0.708   3.937   2.950  1.8344 -0.1938  0.8720
 6678TIP3   OH244228   1.474   5.495   2.547  0.2897  0.0119  0.1418
 6678TIP3    H144229   1.544   5.446   2.589 -0.7338  0.0732  2.0147
 6678TIP3    H244230   1.424   5.533   2.619 -0.8335  1.1701 -1.1712
 6679TIP3   OH244231   6.729   2.117   1.058 -0.2948  0.2015  0.0088
 6679TIP3    H144232   6.711   2.068   0.977 -0.6818  0.0860  0.1632
 6679TIP3    H244233   6.807   2.076   1.094 -1.7440 -1.6955  1.2124
 6680TIP3   OH244234   3.251   2.565   1.689 -0.7631  0.0842 -0.2646
 6680TIP3    H144235   3.222   2.564   1.781  1.7106 -1.7400  0.6079
 6680TIP3    H244236   3.199   2.497   1.647 -1.6947  0.7188 -0.1891
 6681TIP3   OH244237   4.545   5.656   1.463  0.3101 -0.2426 -0.4924
 6681TIP3    H144238   4.512   5.692   1.381  0.0428  0.1218 -0.2258
 6681TIP3    H244239   4.481   5.588   1.487 -0.4801  0.7178  0.2179
 6682TIP3   OH244240   6.026   3.658   1.602 -0.2988  0.3928  0.0066
 6682TIP3    H144241   6.002   3.703   1.683 -2.6591  0.3487 -0.6061
 6682TIP3    H244242   5.997   3.568   1.616  0.7757 -0.0224 -0.3036
 6683TIP3   OH244243   7.489   3.906   1.954  0.2751  0.4634  0.2931
 6683TIP3    H144244   7.538   3.968   2.009  1.7867 -0.5883  0.2057
 6683TIP3    H244245   7.515   3.929   1.865  0.4144  0.0492  0.2282
 6684TIP3   OH244246   2.509   6.088   1.380  0.0826  0.1504 -0.2469
 6684TIP3    H144247   2.490   6.153   1.311 -0.2720 -0.3462 -0.6276
 6684TIP3    H244248   2.546   6.139   1.451 -0.4367  0.8180 -0.4405
 6685TIP3   OH244249   5.380   3.594   0.705 -0.5921 -0.1142 -0.5766
 6685TIP3    H144250   5.378   3.687   0.727  0.4172 -0.3681  0.7211
 6685TIP3    H244251   5.473   3.570   0.710 -0.8521 -1.2138 -0.7795
 6686TIP3   OH244252   4.172   2.759   1.253  0.9125  0.5247  0.1795
 6686TIP3    H144253   4.141   2.753   1.163 -0.3424 -0.2398  0.6524
 6686TIP3    H244254   4.098   2.792   1.302  1.6698  1.1836  0.9161
 6687TIP3   OH244255   4.176   5.283   3.457  0.8172  0.1287 -0.0506
 6687TIP3    H144256   4.217   5.205   3.419  0.1320 -0.6562  0.7902
 6687TIP3    H244257   4.094   5.293   3.409  0.1815 -0.5791  0.8549
 6688TIP3   OH244258   7.277   3.246   2.098 -0.6012  0.1726 -0.0631
 6688TIP3    H144259   7.289   3.329   2.143 -0.9264  0.0725  0.2208
 6688TIP3    H244260   7.189   3.218   2.124 -1.2330  0.6372 -1.6384
 6689TIP3   OH244261   0.696   4.609   0.824 -0.1542 -0.2075  0.1777
 6689TIP3    H144262   0.673   4.626   0.915 -1.2242 -0.2123 -0.0785
 6689TIP3    H244263   0.779   4.562   0.828  0.9601  1.7484  1.0407
 6690TIP3   OH244264   4.489   1.858   3.113  0.1718  0.1910  0.2715
 6690TIP3    H144265   4.511   1.839   3.204  0.7219 -1.5924 -0.1818
 6690TIP3    H244266   4.463   1.773   3.077  0.3735  0.7782 -1.3413
 6691TIP3   OH244267   2.459   0.234   0.926  0.5828 -0.2348 -0.7373
 6691TIP3    H144268   2.483   0.142   0.921 -0.7026 -0.6839  0.4885
 6691TIP3    H244269   2.400   0.248   0.852  1.7860 -0.0388 -1.6806
 6692TIP3   OH244270   4.415   4.821   2.933 -0.1755  0.1237 -0.2525
 6692TIP3    H144271   4.470   4.823   3.011  0.5020 -0.7610 -0.6956
 6692TIP3    H244272   4.332   4.783   2.963  0.1481 -0.3922  0.0011
 6693TIP3   OH244273   4.865   3.775   1.010 -0.0265  0.4080  0.0504
 6693TIP3    H144274   4.865   3.828   1.089 -1.2569 -1.1150  1.1250
 6693TIP3    H244275   4.862   3.839   0.939  2.5699  1.8518  1.1101
 6694TIP3   OH244276   4.059   4.724   3.495  0.2341  0.1277 -0.2923
 6694TIP3    H144277   4.136   4.755   3.543  0.2978 -1.0197  0.3573
 6694TIP3    H244278   4.019   4.804   3.461  0.8041  0.8637  0.7320
 6695TIP3   OH244279   6.550   0.929   2.086 -0.4401  0.0152  0.3574
 6695TIP3    H144280   6.601   0.891   2.158 -1.0437 -0.2283  0.6659
 6695TIP3    H244281   6.572   1.022   2.089  0.3327 -0.1544  0.1918
 6696TIP3   OH244282   5.151   2.428   2.107  1.2224 -0.8113 -0.5273
 6696TIP3    H144283   5.096   2.409   2.032  1.5046 -0.0379 -0.9419
 6696TIP3    H244284   5.154   2.524   2.111  0.1510 -0.7965  1.2446
 6697TIP3   OH244285   1.106   0.808   0.678 -0.3388 -0.2458  0.7156
 6697TIP3    H144286   1.106   0.781   0.770  0.4344 -0.7084  0.5858
 6697TIP3    H244287   1.092   0.902   0.681  0.5755 -0.1115  1.3613
 6698TIP3   OH244288   1.801   7.022   1.764 -0.3306  0.0682  0.1770
 6698TIP3    H144289   1.871   7.056   1.820  0.9871 -1.2515 -0.5934
 6698TIP3    H244290   1.805   7.077   1.685 -0.0633 -0.0854  0.0817
 6699TIP3   OH244291   5.453   2.106   0.486 -0.2194 -0.0752 -0.0440
 6699TIP3    H144292   5.543   2.139   0.494 -0.3662  0.1989  0.5625
 6699TIP3    H244293   5.400   2.172   0.530 -0.8993  0.5026 -1.6656
 6700TIP3   OH244294   5.903   1.724   2.819 -0.2490 -0.5425 -0.0924
 6700TIP3    H144295   5.876   1.692   2.733 -0.8593  1.2707 -0.6248
 6700TIP3    H244296   5.821   1.732   2.868  0.0787 -1.3958  0.6121
 6701TIP3   OH244297   7.186   0.620   2.508  0.2035 -0.5163  0.0803
 6701TIP3    H144298   7.202   0.642   2.600  1.7957  0.0312 -0.2963
 6701TIP3    H244299   7.169   0.704   2.466 -0.8165 -0.7960 -0.0921
 6702TIP3   OH244300   1.936   2.551   2.558 -0.2070 -0.5326 -0.0063
 6702TIP3    H144301   1.870   2.620   2.553 -2.0018 -2.0743  0.8448
 6702TIP3    H244302   1.921   2.498   2.479 -0.0264 -0.9201  0.2165
 6703TIP3   OH244303   3.714   7.496   0.619 -0.4775 -0.0736 -0.1266
 6703TIP3    H144304   3.715   7.403   0.599 -0.6880 -0.0782 -0.1189
 6703TIP3    H244305   3.622   7.521   0.612 -0.3440  0.2580 -0.6835
 6704TIP3   OH244306   2.511   3.684   2.301  0.2801 -0.0339 -0.2288
 6704TIP3    H144307   2.573   3.635   2.355 -0.1862 -0.7543 -0.3270
 6704TIP3    H244308   2.518   3.775   2.332  3.0906  0.3931 -1.8249
 6705TIP3   OH244309   2.338   0.973   1.164 -0.2673 -0.0221 -0.7803
 6705TIP3    H144310   2.344   0.877   1.165  0.1052 -0.0012  0.0544
 6705TIP3    H244311   2.244   0.991   1.157 -0.4897 -0.4644  0.7593
 6706TIP3   OH244312   3.004   1.983   1.159 -0.4123  0.4917  0.2775
 6706TIP3    H144313   3.061   2.036   1.103 -1.8751 -0.2115 -2.0268
 6706TIP3    H244314   2.975   2.043   1.228 -0.6647  2.2385 -1.2742
 6707TIP3   OH244315   3.977   5.094   1.586  0.0395  0.2412  0.2674
 6707TIP3    H144316   3.942   5.182   1.592  2.6305  1.4841 -1.1194
 6707TIP3    H244317   3.941   5.059   1.504 -0.9151  0.0197  0.7714
 6708TIP3   OH244318   2.007   1.051   1.658 -0.1273  0.2206  0.3422
 6708TIP3    H144319   2.082   1.000   1.689 -0.2475 -2.3784 -3.0376
 6708TIP3    H244320   2.045   1.124   1.609  0.1578  0.0020  0.2388
 6709TIP3   OH244321   3.170   4.232   3.561  0.6567 -0.5783  0.6665
 6709TIP3    H144322   3.233   4.161   3.555 -0.3735 -1.4248 -0.8977
 6709TIP3    H244323   3.104   4.211   3.495 -0.3164  1.2036  1.0057
 6710TIP3   OH244324   5.580   2.601   1.506  0.1006  0.0235  0.3673
 6710TIP3    H144325   5.656   2.563   1.552  0.1098 -0.9335 -0.3916
 6710TIP3    H244326   5.573   2.690   1.540 -0.8563 -1.0878  3.3954
 6711TIP3   OH244327   6.091   6.276   3.094  0.4458 -0.5415 -0.1987
 6711TIP3    H144328   6.081   6.261   3.188 -0.8229  2.2671  0.2025
 6711TIP3    H244329   6.150   6.206   3.065  1.5421 -1.0190  2.8179
 6712TIP3   OH244330   6.959   4.372   1.277  0.2124  0.0256  0.0918
 6712TIP3    H144331   6.880   4.406   1.320  1.5299  0.7001  2.1832
 6712TIP3    H244332   6.979   4.291   1.325 -0.0276 -0.9737 -1.4448
 6713TIP3   OH244333   6.911   6.532   1.913 -0.0980  0.2014  0.1317
 6713TIP3    H144334   6.908   6.516   2.007  0.7451  0.5774  0.2291
 6713TIP3    H244335   6.975   6.602   1.903 -0.2234  0.1993 -0.7192
 6714TIP3   OH244336   4.475   2.783   0.916  0.0963 -0.0362 -0.0952
 6714TIP3    H144337   4.471   2.873   0.884 -1.1542 -0.5491 -1.4817
 6714TIP3    H244338   4.567   2.769   0.939  0.8973  0.7175 -2.5594
 6715TIP3   OH244339   0.503   1.300   3.079 -0.3817  0.8813  0.7753
 6715TIP3    H144340   0.520   1.269   3.168  1.7427  0.1491  0.1523
 6715TIP3    H244341   0.417   1.263   3.057 -1.1394  1.4041  2.6173
 6716TIP3   OH244342   6.253   5.551   2.929  0.2743  0.4055 -0.1892
 6716TIP3    H144343   6.265   5.469   2.880 -0.1371  0.7901 -0.9509
 6716TIP3    H244344   6.169   5.539   2.973  0.5937  0.1015  0.3446
 6717TIP3   OH244345   2.170   6.764   0.961 -0.6103  0.1087 -0.1477
 6717TIP3    H144346   2.116   6.782   1.038  0.7869  0.7251  0.7311
 6717TIP3    H244347   2.136   6.823   0.893  0.4814  2.3163  1.1181
 6718TIP3   OH244348   2.125   3.711   2.142  0.3785  0.1818  0.3418
 6718TIP3    H144349   2.101   3.636   2.088  2.4718  0.3747 -0.9645
 6718TIP3    H244350   2.042   3.752   2.165 -0.6630 -0.7847 -1.4911
 6719TIP3   OH244351   2.476   4.064   1.633 -0.1681  0.5587  0.0265
 6719TIP3    H144352   2.433   4.092   1.552 -0.4813 -0.7816 -0.2919
 6719TIP3    H244353   2.529   3.988   1.607 -1.4392 -0.8494  1.3361
 6720TIP3   OH244354   5.148   3.613   1.006  0.1983  0.4007 -0.3777
 6720TIP3    H144355   5.087   3.686   0.997 -0.7631 -0.1660  1.2160
 6720TIP3    H244356   5.227   3.652   1.043 -0.8355  0.4655  1.9255
 6721TIP3   OH244357   1.903   4.870   1.449  0.3287 -0.1329  0.0190
 6721TIP3    H144358   1.885   4.959   1.419  1.5721  0.0359 -0.2936
 6721TIP3    H244359   1.998   4.864   1.450  0.2702 -1.2100  0.8090
 6722TIP3   OH244360   6.265   7.278   1.295  0.1801  0.3443  0.2462
 6722TIP3    H144361   6.323   7.323   1.233 -0.1940  1.3946  0.6339
 6722TIP3    H244362   6.310   7.286   1.379  0.2313 -0.2416  0.2766
 6723TIP3   OH244363   4.387   4.850   1.583 -0.5812  0.5519 -0.3182
 6723TIP3    H144364   4.437   4.897   1.650 -1.1731  0.1108  0.4453
 6723TIP3    H244365   4.398   4.757   1.606  0.5557  0.2775 -1.7906
 6724TIP3   OH244366   2.871   4.387   2.082  0.1919  0.3105  0.3793
 6724TIP3    H144367   2.954   4.338   2.081  0.0520  0.0761 -0.2278
 6724TIP3    H244368   2.861   4.414   2.174  2.1492  2.4395  0.0723
 6725TIP3   OH244369   3.703   4.650   1.673 -0.1252  1.1001 -0.1565
 6725TIP3    H144370   3.734   4.661   1.763 -0.9348  0.6011  0.1971
 6725TIP3    H244371   3.620   4.699   1.670  0.9738  3.0184 -1.2858
 6726TIP3   OH244372   4.103   0.775   1.222  0.0652  0.0448 -0.3211
 6726TIP3    H144373   4.188   0.808   1.193 -0.6920  0.7344 -1.9123
 6726TIP3    H244374   4.042   0.804   1.154 -1.0603 -2.4890 -0.5144
 6727TIP3   OH244375   0.098   1.494   2.587  0.2788  0.4044 -0.4772
 6727TIP3    H144376   0.044   1.455   2.518  0.4371  0.3541 -0.5741
 6727TIP3    H244377   0.036   1.520   2.654  0.2252 -0.6438 -0.0948
 6728TIP3   OH244378   1.539   5.748   2.488 -0.3228 -0.0469 -0.2342
 6728TIP3    H144379   1.531   5.761   2.394 -0.7086 -0.1871 -0.2211
 6728TIP3    H244380   1.531   5.654   2.500 -0.0227 -0.0539 -0.0855
 6729TIP3   OH244381   1.197   0.373   2.408 -0.0568 -0.1625 -0.2229
 6729TIP3    H144382   1.287   0.345   2.422  0.1918 -0.1860 -1.7209
 6729TIP3    H244383   1.204   0.462   2.374 -0.6496  0.1364  0.4045
 6730TIP3   OH244384   7.507   1.889   2.009  0.3115  0.7451  0.2758
 6730TIP3    H144385   7.499   1.956   1.941  1.3581  0.1385 -0.4738
 6730TIP3    H244386   7.599   1.892   2.035  0.0775  0.4830  1.1664
 6731TIP3   OH244387   6.989   5.869   0.824  0.0629  0.7437  0.4871
 6731TIP3    H144388   6.937   5.810   0.878 -3.1327  2.3805 -0.5380
 6731TIP3    H244389   6.977   5.837   0.735  0.4678  1.4080  0.1898
 6732TIP3   OH244390   6.560   4.971   2.038 -0.3512 -0.1724  0.0574
 6732TIP3    H144391   6.552   5.053   1.990 -0.7480 -1.1710 -1.6331
 6732TIP3    H244392   6.524   4.905   1.980 -1.0949 -1.4116  1.8465
 6733TIP3   OH244393   3.200   0.798   3.370  0.2496  0.4602  0.3568
 6733TIP3    H144394   3.215   0.893   3.369  0.7681  0.3786 -0.0136
 6733TIP3    H244395   3.124   0.785   3.313  1.0556  0.5179 -0.7636
 6734TIP3   OH244396   0.705   0.106   2.902  0.6019 -0.3312 -0.5820
 6734TIP3    H144397   0.703   0.038   2.969  0.5193 -0.7651 -1.0258
 6734TIP3    H244398   0.620   0.100   2.858  0.1824  0.7229  0.0316
 6735TIP3   OH244399   0.399   7.336   2.242 -0.3128  0.1686  0.3078
 6735TIP3    H144400   0.492   7.354   2.259 -0.5328  1.6511  0.0647
 6735TIP3    H244401   0.393   7.241   2.243  1.1213  0.0526  0.8164
 6736TIP3   OH244402   3.406   5.046   0.737 -0.2345  0.2503 -0.6244
 6736TIP3    H144403   3.393   4.977   0.801  0.1390  0.3277 -0.4620
 6736TIP3    H244404   3.500   5.048   0.722  0.0151  2.0070  0.8254
 6737TIP3   OH244405   2.780   3.197   0.726 -0.2457  0.0138  0.1123
 6737TIP3    H144406   2.703   3.253   0.714 -0.7683 -1.0700 -2.2561
 6737TIP3    H244407   2.745   3.114   0.756  0.1380 -0.0945  0.2632
 6738TIP3   OH244408   7.412   4.687   1.146 -0.6064  0.2672 -0.1549
 6738TIP3    H144409   7.335   4.674   1.201  0.2369 -1.0948  0.7888
 6738TIP3    H244410   7.380   4.677   1.057 -1.6664  0.5651  0.1832
 6739TIP3   OH244411   7.357   5.191   2.453 -0.2621  0.1669 -0.7156
 6739TIP3    H144412   7.363   5.097   2.473 -2.6028 -0.0321 -0.6560
 6739TIP3    H244413   7.446   5.224   2.468  0.7554 -2.1070 -1.2344
 6740TIP3   OH244414   1.860   5.104   1.337 -0.5573 -0.1679  0.4440
 6740TIP3    H144415   1.919   5.179   1.348 -0.4984 -0.1186 -0.2076
 6740TIP3    H244416   1.785   5.140   1.290 -0.3641 -0.6025 -0.1941
 6741TIP3   OH244417   2.743   2.938   0.481  0.0243  0.2375  0.0440
 6741TIP3    H144418   2.811   3.004   0.494  1.3776 -0.9400 -0.6964
 6741TIP3    H244419   2.692   2.939   0.562  1.4070  0.6434  0.9424
 6742TIP3   OH244420   7.315   3.564   1.270 -0.3484 -0.2560 -0.6883
 6742TIP3    H144421   7.316   3.503   1.344 -0.7324 -0.0904 -0.5460
 6742TIP3    H244422   7.399   3.609   1.275 -0.2004 -0.5382 -0.5985
 6743TIP3   OH244423   0.780   6.706   1.311  0.4932  0.4313 -0.6345
 6743TIP3    H144424   0.787   6.653   1.232  0.2736  0.8098 -0.9146
 6743TIP3    H244425   0.757   6.794   1.279 -0.5914  0.3662 -0.0979
 6744TIP3   OH244426   2.623   1.732   3.152  0.9142  0.6038 -0.8647
 6744TIP3    H144427   2.715   1.748   3.172  0.4667  0.5000  1.6116
 6744TIP3    H244428   2.576   1.765   3.229 -0.9350 -1.2643 -1.1181
 6745TIP3   OH244429   7.404   1.691   2.663 -0.0087  0.0611  0.2779
 6745TIP3    H144430   7.460   1.699   2.740 -0.6674  0.5227  0.7158
 6745TIP3    H244431   7.319   1.724   2.691 -0.6755 -1.1638 -0.2016
 6746TIP3   OH244432   6.577   3.207   2.049 -0.1200  0.0663  0.2870
 6746TIP3    H144433   6.653   3.253   2.013 -0.4577  0.6378  0.2979
 6746TIP3    H244434   6.506   3.227   1.988  0.1555 -2.0350 -0.8138
 6747TIP3   OH244435   0.931   2.568   2.582 -0.0474 -0.3759 -0.5467
 6747TIP3    H144436   0.996   2.498   2.574 -0.8642 -1.0619 -1.5312
 6747TIP3    H244437   0.906   2.567   2.674  0.8859 -0.4989 -0.2782
 6748TIP3   OH244438   1.299   0.478   1.724  0.5987  0.2848 -0.2654
 6748TIP3    H144439   1.347   0.561   1.731 -0.4780  0.9125  0.0534
 6748TIP3    H244440   1.309   0.437   1.809 -0.6733  1.1539  0.3436
 6749TIP3   OH244441   4.031   2.709   0.719  0.1740  0.1562  0.5541
 6749TIP3    H144442   4.120   2.673   0.718  0.6257  0.7290 -3.9593
 6749TIP3    H244443   4.034   2.779   0.653 -3.8141 -0.3653 -0.3804
 6750TIP3   OH244444   3.164   6.762   2.562  0.1203  0.0406 -0.0665
 6750TIP3    H144445   3.086   6.796   2.517  0.1828 -1.0481 -1.0251
 6750TIP3    H244446   3.220   6.729   2.491  0.4795 -1.1751  0.7601
 6751TIP3   OH244447   5.816   6.031   1.812  0.3633  0.0717 -0.1760
 6751TIP3    H144448   5.735   6.072   1.840  1.3948  1.2865  1.1666
 6751TIP3    H244449   5.821   5.950   1.862  0.2699  0.2901  0.1847
 6752TIP3   OH244450   3.954   0.236   2.585  0.1270  0.0446  0.5640
 6752TIP3    H144451   4.000   0.211   2.665  1.1773  1.7338  0.5223
 6752TIP3    H244452   4.023   0.255   2.522 -0.5700  2.5627  0.4660
 6753TIP3   OH244453   0.463   3.239   1.335  0.3841  0.2426 -0.0870
 6753TIP3    H144454   0.512   3.254   1.254 -0.1131  0.0642 -0.4210
 6753TIP3    H244455   0.372   3.236   1.308  0.1701  0.7597  0.5652
 6754TIP3   OH244456   0.945   3.531   1.126  0.3435 -0.1929  0.0746
 6754TIP3    H144457   0.896   3.593   1.072  0.8795 -0.4573 -0.7419
 6754TIP3    H244458   0.998   3.481   1.063  2.8834  1.1546  1.0188
 6755TIP3   OH244459   6.517   0.193   2.136 -0.5313 -0.0004 -0.4589
 6755TIP3    H144460   6.493   0.100   2.135 -1.2283  0.1197  1.4406
 6755TIP3    H244461   6.454   0.235   2.078 -0.6625 -0.6212 -0.7728
 6756TIP3   OH244462   1.289   2.054   1.812  0.5087  0.1513  0.3514
 6756TIP3    H144463   1.345   2.000   1.866 -0.3234 -2.4268 -1.1936
 6756TIP3    H244464   1.315   2.034   1.722  0.1811  2.4090 -0.3214
 6757TIP3   OH244465   5.491   0.033   0.490  0.5085  0.2378 -0.3651
 6757TIP3    H144466   5.504   0.093   0.416  0.7668  2.2419  1.2236
 6757TIP3    H244467   5.441   0.084   0.554  0.0254 -1.5375  0.7410
 6758TIP3   OH244468   0.921   1.140   2.686  0.6062 -0.2192  0.1170
 6758TIP3    H144469   0.831   1.116   2.707 -0.7978  3.4090 -1.1125
 6758TIP3    H244470   0.925   1.138   2.590  0.7059  2.9186 -0.0236
 6759TIP3   OH244471   1.463   1.063   2.647  0.3415 -0.0214  0.1994
 6759TIP3    H144472   1.511   1.110   2.579  1.2759  0.9349  1.4565
 6759TIP3    H244473   1.531   1.020   2.699 -0.1009  1.2137  1.9140
 6760TIP3   OH244474   2.619   2.059   2.640  0.8170 -0.0047  0.0007
 6760TIP3    H144475   2.602   2.082   2.731 -1.4500 -0.1595 -0.3448
 6760TIP3    H244476   2.537   2.023   2.608  2.3384 -2.5605 -1.3669
 6761TIP3   OH244477   1.559   2.797   3.109  0.3281  0.0388  0.2087
 6761TIP3    H144478   1.618   2.786   3.034  0.2889  0.8026  0.0633
 6761TIP3    H244479   1.597   2.869   3.158 -0.5068  0.5566  0.1015
 6762TIP3   OH244480   2.107   1.292   1.014 -0.3354 -0.4346  0.3925
 6762TIP3    H144481   2.062   1.345   0.948 -0.6359 -1.1826 -0.0146
 6762TIP3    H244482   2.078   1.203   0.996 -1.5925 -0.4978  2.4573
 6763TIP3   OH244483   7.459   4.852   0.631 -0.3914 -0.0575  0.3644
 6763TIP3    H144484   7.459   4.829   0.724 -1.6813 -0.5688  0.2542
 6763TIP3    H244485   7.367   4.851   0.606 -0.1099  0.6944 -0.7769
 6764TIP3   OH244486   4.466   7.313   1.630 -0.0952 -0.4627  0.3033
 6764TIP3    H144487   4.427   7.394   1.665  1.1242 -0.2972  1.3635
 6764TIP3    H244488   4.438   7.245   1.692 -0.4069 -0.7129 -0.1065
 6765TIP3   OH244489   0.195   3.218   1.283 -0.4044  0.1656  0.6052
 6765TIP3    H144490   0.215   3.125   1.282  1.8344  0.6012 -0.3577
 6765TIP3    H244491   0.139   3.232   1.207 -0.3818 -0.3226  0.4988
 6766TIP3   OH244492   5.445   3.567   2.024  0.3718  0.0948  0.3576
 6766TIP3    H144493   5.366   3.531   2.063  0.6656  0.4437  1.2964
 6766TIP3    H244494   5.517   3.518   2.064  0.6717  0.2737  0.0557
 6767TIP3   OH244495   3.685   7.401   1.079  0.0286 -0.0945 -0.4077
 6767TIP3    H144496   3.592   7.380   1.067 -0.2701  0.1110  1.2066
 6767TIP3    H244497   3.698   7.481   1.028 -0.6328 -0.2313 -0.8086
 6768TIP3   OH244498   0.377   0.791   2.327  0.3311 -0.8010 -0.1168
 6768TIP3    H144499   0.415   0.730   2.263  0.7366 -0.7963  0.1177
 6768TIP3    H244500   0.446   0.804   2.392  0.4261  0.3026 -0.4219
 6769TIP3   OH244501   3.681   6.516   1.914  0.3203 -0.1057  0.2860
 6769TIP3    H144502   3.687   6.452   1.985 -1.8497 -0.1537  0.5056
 6769TIP3    H244503   3.622   6.476   1.851 -1.7907  1.9580  0.8126
 6770TIP3   OH244504   7.452   6.040   2.302 -0.3546 -0.1290  0.0866
 6770TIP3    H144505   7.473   5.960   2.350  1.4191 -1.1283 -2.1990
 6770TIP3    H244506   7.486   6.026   2.214  0.7939  3.4554 -0.2346
 6771TIP3   OH244507   5.954   4.179   1.740  0.1023 -0.0728 -0.1958
 6771TIP3    H144508   6.018   4.130   1.687  0.4410 -0.2082  0.3283
 6771TIP3    H244509   5.991   4.267   1.748 -0.5092  0.2846 -1.1415
 6772TIP3   OH244510   6.615   7.193   1.434  0.4260 -0.3695  0.6222
 6772TIP3    H144511   6.536   7.237   1.466  0.0492 -1.6240  1.4905
 6772TIP3    H244512   6.687   7.242   1.474  0.1215  0.7488 -0.1317
 6773TIP3   OH244513   0.444   1.777   2.391 -0.7434 -0.3923  0.4006
 6773TIP3    H144514   0.354   1.766   2.422 -0.8861  2.5002  1.2496
 6773TIP3    H244515   0.486   1.833   2.456  1.0042  0.1958 -1.1333
 6774TIP3   OH244516   1.285   1.240   0.646  0.3113 -0.0990  0.3137
 6774TIP3    H144517   1.317   1.168   0.592 -0.4171  0.4485 -0.8757
 6774TIP3    H244518   1.252   1.305   0.584  2.3168  1.9579  1.2535
 6775TIP3   OH244519   3.937   3.734   1.586  0.0344 -0.3493  0.2842
 6775TIP3    H144520   3.872   3.707   1.652 -1.3940  0.5529 -0.7088
 6775TIP3    H244521   3.913   3.684   1.508 -0.7947  1.4939 -0.6972
 6776TIP3   OH244522   2.129   0.378   1.089 -0.2246 -0.4995  0.4281
 6776TIP3    H144523   2.109   0.406   0.999 -1.4828 -1.8884  0.2315
 6776TIP3    H244524   2.223   0.365   1.089 -0.0594  0.5314 -0.3862
 6777TIP3   OH244525   1.792   6.648   0.750 -0.7191  0.1635 -0.0318
 6777TIP3    H144526   1.791   6.590   0.827 -0.8028  1.0256  0.6331
 6777TIP3    H244527   1.850   6.604   0.688  1.8663  0.8815  1.6954
 6778TIP3   OH244528   2.627   5.403   1.367 -0.0959  0.9458 -0.2723
 6778TIP3    H144529   2.691   5.453   1.417 -1.8028  0.5067  2.5320
 6778TIP3    H244530   2.663   5.314   1.364 -0.2310  0.8507  0.6967
 6779TIP3   OH244531   3.957   0.622   2.550 -0.2915 -0.3143 -0.1171
 6779TIP3    H144532   4.025   0.582   2.496  0.0254 -0.7400  0.5899
 6779TIP3    H244533   3.920   0.550   2.600  0.6991  0.3140  1.6232
 6780TIP3   OH244534   1.701   5.246   0.855  0.5592  0.0014 -0.0470
 6780TIP3    H144535   1.621   5.197   0.838  0.7373 -0.6563  0.9088
 6780TIP3    H244536   1.675   5.338   0.856 -0.0234 -0.1556 -0.5439
 6781TIP3   OH244537   2.794   0.256   1.796  0.6226 -0.0547 -0.2322
 6781TIP3    H144538   2.787   0.306   1.877 -0.4815  1.5629 -1.2892
 6781TIP3    H244539   2.798   0.164   1.825  1.0228  0.5199  1.6620
 6782TIP3   OH244540   3.912   0.036   1.324  0.0436 -0.3613 -0.0164
 6782TIP3    H144541   3.977   0.000   1.384  0.1575 -0.5773 -0.2680
 6782TIP3    H244542   3.913  -0.023   1.249 -0.9887 -0.8041  0.3031
 6783TIP3   OH244543   3.427   7.164   1.044 -0.1643 -0.1757  0.0529
 6783TIP3    H144544   3.444   7.143   0.952 -0.2704  0.2635 -0.0655
 6783TIP3    H244545   3.388   7.251   1.043 -1.3269 -0.6697  0.4193
 6784TIP3   OH244546   1.346   3.801   2.352  0.1679  0.2952 -0.4653
 6784TIP3    H144547   1.374   3.804   2.261 -0.2672 -1.4655 -0.6869
 6784TIP3    H244548   1.260   3.759   2.350  0.4439 -0.3887  0.8160
 6785TIP3   OH244549   5.167   1.174   0.345  0.1628 -0.2105  0.0910
 6785TIP3    H144550   5.086   1.153   0.299  1.1916 -1.3533 -1.3058
 6785TIP3    H244551   5.207   1.089   0.363  0.2181  0.2408  2.4034
 6786TIP3   OH244552   2.387   6.295   3.254  0.3029 -0.6379 -0.2629
 6786TIP3    H144553   2.424   6.286   3.166  0.9215  1.0516 -0.2297
 6786TIP3    H244554   2.460   6.275   3.313  0.4662  0.1787 -0.1725
 6787TIP3   OH244555   2.005   0.296   1.316 -0.1853 -0.0965  0.3378
 6787TIP3    H144556   2.031   0.331   1.231 -1.5106  1.7160  0.6127
 6787TIP3    H244557   2.080   0.245   1.346  0.9494  0.6362 -1.1573
 6788TIP3   OH244558   2.103   2.184   2.917 -0.0718  0.1104 -0.1204
 6788TIP3    H144559   2.058   2.244   2.857 -0.8092 -0.3201 -0.0112
 6788TIP3    H244560   2.149   2.122   2.861 -0.2302  0.1010 -0.2398
 6789TIP3   OH244561   1.006   5.534   0.790 -0.3046  0.2356  0.6024
 6789TIP3    H144562   1.027   5.546   0.698  0.7865 -1.0643  0.6567
 6789TIP3    H244563   0.928   5.479   0.790  0.6214 -1.1271  0.4359
 6790TIP3   OH244564   2.270   1.844   1.958 -0.2508  0.3425  0.4941
 6790TIP3    H144565   2.298   1.762   1.999 -2.1275  0.1858  1.5707
 6790TIP3    H244566   2.293   1.912   2.022  0.2001  0.5299  0.1377
 6791TIP3   OH244567   3.430   5.129   1.979  0.5674  0.2972  0.4320
 6791TIP3    H144568   3.501   5.084   1.934 -0.1023 -0.2222 -0.1212
 6791TIP3    H244569   3.464   5.148   2.066  1.7032  0.8624 -0.1229
 6792TIP3   OH244570   5.321   7.345   2.191  0.3099 -0.0311 -0.5552
 6792TIP3    H144571   5.311   7.440   2.181 -0.0589 -0.0226 -0.1483
 6792TIP3    H244572   5.233   7.310   2.176  0.1187 -0.1686  0.7357
 6793TIP3   OH244573   4.032   2.650   2.801  0.5615 -0.0773  0.1364
 6793TIP3    H144574   4.114   2.658   2.850  0.3080  1.0398  0.3898
 6793TIP3    H244575   3.964   2.648   2.868  0.1787  1.9176 -0.1376
 6794TIP3   OH244576   3.640   4.797   3.041  0.3635 -0.5702 -0.2210
 6794TIP3    H144577   3.688   4.719   3.012  0.2468 -1.7012  2.3357
 6794TIP3    H244578   3.553   4.764   3.065 -0.6776  0.9027 -1.7850
 6795TIP3   OH244579   0.735   6.397   2.549  0.0721 -0.0203 -0.4153
 6795TIP3    H144580   0.819   6.407   2.593 -0.4562 -0.6327  0.7970
 6795TIP3    H244581   0.670   6.404   2.620 -0.9614  1.4797 -1.4533
 6796TIP3   OH244582   6.851   0.404   1.476 -0.0174 -0.3472  0.2040
 6796TIP3    H144583   6.765   0.397   1.517 -1.1152  0.2865 -1.8911
 6796TIP3    H244584   6.843   0.475   1.414  2.0259 -0.3161 -0.0970
 6797TIP3   OH244585   2.884   3.175   2.536  0.2805 -0.2059  0.1453
 6797TIP3    H144586   2.920   3.121   2.466 -0.5551 -1.1103  0.3792
 6797TIP3    H244587   2.845   3.250   2.491  0.7628 -0.1863 -0.2519
 6798TIP3   OH244588   0.247   7.078   2.774  0.5097  0.0695 -0.3445
 6798TIP3    H144589   0.287   7.118   2.852 -1.0963  1.4165 -0.1705
 6798TIP3    H244590   0.317   7.079   2.709  1.3757  0.4814  0.5505
 6799TIP3   OH244591   0.793   4.295   2.558  0.0961 -0.6540  0.1028
 6799TIP3    H144592   0.808   4.283   2.464  1.7928 -0.9241  0.3835
 6799TIP3    H244593   0.754   4.213   2.586 -1.3994 -0.1933 -0.5338
 6800TIP3   OH244594   1.317   1.911   2.955 -0.4693  0.0298 -0.1945
 6800TIP3    H144595   1.312   1.918   3.051 -0.3085  0.6959 -0.2289
 6800TIP3    H244596   1.284   1.823   2.936  1.7758 -1.0998  0.6707
 6801TIP3   OH244597   3.832   2.923   2.783  0.2108 -0.3401  0.2391
 6801TIP3    H144598   3.828   2.942   2.877 -1.7534  0.2328  0.0782
 6801TIP3    H244599   3.809   2.830   2.777 -3.2499  0.3865  0.1641
 6802TIP3   OH244600   1.335   2.004   1.137  0.1150  0.5447  0.0916
 6802TIP3    H144601   1.286   2.040   1.063  1.3790 -0.7685 -1.4635
 6802TIP3    H244602   1.424   1.994   1.104  0.9662  0.8345  2.1396
 6803TIP3   OH244603   0.443   3.404   0.495 -1.1301 -0.2277  0.1531
 6803TIP3    H144604   0.350   3.418   0.512 -1.4312 -1.3392 -0.4745
 6803TIP3    H244605   0.486   3.481   0.533 -2.2488  0.0546  0.9019
 6804TIP3   OH244606   1.695   1.734   0.623  0.1983  0.1865  0.7268
 6804TIP3    H144607   1.747   1.728   0.704  0.0858  1.8340  0.9525
 6804TIP3    H244608   1.735   1.806   0.574 -0.4176 -0.0809 -0.1902
 6805TIP3   OH244609   0.818   1.233   1.616 -0.1717  0.1132  0.0448
 6805TIP3    H144610   0.873   1.311   1.612  0.8817 -0.4557  2.0944
 6805TIP3    H244611   0.733   1.264   1.647 -0.7289  0.8206 -1.9983
 6806TIP3   OH244612   0.618   3.330   1.081 -0.8278  0.3310  0.6089
 6806TIP3    H144613   0.623   3.422   1.055 -1.7618 -0.1051 -1.2676
 6806TIP3    H244614   0.534   3.300   1.047  0.8993 -2.1063 -1.9829
 6807TIP3   OH244615   3.210   1.057   3.479 -0.3521  0.8766  0.4005
 6807TIP3    H144616   3.295   1.079   3.516 -0.5143  1.2747  0.5502
 6807TIP3    H244617   3.163   1.013   3.550  0.3959 -1.0692 -0.2640
 6808TIP3   OH244618   0.789   0.452   1.809 -0.1362 -0.0438  0.1978
 6808TIP3    H144619   0.694   0.447   1.799 -0.0795 -1.9343  0.2504
 6808TIP3    H244620   0.824   0.437   1.721  0.1220  1.3400  0.0497
 6809TIP3   OH244621   0.470   1.772   1.216 -0.2755  0.7030  0.2207
 6809TIP3    H144622   0.532   1.844   1.211  0.8015 -0.1814  0.5975
 6809TIP3    H244623   0.390   1.811   1.252 -0.2592  2.0351 -1.1133
 6810TIP3   OH244624   7.185   1.926   1.665 -0.5492 -0.1200 -0.1195
 6810TIP3    H144625   7.126   1.934   1.740 -0.0708  2.5684  0.0579
 6810TIP3    H244626   7.127   1.912   1.590 -1.4550  2.0326  0.1143
 6811TIP3   OH244627   3.425   1.173   1.262 -0.1199 -0.0976 -0.3424
 6811TIP3    H144628   3.515   1.199   1.243 -0.7201 -0.3780 -4.2609
 6811TIP3    H244629   3.430   1.078   1.276  0.5065  0.2787  2.7628
 6812TIP3   OH244630   2.801   7.330   1.182 -0.2075  0.3072 -0.2446
 6812TIP3    H144631   2.793   7.345   1.276 -0.8160 -0.8325 -0.0926
 6812TIP3    H244632   2.854   7.250   1.174 -0.8001 -0.0434 -0.8286
 6813TIP3   OH244633   4.182   6.473   1.438  0.3690  0.3363  0.1265
 6813TIP3    H144634   4.269   6.468   1.398  0.3860 -1.5093  0.2823
 6813TIP3    H244635   4.137   6.542   1.390  1.0571 -0.4661 -1.7816
 6814TIP3   OH244636   6.433   0.096   1.475 -0.1569 -0.1400  0.5646
 6814TIP3    H144637   6.499   0.112   1.542  0.0623  1.0111  0.0900
 6814TIP3    H244638   6.464   0.144   1.398 -0.8957 -0.6405 -0.0700
 6815TIP3   OH244639   5.298   6.659   0.622  0.3764 -1.1547 -0.1605
 6815TIP3    H144640   5.361   6.667   0.693 -0.7080 -0.5320  0.7580
 6815TIP3    H244641   5.242   6.735   0.631 -0.1112 -1.3432 -1.3746
 6816TIP3   OH244642   4.843   3.488   1.039  0.2493  0.2356  0.0939
 6816TIP3    H144643   4.831   3.579   1.013 -0.5162  0.2624  0.5103
 6816TIP3    H244644   4.793   3.438   0.974 -1.5849  0.2964  1.3960
 6817TIP3   OH244645   6.579   1.396   2.589 -0.0509  0.4396 -0.5952
 6817TIP3    H144646   6.533   1.479   2.600  0.3983  0.6425 -0.2021
 6817TIP3    H244647   6.647   1.397   2.657 -0.7745 -0.7528  0.2011
 6818TIP3   OH244648   7.322   5.621   0.663 -0.1664  0.2865 -0.6761
 6818TIP3    H144649   7.259   5.549   0.656 -0.0804  0.2800 -1.4744
 6818TIP3    H244650   7.398   5.582   0.706 -0.1524 -0.0833 -1.0328
 6819TIP3   OH244651   4.168   5.304   0.330 -0.5592 -0.3719 -0.1219
 6819TIP3    H144652   4.208   5.349   0.404 -0.0809 -1.9983  0.6709
 6819TIP3    H244653   4.116   5.371   0.286 -0.7208  0.6838  1.5775
 6820TIP3   OH244654   3.261   2.330   3.199  0.4501 -0.1911 -0.5035
 6820TIP3    H144655   3.273   2.260   3.263 -2.9230 -0.6603 -0.2007
 6820TIP3    H244656   3.266   2.411   3.250 -0.2737 -0.4725  0.0348
 6821TIP3   OH244657   0.774   2.820   1.693  0.0771 -0.1261 -0.2640
 6821TIP3    H144658   0.748   2.910   1.672 -1.2128 -0.6344 -0.9970
 6821TIP3    H244659   0.752   2.810   1.786 -0.3498  0.1413 -0.3306
 6822TIP3   OH244660   4.871   1.839   1.226  0.2078 -0.0813  0.4259
 6822TIP3    H144661   4.820   1.900   1.173  0.3984 -1.3854 -1.3316
 6822TIP3    H244662   4.956   1.835   1.183  1.2831  0.7599  2.3368
 6823TIP3   OH244663   0.970   5.722   3.271  0.0995 -0.0600  0.1554
 6823TIP3    H144664   0.905   5.702   3.203  0.3432  1.1006 -0.4302
 6823TIP3    H244665   1.036   5.653   3.262  0.1289  0.0802 -0.7898
 6824TIP3   OH244666   4.429   4.001   7.780  0.2771  0.8243 -0.1951
 6824TIP3    H144667   4.468   4.087   7.793  0.4099  0.7036  0.2270
 6824TIP3    H244668   4.421   3.965   7.868 -0.4617  0.7021 -0.3022
 6825TIP3   OH244669   2.743   3.371   1.920  0.0059 -0.5022  0.0599
 6825TIP3    H144670   2.791   3.389   1.839  0.3097  0.3590  0.4158
 6825TIP3    H244671   2.661   3.331   1.891 -0.2362  0.5240 -0.7286
 6826TIP3   OH244672   5.642   5.651   0.386  0.1173 -0.0349 -0.2029
 6826TIP3    H144673   5.640   5.743   0.413 -0.7943 -0.4287  1.1347
 6826TIP3    H244674   5.735   5.630   0.383  0.3554  0.9725 -0.7503
 6827TIP3   OH244675   7.386   7.092   1.792  0.9120 -0.1105 -0.1303
 6827TIP3    H144676   7.480   7.110   1.788  1.2791 -0.6944  3.2145
 6827TIP3    H244677   7.349   7.148   1.724  3.7505 -1.0591 -2.7091
 6828TIP3   OH244678   5.729   0.346   2.065  0.0185  0.1483  0.4154
 6828TIP3    H144679   5.804   0.398   2.092  0.2728 -0.1444  0.2778
 6828TIP3    H244680   5.736   0.340   1.970  0.3909 -0.7244  0.4859
 6829TIP3   OH244681   6.843   6.643   3.056 -0.1345 -0.0546  0.3522
 6829TIP3    H144682   6.765   6.602   3.093 -0.3322  0.4379  0.4847
 6829TIP3    H244683   6.838   6.734   3.084  0.5286 -0.0370  0.4278
 6830TIP3   OH244684   6.769   1.747   0.703  0.2474  0.2687  0.2901
 6830TIP3    H144685   6.854   1.709   0.681  1.1625  0.0679  3.6288
 6830TIP3    H244686   6.786   1.840   0.714  0.6558 -0.0533  3.0903
 6831TIP3   OH244687   4.975   2.583   1.727 -0.5168  0.4292  0.0622
 6831TIP3    H144688   4.955   2.535   1.807  0.5081 -0.5262 -0.2170
 6831TIP3    H244689   5.014   2.665   1.756  0.9302 -0.4093  0.5638
 6832TIP3   OH244690   4.546   4.610   1.570 -0.7832 -0.5651  0.1051
 6832TIP3    H144691   4.457   4.588   1.598 -1.3370  0.5724 -0.6383
 6832TIP3    H244692   4.554   4.572   1.483  0.2535 -2.4783  0.9725
 6833TIP3   OH244693   6.207   7.377   0.600 -0.0786 -0.7156  0.0611
 6833TIP3    H144694   6.220   7.288   0.634  1.8888 -0.3823  0.2706
 6833TIP3    H244695   6.129   7.370   0.545  0.5079 -2.7623 -0.6007
 6834TIP3   OH244696   2.431   1.198   3.254 -0.1182 -0.3497 -0.1790
 6834TIP3    H144697   2.353   1.215   3.308 -1.1141 -1.3859 -1.2254
 6834TIP3    H244698   2.446   1.104   3.263 -0.3531 -0.5626 -1.7050
 6835TIP3   OH244699   6.151   2.896   1.347  0.4078  0.2217 -0.0073
 6835TIP3    H144700   6.196   2.829   1.399  0.2926 -0.9662 -1.4030
 6835TIP3    H244701   6.136   2.856   1.262  0.5353  2.1126 -0.9743
 6836TIP3   OH244702   7.236   5.826   1.603 -0.2839 -0.7458 -0.6510
 6836TIP3    H144703   7.179   5.761   1.564 -1.3688 -0.5997  0.6182
 6836TIP3    H244704   7.296   5.776   1.659 -0.7980 -0.7126 -0.0594
 6837TIP3   OH244705   1.018   0.569   3.359 -0.3132  0.4499  0.0665
 6837TIP3    H144706   0.942   0.512   3.351 -0.1447  0.3297 -0.9512
 6837TIP3    H244707   0.982   0.658   3.356 -0.3878  0.3988 -0.9610
 6838TIP3   OH244708   2.608   0.002   0.861 -0.2961  0.7582  0.3894
 6838TIP3    H144709   2.595  -0.071   0.922 -3.5920  1.3683  0.6131
 6838TIP3    H244710   2.646  -0.038   0.783 -3.4576 -1.6289 -0.1036
 6839TIP3   OH244711   4.160   2.303   1.987 -0.6282  0.1273  0.0866
 6839TIP3    H144712   4.134   2.211   1.982  0.5058 -0.2722  1.0464
 6839TIP3    H244713   4.092   2.345   2.040 -1.8286  0.1419 -1.3910
 6840TIP3   OH244714   3.696   6.772   0.408 -0.5049  0.3913 -0.2916
 6840TIP3    H144715   3.768   6.834   0.413  0.5266 -0.8063  3.7695
 6840TIP3    H244716   3.738   6.688   0.387 -0.3917 -0.4310  2.6619
 6841TIP3   OH244717   4.185   7.180   2.370 -0.0852 -0.1143 -0.6637
 6841TIP3    H144718   4.264   7.142   2.408 -0.4588  1.7790  2.3863
 6841TIP3    H244719   4.114   7.125   2.402 -0.1440 -1.2525 -2.6182
 6842TIP3   OH244720   2.100   3.891   0.396  0.2361 -0.4581 -0.5828
 6842TIP3    H144721   2.027   3.856   0.446  1.5012  1.9638  3.4206
 6842TIP3    H244722   2.060   3.936   0.322 -2.2894 -0.0121  0.9551
 6843TIP3   OH244723   0.081   0.972   1.174 -0.4592  0.7598  0.5322
 6843TIP3    H144724   0.044   0.968   1.085  0.6186 -2.0261  0.1079
 6843TIP3    H244725   0.031   0.907   1.224  2.0801 -1.3396  0.5629
 6844TIP3   OH244726   4.718   3.928   2.005  0.4014 -0.3816 -0.4005
 6844TIP3    H144727   4.682   3.898   2.088 -1.4306 -0.3022 -1.1299
 6844TIP3    H244728   4.789   3.867   1.985  1.3336  0.0033  1.5207
 6845TIP3   OH244729   4.659   2.764   1.396 -0.0140 -0.3720  0.8180
 6845TIP3    H144730   4.586   2.773   1.335  0.7883 -2.0545 -0.5028
 6845TIP3    H244731   4.619   2.738   1.479 -0.9575 -0.5935  0.3036
 6846TIP3   OH244732   1.196   3.064   0.812 -0.3004  0.5769 -0.3633
 6846TIP3    H144733   1.213   2.984   0.761 -1.4160  0.8402 -1.1801
 6846TIP3    H244734   1.280   3.084   0.853  0.1869 -0.6063 -0.7380
 6847TIP3   OH244735   5.146   0.685   2.851  0.0189 -0.6834 -0.1447
 6847TIP3    H144736   5.093   0.759   2.819 -0.7242 -0.6790  1.0231
 6847TIP3    H244737   5.228   0.726   2.881 -0.2866 -0.3534  0.2600
 6848TIP3   OH244738   1.560   3.984   1.481  0.0270 -0.6789  0.0329
 6848TIP3    H144739   1.506   4.045   1.430  0.5208 -0.4862 -0.2654
 6848TIP3    H244740   1.646   3.986   1.438  0.0437 -1.6106 -0.0025
 6849TIP3   OH244741   1.154   3.220   2.161  0.0640 -0.1532  0.3259
 6849TIP3    H144742   1.121   3.306   2.188  0.9362  0.2378  0.1956
 6849TIP3    H244743   1.110   3.158   2.218 -0.1117  0.4374  0.8406
 6850TIP3   OH244744   4.072   2.688   2.511  0.2895 -0.0750  0.0258
 6850TIP3    H144745   4.046   2.691   2.603 -0.5808 -1.5075 -0.1395
 6850TIP3    H244746   3.991   2.664   2.465  0.9845 -0.5453 -0.9758
 6851TIP3   OH244747   6.842   5.189   0.974 -0.2571 -0.2135  0.0222
 6851TIP3    H144748   6.916   5.158   1.026  0.3901 -1.1414 -1.3922
 6851TIP3    H244749   6.774   5.123   0.988 -0.2221 -0.2547 -0.0023
 6852TIP3   OH244750   5.395   6.961   2.944 -0.2620  0.1027 -0.4369
 6852TIP3    H144751   5.401   6.959   3.040 -1.4654 -1.0093 -0.3509
 6852TIP3    H244752   5.373   6.871   2.920  0.2616  0.3208 -1.7844
 6853TIP3   OH244753   5.475   6.926   1.212  0.4648  0.4700  0.4312
 6853TIP3    H144754   5.420   6.990   1.166 -0.8954 -0.5052  0.6485
 6853TIP3    H244755   5.419   6.849   1.220  2.0392 -0.7082  0.2890
 6854TIP3   OH244756   2.632   3.535   3.261  0.7439 -0.1609  0.4610
 6854TIP3    H144757   2.694   3.509   3.193  0.3833  0.5734 -0.1634
 6854TIP3    H244758   2.586   3.611   3.225 -4.2442 -3.5308 -1.4646
 6855TIP3   OH244759   5.133   4.492   2.447  0.1129  0.8531  0.4801
 6855TIP3    H144760   5.093   4.579   2.453 -2.6390 -0.2458 -0.2906
 6855TIP3    H244761   5.102   4.457   2.363 -0.2415 -1.4617  1.4900
 6856TIP3   OH244762   7.326   7.186   0.779  0.4782 -0.0639 -0.8835
 6856TIP3    H144763   7.233   7.205   0.783  0.7539  1.2254  1.5059
 6856TIP3    H244764   7.332   7.091   0.789 -0.5925  0.0783  2.7839
 6857TIP3   OH244765   3.635   2.932   0.695  0.2324 -0.4689  0.4386
 6857TIP3    H144766   3.692   2.856   0.682 -1.1033 -1.4233 -0.0938
 6857TIP3    H244767   3.547   2.895   0.708 -0.4851  0.9871  0.0128
 6858TIP3   OH244768   3.219   3.478   1.726  0.0880 -0.5532 -0.2768
 6858TIP3    H144769   3.241   3.397   1.679  0.3321 -0.5407 -0.1873
 6858TIP3    H244770   3.218   3.452   1.818  0.3443 -0.4155 -0.2345
 6859TIP3   OH244771   4.579   1.150   1.806  0.0648 -0.3278  0.0399
 6859TIP3    H144772   4.611   1.084   1.745  0.7417 -0.1438  0.1810
 6859TIP3    H244773   4.636   1.141   1.883  0.5330  0.7646 -0.1538
 6860TIP3   OH244774   6.098   0.722   2.984 -0.3686 -0.3100 -0.4867
 6860TIP3    H144775   6.022   0.758   3.031 -1.0169 -0.6756 -1.2300
 6860TIP3    H244776   6.061   0.657   2.925  0.7705 -2.3141  0.8763
 6861TIP3   OH244777   3.295   1.853   1.874  0.0782 -0.1943 -0.7185
 6861TIP3    H144778   3.226   1.841   1.808  1.3428 -2.1083 -1.7922
 6861TIP3    H244779   3.372   1.877   1.823  0.8435 -0.7167  0.1734
 6862TIP3   OH244780   2.201   5.289   2.462  0.0321  0.0598  0.0010
 6862TIP3    H144781   2.264   5.344   2.415 -0.0765 -0.7410 -1.1185
 6862TIP3    H244782   2.219   5.306   2.554 -1.1371  3.3047 -0.2237
 6863TIP3   OH244783   0.197   2.127   2.566  0.4500  0.0980 -0.2813
 6863TIP3    H144784   0.266   2.070   2.600 -1.5169 -2.1319  0.2052
 6863TIP3    H244785   0.194   2.107   2.472  0.5439  0.2887 -0.3251
 6864TIP3   OH244786   6.902   4.791   1.301 -0.4628  0.1265  0.3389
 6864TIP3    H144787   6.942   4.726   1.359 -1.0367 -0.1769  0.4073
 6864TIP3    H244788   6.959   4.793   1.224  0.2973  0.5226  0.9027
 6865TIP3   OH244789   3.167   3.371   1.306  0.3837 -0.5715  0.1514
 6865TIP3    H144790   3.205   3.459   1.305  0.2043 -0.3540  3.3607
 6865TIP3    H244791   3.090   3.378   1.363 -2.3593 -1.9023 -2.9938
 6866TIP3   OH244792   7.389   3.649   1.562  0.5233 -0.0536 -0.7636
 6866TIP3    H144793   7.321   3.713   1.581  1.2307  0.6885 -0.6874
 6866TIP3    H244794   7.343   3.565   1.560 -0.1989  0.2966  0.3966
 6867TIP3   OH244795   1.103   1.843   0.982  0.2534  0.1319  0.0993
 6867TIP3    H144796   1.150   1.818   1.061  0.5905  0.1549 -0.0914
 6867TIP3    H244797   1.147   1.795   0.912 -0.1806 -0.0568 -0.0456
 6868TIP3   OH244798   6.670   0.687   3.070  0.0589 -0.3239  0.2395
 6868TIP3    H144799   6.605   0.617   3.064  0.9661 -1.3706  1.9057
 6868TIP3    H244800   6.753   0.642   3.086  1.0070  1.0459 -0.5978
 6869TIP3   OH244801   2.260   4.454   2.671 -0.4655 -0.0280 -0.1431
 6869TIP3    H144802   2.182   4.486   2.624  0.1518  1.2254 -0.3487
 6869TIP3    H244803   2.333   4.479   2.615  0.1559 -0.3813  0.4991
 6870TIP3   OH244804   2.831   6.718   1.517  0.2585 -0.3015 -0.3312
 6870TIP3    H144805   2.907   6.709   1.575  0.0737  0.4470  0.0406
 6870TIP3    H244806   2.827   6.812   1.499 -0.8720 -0.2716  0.0408
 6871TIP3   OH244807   5.890   5.791   1.944 -0.4092  0.1999  0.1659
 6871TIP3    H144808   5.854   5.803   2.032 -2.0888 -1.1177 -0.2946
 6871TIP3    H244809   5.864   5.703   1.919  1.6971 -0.1750 -0.9369
 6872TIP3   OH244810   5.670   4.657   1.668  0.1630 -0.2270 -0.6049
 6872TIP3    H144811   5.605   4.587   1.675 -0.6977  0.4791 -1.3387
 6872TIP3    H244812   5.745   4.615   1.625  1.1404 -1.6411  2.2457
 6873TIP3   OH244813   2.543   5.316   0.376  0.0675 -0.0325  0.5509
 6873TIP3    H144814   2.573   5.250   0.312 -0.2618  0.8818 -0.5843
 6873TIP3    H244815   2.526   5.266   0.456 -1.5241 -1.5666 -0.6750
 6874TIP3   OH244816   3.235   5.707   0.763 -0.3629 -0.1672  0.1569
 6874TIP3    H144817   3.208   5.626   0.806 -0.6657 -0.5124 -0.6531
 6874TIP3    H244818   3.232   5.686   0.670 -0.7108  0.8637 -0.0708
 6875TIP3   OH244819   6.770   3.669   1.286  0.6137 -0.1617  0.0807
 6875TIP3    H144820   6.855   3.627   1.275  1.6938  1.6336  1.1174
 6875TIP3    H244821   6.767   3.736   1.217 -1.7666 -2.7486 -2.6020
 6876TIP3   OH244822   0.009   3.655   2.082  0.1048 -0.3288  0.9683
 6876TIP3    H144823   0.103   3.666   2.096  0.1137 -0.4364  0.9906
 6876TIP3    H244824  -0.021   3.741   2.053  0.4787 -0.6719 -0.5125
 6877TIP3   OH244825   2.399   0.998   2.390 -0.5457 -0.0896  0.1287
 6877TIP3    H144826   2.453   0.919   2.397  1.1868  1.1472  1.3753
 6877TIP3    H244827   2.309   0.965   2.392  0.1241 -2.0608  0.1016
 6878TIP3   OH244828   1.596   5.817   2.784  0.1694  0.0572  0.5550
 6878TIP3    H144829   1.529   5.814   2.716  1.6094 -2.5689 -0.9290
 6878TIP3    H244830   1.550   5.794   2.865 -1.2871  1.7630  0.2903
 6879TIP3   OH244831   3.047   6.086   2.921  0.4861  0.2270 -0.4884
 6879TIP3    H144832   3.125   6.134   2.947  0.1994 -1.3005  3.9070
 6879TIP3    H244833   3.044   6.010   2.980 -3.1218 -1.0187 -1.9782
 6880TIP3   OH244834   4.625   0.876   0.738  1.1413  0.3245  0.5302
 6880TIP3    H144835   4.576   0.804   0.777 -1.7727  2.3366  0.9169
 6880TIP3    H244836   4.574   0.901   0.661  1.8235  2.2508  0.6534
 6881TIP3   OH244837   1.209   6.843   3.552  0.2145 -0.4779  0.1542
 6881TIP3    H144838   1.202   6.927   3.507  1.6124 -1.4135 -1.9766
 6881TIP3    H244839   1.119   6.813   3.561 -0.2343 -1.4247 -4.6397
 6882TIP3   OH244840   2.049   3.449   2.726  0.5278 -0.5386  0.2839
 6882TIP3    H144841   2.027   3.541   2.709 -2.4245 -1.5875 -2.3109
 6882TIP3    H244842   2.128   3.433   2.674 -0.6890 -0.1946 -1.7496
 6883TIP3   OH244843   2.647   6.105   2.775  0.0591 -0.0673 -0.0607
 6883TIP3    H144844   2.661   6.111   2.681  0.1534  1.2772  0.0242
 6883TIP3    H244845   2.677   6.017   2.798  1.6652  0.1861 -1.0210
 6884TIP3   OH244846   1.980   0.111   2.042  0.0937  0.0899  0.5762
 6884TIP3    H144847   1.985   0.174   1.971 -0.2639 -1.3565 -0.7766
 6884TIP3    H244848   1.895   0.127   2.083  0.1515  0.6931  0.4651
 6885TIP3   OH244849   3.460   0.054   1.016  0.0152 -0.0047  0.0006
 6885TIP3    H144850   3.392   0.116   0.991  0.6677  0.0789 -1.6659
 6885TIP3    H244851   3.523   0.057   0.944  0.7235 -1.6352  0.5143
 6886TIP3   OH244852   7.026   4.825   1.064 -0.1613 -0.0346 -0.2808
 6886TIP3    H144853   6.957   4.774   1.021  0.1635  0.8465 -1.9145
 6886TIP3    H244854   7.095   4.833   0.998  0.0129  2.0654  0.0823
 6887TIP3   OH244855   6.295   0.812   1.995  0.1713 -0.4121 -0.2236
 6887TIP3    H144856   6.218   0.843   1.947 -0.3175 -1.5614 -0.2188
 6887TIP3    H244857   6.356   0.886   1.994 -1.1714  0.7299  0.3087
 6888TIP3   OH244858   5.791   2.207   1.855  0.3394 -0.2098 -0.3217
 6888TIP3    H144859   5.707   2.247   1.834 -0.0246 -0.9267 -0.2369
 6888TIP3    H244860   5.815   2.244   1.940  0.0999 -0.0335 -0.3308
 6889TIP3   OH244861   4.504   1.939   0.521 -0.4131  0.1417 -0.6044
 6889TIP3    H144862   4.433   1.879   0.542 -0.2488  0.5882  1.4719
 6889TIP3    H244863   4.553   1.948   0.603 -0.0922  2.6171 -0.9820
 6890TIP3   OH244864   6.580   2.336   1.058  0.2493 -0.0303 -0.0312
 6890TIP3    H144865   6.630   2.380   1.127 -0.9406  0.6301  0.4391
 6890TIP3    H244866   6.615   2.247   1.056 -0.9593 -0.6657  2.7927
 6891TIP3   OH244867   3.198   4.227   0.990  0.3946 -0.1644 -0.0916
 6891TIP3    H144868   3.220   4.308   0.945 -0.0877  0.4667  0.7658
 6891TIP3    H244869   3.281   4.181   1.001  0.7920  0.6111  0.1560
 6892TIP3   OH244870   2.505   4.296   2.748 -0.1515 -0.0522  0.4777
 6892TIP3    H144871   2.546   4.379   2.772  1.6481 -0.9061  0.4734
 6892TIP3    H244872   2.412   4.318   2.738  0.5631  2.4605 -1.7687
 6893TIP3   OH244873   5.050   1.106   0.664  0.0604 -0.2534 -0.1626
 6893TIP3    H144874   5.052   1.191   0.620  1.6236  0.8807  1.9599
 6893TIP3    H244875   4.970   1.107   0.716 -0.2678 -0.3968 -0.6504
 6894TIP3   OH244876   3.860   1.524   2.287  0.0454 -0.6044  0.2308
 6894TIP3    H144877   3.842   1.457   2.221 -1.0129 -1.2186  1.1228
 6894TIP3    H244878   3.953   1.511   2.308  0.8540  0.5936 -2.1875
 6895TIP3   OH244879   1.441   4.388   1.700  0.5525  0.1344 -0.4683
 6895TIP3    H144880   1.528   4.347   1.702 -0.2674 -1.6752  1.3016
 6895TIP3    H244881   1.418   4.390   1.607  2.1166 -0.1546 -0.8931
 6896TIP3   OH244882   2.853   4.490   2.341 -0.4093  0.4558  0.4916
 6896TIP3    H144883   2.816   4.574   2.366 -0.0382 -0.0071  2.7808
 6896TIP3    H244884   2.859   4.440   2.422  1.1577 -1.0951 -0.4880
 6897TIP3   OH244885   3.742   6.395   2.189  0.1869 -0.5143 -0.0378
 6897TIP3    H144886   3.722   6.347   2.269  1.7147 -2.1825 -0.5881
 6897TIP3    H244887   3.729   6.487   2.212  0.5216 -0.9599  2.1194
 6898TIP3   OH244888   6.490   5.018   0.810  0.0982  0.0007  0.0478
 6898TIP3    H144889   6.464   5.105   0.783 -0.2244 -0.4175 -1.0238
 6898TIP3    H244890   6.466   5.013   0.903  0.1827  1.0608  0.1337
 6899TIP3   OH244891   1.032   3.420   3.045 -0.1859  0.1254  0.3717
 6899TIP3    H144892   0.950   3.467   3.062 -0.5287 -0.9154  1.8101
 6899TIP3    H244893   1.014   3.331   3.074  0.9640 -0.5028 -0.7859
 6900TIP3   OH244894   7.331   3.812   0.515 -0.3599  0.0794  0.9691
 6900TIP3    H144895   7.372   3.888   0.475 -1.3992  0.3652  0.4218
 6900TIP3    H244896   7.336   3.828   0.609 -0.7098  0.9125  0.8533
 6901TIP3   OH244897   0.844   7.039   0.527 -0.1049 -0.1628 -0.2672
 6901TIP3    H144898   0.920   7.024   0.584  0.5349 -0.5257 -1.2000
 6901TIP3    H244899   0.877   7.026   0.438 -1.1562  0.1271 -0.7162
 6902TIP3   OH244900   3.039   4.441   1.187 -0.3375 -0.4202 -0.3725
 6902TIP3    H144901   2.995   4.363   1.155 -0.8012 -1.0341  1.6313
 6902TIP3    H244902   3.105   4.408   1.249 -1.3407  0.7574  1.4269
 6903TIP3   OH244903   3.013   2.613   3.623  0.0699  0.1682 -0.4596
 6903TIP3    H144904   3.017   2.697   3.667  1.5144 -1.0015  1.8256
 6903TIP3    H244905   3.042   2.631   3.533 -0.3130  2.1704 -0.2156
 6904TIP3   OH244906   3.666   2.587   0.539 -0.3417  0.0427 -0.3718
 6904TIP3    H144907   3.738   2.598   0.601 -0.2035 -1.3139 -0.2565
 6904TIP3    H244908   3.705   2.542   0.464 -0.2399  2.6912 -2.0328
 6905TIP3   OH244909   3.151   4.247   2.129  0.0791  0.3668 -0.1281
 6905TIP3    H144910   3.245   4.232   2.121 -0.3745 -2.4890 -1.5146
 6905TIP3    H244911   3.133   4.231   2.222  1.0555  2.1528  0.4257
 6906TIP3   OH244912   7.360   2.708   1.729  0.1380  0.6760 -0.3594
 6906TIP3    H144913   7.432   2.770   1.745  2.3188 -1.6481 -0.6140
 6906TIP3    H244914   7.401   2.635   1.684 -2.5345 -0.5758 -0.9257
 6907TIP3   OH244915   6.577   1.390   1.371  0.1818 -0.0048 -0.0833
 6907TIP3    H144916   6.667   1.408   1.401 -0.2651  2.7068 -0.0918
 6907TIP3    H244917   6.567   1.444   1.292 -1.1167 -1.1381 -0.7276
 6908TIP3   OH244918   2.628   5.389   2.030 -0.5903 -0.4944  0.1129
 6908TIP3    H144919   2.693   5.455   2.055  1.1958 -2.9180  2.2775
 6908TIP3    H244920   2.568   5.384   2.104 -0.4623 -1.6076  0.1477
 6909TIP3   OH244921   3.244   4.490   2.020 -0.0264 -0.6447  0.4630
 6909TIP3    H144922   3.201   4.507   2.104 -1.8438 -0.4751 -0.4550
 6909TIP3    H244923   3.207   4.407   1.990  1.1922 -1.1019  0.1727
 6910TIP3   OH244924   1.563   0.586   1.434  0.7960  0.4481 -0.3296
 6910TIP3    H144925   1.537   0.498   1.405 -3.1355  0.4652  2.3577
 6910TIP3    H244926   1.534   0.644   1.364  0.6234 -0.1753 -0.7849
 6911TIP3   OH244927   0.325   2.071   1.144 -0.1383  0.2803 -0.0875
 6911TIP3    H144928   0.288   2.159   1.152 -0.3304  0.2170 -0.2518
 6911TIP3    H244929   0.258   2.013   1.180  0.6158  0.3117  1.4690
 6912TIP3   OH244930   1.303   6.760   1.237  0.1385 -0.0494  0.1426
 6912TIP3    H144931   1.302   6.838   1.182 -0.9457 -1.1772 -1.5036
 6912TIP3    H244932   1.216   6.759   1.279  0.1690 -0.3500  0.2025
 6913TIP3   OH244933   0.422   0.743   0.943 -0.0350 -0.1892 -0.1808
 6913TIP3    H144934   0.506   0.790   0.946 -0.1524  0.0910 -0.9403
 6913TIP3    H244935   0.381   0.762   1.027  0.5266 -0.0663  0.0733
 6914TIP3   OH244936   5.951   0.175   2.215 -0.4052  0.3460 -0.4887
 6914TIP3    H144937   5.921   0.199   2.127  1.1061  0.0154 -1.1188
 6914TIP3    H244938   6.041   0.146   2.203 -0.0948  0.4989  1.2169
 6915TIP3   OH244939   2.330   7.328   0.885  0.5615  0.2956 -0.3773
 6915TIP3    H144940   2.286   7.245   0.902  0.3992  0.5310  0.3943
 6915TIP3    H244941   2.410   7.304   0.839 -0.3172 -0.1501 -1.7551
 6916TIP3   OH244942   5.537   2.218   1.446 -0.3054 -0.0359 -0.5495
 6916TIP3    H144943   5.624   2.242   1.412  0.2410 -1.9366 -0.6481
 6916TIP3    H244944   5.476   2.253   1.382  0.6121 -1.8956 -2.5949
 6917TIP3   OH244945   4.373   6.349   0.924 -0.7245  0.2373 -0.5288
 6917TIP3    H144946   4.394   6.323   0.834 -0.1490 -0.9443 -0.0835
 6917TIP3    H244947   4.280   6.331   0.933 -0.5377 -0.8133 -0.5410
 6918TIP3   OH244948   6.612   3.536   1.847 -0.0085  0.3629  0.1038
 6918TIP3    H144949   6.579   3.591   1.919  0.2708 -0.4322  0.8628
 6918TIP3    H244950   6.538   3.478   1.827 -0.3121  1.0151 -0.7141
 6919TIP3   OH244951   5.048   5.351   0.906 -0.0208  0.0748  0.1890
 6919TIP3    H144952   5.002   5.268   0.905 -0.4460  0.2828  0.9561
 6919TIP3    H244953   5.131   5.332   0.950 -0.8212  0.3685  1.9241
 6920TIP3   OH244954   4.049   2.957   2.389 -0.3985  0.6929 -0.1475
 6920TIP3    H144955   4.042   2.867   2.423  1.4806  0.1377 -1.1524
 6920TIP3    H244956   3.991   3.008   2.447 -0.8272 -0.9938  0.9913
 6921TIP3   OH244957   2.737   5.827   2.780  0.8106 -0.1748 -0.9766
 6921TIP3    H144958   2.765   5.767   2.710  0.9234  0.3004 -1.3470
 6921TIP3    H244959   2.804   5.818   2.847  1.5567  0.4999 -1.5987
 6922TIP3   OH244960   5.857   2.349   2.078 -0.4583  0.8385  0.3552
 6922TIP3    H144961   5.945   2.374   2.105 -0.3218  0.5811  0.1556
 6922TIP3    H244962   5.811   2.432   2.067 -0.7350  0.9460  2.0473
 6923TIP3   OH244963   6.338   3.636   1.710 -0.1495 -0.3876 -0.5553
 6923TIP3    H144964   6.359   3.641   1.617 -0.1420 -0.8178 -0.5795
 6923TIP3    H244965   6.398   3.696   1.753  0.2812 -0.6690 -0.7607
 6924TIP3   OH244966   6.161   0.048   2.370 -0.0673 -0.7159 -0.4301
 6924TIP3    H144967   6.253   0.026   2.361 -0.2433 -0.8672 -2.1581
 6924TIP3    H244968   6.115  -0.035   2.355 -0.5278 -0.2995 -1.4457
 6925TIP3   OH244969   4.320   5.972   1.795 -0.3053 -0.1010  0.5566
 6925TIP3    H144970   4.385   5.907   1.771 -1.0693 -1.4110  1.8175
 6925TIP3    H244971   4.243   5.950   1.742 -0.5487 -0.1981  0.9459
 6926TIP3   OH244972   1.679   2.777   1.670 -0.1710 -0.3035  0.3496
 6926TIP3    H144973   1.629   2.811   1.745  1.1515  1.2943  0.5487
 6926TIP3    H244974   1.750   2.840   1.658 -0.9021  0.0651 -2.9144
 6927TIP3   OH244975   6.892   2.478   0.854 -0.1414 -0.1362 -0.2297
 6927TIP3    H144976   6.871   2.393   0.892 -0.2715 -0.7168 -1.5528
 6927TIP3    H244977   6.831   2.487   0.780  0.3187  0.7969 -0.5118
 6928TIP3   OH244978   3.180   3.849   1.467  0.3313 -0.0352  0.3412
 6928TIP3    H144979   3.185   3.937   1.432  0.5161 -0.8094 -1.6942
 6928TIP3    H244980   3.200   3.859   1.560 -2.1956  2.3813  0.7447
 6929TIP3   OH244981   4.962   1.764   2.917 -0.3139 -0.2136 -0.7872
 6929TIP3    H144982   4.983   1.823   2.844 -1.0906  0.8281 -0.2020
 6929TIP3    H244983   4.921   1.821   2.982 -0.3244 -1.2665  0.1516
 6930TIP3   OH244984   6.928   4.640   0.891 -0.5578  0.6237  0.6089
 6930TIP3    H144985   7.019   4.626   0.863  0.0743  3.3255  1.0872
 6930TIP3    H244986   6.877   4.586   0.830  1.2936 -0.5315 -0.0366
 6931TIP3   OH244987   6.231   2.470   1.369 -0.0007 -0.7772 -0.0640
 6931TIP3    H144988   6.199   2.380   1.366  4.0245 -2.4725  0.9250
 6931TIP3    H244989   6.283   2.480   1.290  1.0540  0.0054  0.6925
 6932TIP3   OH244990   7.205   6.341   3.087  0.6366  0.0883  0.5244
 6932TIP3    H144991   7.212   6.422   3.138 -0.3820 -0.3820  1.4622
 6932TIP3    H244992   7.293   6.303   3.090  1.0447  0.9930  0.3409
 6933TIP3   OH244993   0.568   2.386   0.602  0.0097  0.0526 -0.5189
 6933TIP3    H144994   0.652   2.411   0.642 -0.2583 -1.3443  0.9813
 6933TIP3    H244995   0.539   2.309   0.651 -2.3592  0.7195 -0.7597
 6934TIP3   OH244996   2.090   2.209   1.894  0.5377 -0.0149 -0.2055
 6934TIP3    H144997   2.137   2.215   1.811  0.4428  1.1406 -0.1873
 6934TIP3    H244998   2.150   2.244   1.960 -0.3695  1.6542 -0.2126
 6935TIP3   OH244999   1.153   6.126   2.879  0.7928  0.0174 -0.2486
 6935TIP3    H145000   1.146   6.093   2.969 -1.7218  0.2802 -0.2808
 6935TIP3    H245001   1.213   6.200   2.886 -1.1194  1.5228  1.7373
 6936TIP3   OH245002   7.162   5.944   1.024  0.4612  0.4113 -0.1111
 6936TIP3    H145003   7.121   5.925   0.940  0.4474  0.2939 -0.0778
 6936TIP3    H245004   7.096   5.921   1.089  0.1542  1.3123 -0.0923
 6937TIP3   OH245005   3.510   4.463   0.706  0.4488 -0.7708 -0.0716
 6937TIP3    H145006   3.492   4.555   0.684 -0.0104 -0.8006  0.1769
 6937TIP3    H245007   3.492   4.457   0.799 -1.0665 -1.4857 -0.3947
 6938TIP3   OH245008   3.105   4.733   2.134  0.5667 -0.8129 -0.4166
 6938TIP3    H145009   3.010   4.744   2.144  0.6525  2.6425 -1.9756
 6938TIP3    H245010   3.125   4.653   2.184 -2.5097  0.6042  3.7026
 6939TIP3   OH245011   6.018   3.388   1.512 -0.4059  0.1333  0.4235
 6939TIP3    H145012   5.982   3.447   1.446 -0.0079 -0.6100 -0.4787
 6939TIP3    H245013   5.985   3.301   1.489  0.7579 -0.3338  0.4445
 6940TIP3   OH245014   0.602   3.263   2.948  0.0818 -1.0482 -0.0599
 6940TIP3    H145015   0.602   3.345   2.996  1.8728 -1.4097  0.6374
 6940TIP3    H245016   0.511   3.250   2.922 -0.6999 -0.1144  1.9921
 6941TIP3   OH245017   4.435   1.723   2.377 -0.3328  0.2847  0.2099
 6941TIP3    H145018   4.388   1.756   2.300 -0.5312  1.4408  0.8072
 6941TIP3    H245019   4.369   1.722   2.446  0.0363 -0.0110  0.5615
 6942TIP3   OH245020   3.392   3.647   2.008  0.8233 -0.4176  0.3785
 6942TIP3    H145021   3.469   3.650   1.952  0.2493 -1.8589 -0.5506
 6942TIP3    H245022   3.359   3.557   1.999 -1.7621  0.4972 -0.4229
 6943TIP3   OH245023   6.246   2.898   1.853  0.2053 -0.1045 -0.5830
 6943TIP3    H145024   6.183   2.852   1.797  0.1674  1.0170 -1.4989
 6943TIP3    H245025   6.209   2.891   1.941 -1.1551  0.3909 -1.0769
 6944TIP3   OH245026   7.063   1.028   1.145  0.3004  0.0719 -0.0311
 6944TIP3    H145027   7.077   1.088   1.071 -2.4901  0.0107 -0.7274
 6944TIP3    H245028   6.987   1.064   1.190 -0.9643 -2.4582  0.0062
 6945TIP3   OH245029   6.689   1.746   2.114 -0.2751  0.0121  0.0324
 6945TIP3    H145030   6.698   1.763   2.020 -0.1530 -1.3006 -0.2019
 6945TIP3    H245031   6.663   1.831   2.150  1.0952  0.9046 -0.9713
 6946TIP3   OH245032   6.789   3.123   0.649  0.1154  0.0097  0.1924
 6946TIP3    H145033   6.869   3.176   0.642  0.4085 -0.0649  2.3763
 6946TIP3    H245034   6.795   3.082   0.735 -1.1554 -1.9122 -0.5735
 6947TIP3   OH245035   0.781   2.927   1.976  0.6195 -0.0838 -0.1527
 6947TIP3    H145036   0.856   2.981   1.951  0.2392  0.8166  0.6065
 6947TIP3    H245037   0.819   2.849   2.016  1.1538  0.7809  1.0611
 6948TIP3   OH245038   6.842   5.450   2.221  0.0291  0.1745  0.0454
 6948TIP3    H145039   6.792   5.370   2.237  0.8751  0.0043  2.1465
 6948TIP3    H245040   6.820   5.475   2.131 -1.3942 -1.5870 -0.1410
 6949TIP3   OH245041   2.648   3.229   3.393 -0.2255  0.1648 -0.1929
 6949TIP3    H145042   2.633   3.266   3.480 -0.7641  0.5397 -0.4334
 6949TIP3    H245043   2.596   3.285   3.335  0.5683  0.2601 -0.8263
 6950TIP3   OH245044   5.337   1.553   0.390  0.3111  0.5235  0.4153
 6950TIP3    H145045   5.313   1.615   0.321 -1.3107  0.5625  0.9672
 6950TIP3    H245046   5.356   1.607   0.466 -2.1091  0.3956  1.1998
 6951TIP3   OH245047   2.524   6.078   0.393  0.4741  0.4119  0.0014
 6951TIP3    H145048   2.613   6.107   0.372  1.7451 -1.6760  1.9926
 6951TIP3    H245049   2.521   5.988   0.362  0.1513 -0.5152  2.5222
 6952TIP3   OH245050   0.802   0.357   1.366  1.0338  0.0026  0.1286
 6952TIP3    H145051   0.780   0.424   1.300  2.3709  1.4811  1.1142
 6952TIP3    H245052   0.799   0.274   1.317 -1.2174  0.6603 -1.0045
 6953TIP3   OH245053   3.720   2.291   2.004  0.0388 -0.0051  0.0345
 6953TIP3    H145054   3.760   2.374   2.032 -0.5516 -0.0264  0.9788
 6953TIP3    H245055   3.654   2.317   1.940  1.0523  0.0937 -0.9916
 6954TIP3   OH245056   4.192   1.050   2.497  0.1015  0.2615  0.7045
 6954TIP3    H145057   4.210   1.011   2.583  1.8173 -0.0922  0.2135
 6954TIP3    H245058   4.140   0.984   2.451  0.8125 -0.3673  0.7923
 6955TIP3   OH245059   0.562   3.805   1.736 -0.2049  0.5583  0.0107
 6955TIP3    H145060   0.482   3.775   1.779  0.8341 -1.4832  0.6213
 6955TIP3    H245061   0.567   3.754   1.656  1.3248 -0.6551  0.8136
 6956TIP3   OH245062   5.258   2.243   0.605 -0.2086  0.0261  0.2492
 6956TIP3    H145063   5.256   2.315   0.668 -0.7973 -0.5321  0.8881
 6956TIP3    H245064   5.231   2.166   0.656 -4.1902  0.1276 -1.3987
 6957TIP3   OH245065   7.331   4.569   2.936  0.4903  0.1794  0.3425
 6957TIP3    H145066   7.277   4.613   3.003 -1.9854 -1.8003 -0.1912
 6957TIP3    H245067   7.291   4.594   2.853  0.8203 -0.7919 -0.1210
 6958TIP3   OH245068   4.898   0.391   1.990 -0.0653  0.2005 -0.2606
 6958TIP3    H145069   4.808   0.407   1.962  0.0791  0.8560 -0.3605
 6958TIP3    H245070   4.944   0.363   1.910  1.0425  4.7950 -1.5064
 6959TIP3   OH245071   6.513   0.620   2.351  0.7344 -0.5082  0.2419
 6959TIP3    H145072   6.491   0.602   2.260 -0.6697 -0.8267  0.6217
 6959TIP3    H245073   6.504   0.715   2.360  0.2469 -0.5445  0.1888
 6960TIP3   OH245074   6.979   1.414   0.729  0.4238 -0.0482 -0.2722
 6960TIP3    H145075   7.000   1.505   0.707 -0.7117  0.3749  0.2733
 6960TIP3    H245076   6.999   1.364   0.650  1.9050  0.5242 -0.2977
 6961TIP3   OH245077   0.808   0.195   2.568  0.2872 -0.1031  0.7795
 6961TIP3    H145078   0.776   0.213   2.479 -0.3603 -0.4196  0.9420
 6961TIP3    H245079   0.891   0.241   2.573  2.4838 -3.4122 -1.4175
 6962TIP3   OH245080   0.879   3.955   1.620 -0.4098 -0.1428 -0.0813
 6962TIP3    H145081   0.926   3.959   1.703 -1.5391 -0.2795  0.5926
 6962TIP3    H245082   0.922   4.020   1.565 -0.2530  0.6529  0.9430
 6963TIP3   OH245083   5.033   3.864   0.698 -0.3860  0.2915 -0.3822
 6963TIP3    H145084   5.004   3.880   0.608  0.0736 -0.0514 -0.5932
 6963TIP3    H245085   4.961   3.897   0.752 -0.7387  0.3475 -0.8764
 6964TIP3   OH245086   7.414   6.756   1.084  0.5189 -0.1765  0.5256
 6964TIP3    H145087   7.356   6.700   1.135  1.5349 -0.3126  1.5881
 6964TIP3    H245088   7.360   6.789   1.013 -0.6693 -0.8090  1.1085
 6965TIP3   OH245089   2.129   4.917   0.482 -0.5715  0.1218 -0.0699
 6965TIP3    H145090   2.203   4.977   0.496 -1.4065  0.9129  1.1128
 6965TIP3    H245091   2.064   4.969   0.436 -1.7341  0.5257  1.8998
 6966TIP3   OH245092   5.776   4.438   1.554  0.3300 -0.0851  0.2026
 6966TIP3    H145093   5.807   4.388   1.478 -0.6163  2.1967 -1.8404
 6966TIP3    H245094   5.706   4.384   1.591 -0.1670 -0.6659 -1.4675
 6967TIP3   OH245095   0.936   5.535   2.026  0.1222 -0.3397  0.0315
 6967TIP3    H145096   0.983   5.529   2.109 -0.0862  1.3145  0.3072
 6967TIP3    H245097   0.867   5.469   2.032  1.0887 -1.3275  0.4985
 6968TIP3   OH245098   2.678   0.003   3.281 -0.1534 -0.0401 -0.4211
 6968TIP3    H145099   2.720  -0.031   3.202  0.3188  0.4294 -0.3772
 6968TIP3    H245100   2.747   0.002   3.347  0.4342  2.7153 -0.8867
 6969TIP3   OH245101   2.766   6.755   0.530 -0.1614 -0.2586 -0.2548
 6969TIP3    H145102   2.845   6.745   0.584  0.3936 -1.9611 -1.2986
 6969TIP3    H245103   2.693   6.745   0.592  0.4539 -1.5082  0.3134
 6970TIP3   OH245104   5.347   3.830   1.124  0.7640  0.6005  0.3477
 6970TIP3    H145105   5.268   3.883   1.112 -0.9211 -1.8952 -0.2609
 6970TIP3    H245106   5.386   3.825   1.036 -0.6842 -1.4218 -0.2561
 6971TIP3   OH245107   7.266   1.253   2.863 -0.0574 -0.3329 -0.4200
 6971TIP3    H145108   7.343   1.310   2.876 -0.8001  1.1386 -1.9787
 6971TIP3    H245109   7.282   1.178   2.919  1.7834  0.6585  0.4873
 6972TIP3   OH245110   5.951   4.472   2.468 -0.1346  0.3829  0.1571
 6972TIP3    H145111   5.939   4.472   2.373 -1.1168 -1.2344  0.2437
 6972TIP3    H245112   5.893   4.541   2.500 -0.0195  0.7370 -0.3751
 6973TIP3   OH245113   6.318   0.133   1.032 -0.1820  0.1067 -0.0665
 6973TIP3    H145114   6.298   0.167   0.945 -0.0194  2.9855  0.9302
 6973TIP3    H245115   6.235   0.139   1.080  0.3333  1.1633  0.7318
 6974TIP3   OH245116   4.622   6.951   1.262  0.6363  0.2133 -0.5270
 6974TIP3    H145117   4.657   7.010   1.195  2.8389 -0.3049  0.1003
 6974TIP3    H245118   4.671   6.972   1.341 -0.0099 -1.0517  0.2429
 6975TIP3   OH245119   4.497   0.232   1.710  0.0418  0.1056  0.7153
 6975TIP3    H145120   4.548   0.281   1.646  0.5303 -2.5626 -1.1333
 6975TIP3    H245121   4.538   0.252   1.794  0.3504  2.5481  0.0654
 6976TIP3   OH245122   2.625   6.798   2.933 -0.0692 -0.0037 -0.5463
 6976TIP3    H145123   2.553   6.783   2.994  0.9299  0.0939  0.6870
 6976TIP3    H245124   2.663   6.712   2.917  0.8891  0.1908  0.5391
 6977TIP3   OH245125   3.890   2.409   1.330  0.4194  0.1482  0.6308
 6977TIP3    H145126   3.822   2.389   1.394  2.0696  0.0168  2.4281
 6977TIP3    H245127   3.948   2.334   1.332  0.0017 -0.3321 -1.8429
 6978TIP3   OH245128   4.923   2.977   1.547  0.4460  0.1772 -0.1805
 6978TIP3    H145129   4.952   2.890   1.519 -2.0634 -0.4281 -1.1931
 6978TIP3    H245130   4.961   3.037   1.481 -0.5920 -0.5770 -1.5040
 6979TIP3   OH245131   4.331   5.407   1.843 -0.2566  0.2865  0.5626
 6979TIP3    H145132   4.240   5.436   1.855  0.0619  1.0500  1.1892
 6979TIP3    H245133   4.377   5.438   1.921 -0.2804 -3.7127  2.4083
 6980TIP3   OH245134   2.233   1.879   3.962 -0.0593  0.2668 -0.5252
 6980TIP3    H145135   2.190   1.813   4.017 -1.9312  0.7852 -1.2952
 6980TIP3    H245136   2.325   1.853   3.962 -0.6862 -2.2322 -0.6305
 6981TIP3   OH245137   2.950   7.014   2.770 -0.4147  0.0378 -0.5249
 6981TIP3    H145138   2.868   7.010   2.722  0.2128 -0.7700 -1.5765
 6981TIP3    H245139   2.932   7.073   2.843 -1.3738  1.4117 -1.7985
 6982TIP3   OH245140   0.076   1.192   2.734 -0.2279 -0.3168  0.1859
 6982TIP3    H145141   0.028   1.271   2.758 -0.7392 -1.0912  1.8922
 6982TIP3    H245142   0.039   1.165   2.650 -1.4597  0.1641  0.5557
 6983TIP3   OH245143   2.571   0.579   3.549 -0.4130  0.1434 -0.2420
 6983TIP3    H145144   2.492   0.577   3.603 -1.4404  1.4182 -1.6260
 6983TIP3    H245145   2.570   0.665   3.508  1.8791  0.3011 -0.0928
 6984TIP3   OH245146   7.324   6.085   0.737 -0.1525  0.1128  0.5641
 6984TIP3    H145147   7.286   6.009   0.692  0.6782 -0.4925  0.8642
 6984TIP3    H245148   7.343   6.053   0.825  0.4366  0.5928  0.6160
 6985TIP3   OH245149   0.488   5.952   2.444  0.0693  0.6008 -0.5121
 6985TIP3    H145150   0.507   5.860   2.463 -0.6051  0.6257  0.3212
 6985TIP3    H245151   0.573   5.991   2.425  0.5575  0.1678  0.7120
 6986TIP3   OH245152   1.812   6.985   3.125 -0.1204 -0.0234  0.5671
 6986TIP3    H145153   1.753   6.957   3.195 -0.0546 -0.1942  0.5565
 6986TIP3    H245154   1.817   6.909   3.067  0.5085 -0.1951  0.8382
 6987TIP3   OH245155   3.711   5.967   2.063 -0.0267 -0.1855  0.0756
 6987TIP3    H145156   3.767   6.045   2.056 -0.0804 -0.2398 -1.2606
 6987TIP3    H245157   3.687   5.947   1.972 -1.0843 -0.9896  0.5158
 6988TIP3   OH245158   3.093   6.541   3.688 -0.0967  0.2007  0.3386
 6988TIP3    H145159   3.188   6.547   3.700  0.1075  1.8928 -1.6397
 6988TIP3    H245160   3.082   6.500   3.602 -1.1510  0.1315  0.4940
 6989TIP3   OH245161   3.594   5.700   0.779  0.3997 -0.0706 -0.6636
 6989TIP3    H145162   3.552   5.751   0.710 -1.0235 -0.9159 -0.4569
 6989TIP3    H245163   3.636   5.628   0.732  3.0698  1.5983 -1.0398
 6990TIP3   OH245164   5.854   0.581   1.395  0.1084 -0.2914 -0.6989
 6990TIP3    H145165   5.903   0.517   1.447  1.6138  0.1776 -1.4610
 6990TIP3    H245166   5.796   0.528   1.340  0.2519 -0.9103 -0.2717
 6991TIP3   OH245167   6.305   6.092   2.686  0.1371 -0.0157 -0.0292
 6991TIP3    H145168   6.269   6.046   2.761 -1.2403  0.5508 -0.3119
 6991TIP3    H245169   6.391   6.052   2.672  0.0036 -0.7884  1.2307
 6992TIP3   OH245170   4.947   2.894   0.787  1.0140 -0.7636 -0.3146
 6992TIP3    H145171   4.961   2.963   0.852 -0.9942 -0.7904  0.1975
 6992TIP3    H245172   5.005   2.918   0.714  0.6527  1.2626  0.0067
 6993TIP3   OH245173   3.331   0.417   0.836 -0.5145 -0.2204 -0.6754
 6993TIP3    H145174   3.254   0.374   0.799 -0.1487  0.2684 -2.0657
 6993TIP3    H245175   3.336   0.501   0.791 -0.4877  0.7846  1.0847
 6994TIP3   OH245176   4.413   1.840   1.437 -0.5147 -0.4757  0.0496
 6994TIP3    H145177   4.407   1.747   1.458 -0.5155 -0.9050 -1.7126
 6994TIP3    H245178   4.498   1.867   1.470 -0.5478 -1.0798  0.6466
 6995TIP3   OH245179   3.508   1.300   2.040 -0.4989  0.2677 -0.3939
 6995TIP3    H145180   3.444   1.229   2.038  1.0966 -1.2389 -0.3830
 6995TIP3    H245181   3.503   1.340   1.953 -0.9494 -0.2993 -0.6338
 6996TIP3   OH245182   5.592   5.727   0.817  0.0106  0.2485 -0.2478
 6996TIP3    H145183   5.613   5.821   0.810 -2.0530  0.6915 -1.1438
 6996TIP3    H245184   5.643   5.686   0.748 -0.5497  1.0082 -1.1368
 6997TIP3   OH245185   1.702   5.567   1.071 -0.3083  0.4749  0.1165
 6997TIP3    H145186   1.718   5.658   1.045  0.3269  0.0231 -1.1339
 6997TIP3    H245187   1.618   5.545   1.030  0.2212  0.0674 -0.7734
 6998TIP3   OH245188   1.454   2.387   2.747 -0.1120  0.0633 -0.4667
 6998TIP3    H145189   1.478   2.330   2.674 -0.9257 -0.4828 -0.3114
 6998TIP3    H245190   1.410   2.330   2.809  1.0171  0.4209  0.6950
 6999TIP3   OH245191   5.366   3.610   1.554  0.2491  0.4584  0.7444
 6999TIP3    H145192   5.279   3.596   1.518 -0.3243  2.7311  1.0616
 6999TIP3    H245193   5.409   3.668   1.491  0.8875  0.7675  1.4384
 7000TIP3   OH245194   1.770   0.075   3.666  0.0813  0.7038  0.6283
 7000TIP3    H145195   1.737  -0.007   3.704  1.7249  0.6360  2.0114
 7000TIP3    H245196   1.821   0.047   3.590 -0.6699  0.5836  0.1613
 7001TIP3   OH245197   2.559   2.888   1.548 -0.1282  0.5986  0.0408
 7001TIP3    H145198   2.598   2.973   1.529 -1.0001  0.3825 -3.3250
 7001TIP3    H245199   2.465   2.901   1.533 -0.2365 -0.9949 -0.8050
 7002TIP3   OH245200   7.069   1.694   0.617  0.0362 -0.4778 -0.7519
 7002TIP3    H145201   7.092   1.765   0.676  0.0465  0.7736 -2.2105
 7002TIP3    H245202   7.147   1.638   0.615  0.4594  0.0948 -0.4766
 7003TIP3   OH245203   5.664   5.193   1.612 -0.3141  0.4084  0.3140
 7003TIP3    H145204   5.587   5.242   1.583  0.4103  0.5490 -1.5388
 7003TIP3    H245205   5.727   5.260   1.637 -0.7044  0.2957  1.6863
 7004TIP3   OH245206   0.054   3.683   2.823 -0.1844  0.1652 -0.0892
 7004TIP3    H145207   0.029   3.674   2.915 -0.8391  0.9789 -0.1777
 7004TIP3    H245208   0.121   3.615   2.810 -0.0411  0.0742  0.9950
 7005TIP3   OH245209   2.863   4.604   2.661  0.3833 -0.1508 -0.1185
 7005TIP3    H145210   2.826   4.643   2.582 -1.3130  1.7006  1.4319
 7005TIP3    H245211   2.957   4.619   2.654 -0.0141  3.0510 -0.3767
 7006TIP3   OH245212   3.119   1.952   2.094  1.0519  0.3566  0.3856
 7006TIP3    H145213   3.045   1.892   2.094  1.3805 -0.0712 -0.2829
 7006TIP3    H245214   3.179   1.915   2.029  1.6416  0.9453  0.5841
 7007TIP3   OH245215   3.884   6.228   1.522  0.3827 -0.3508 -0.1529
 7007TIP3    H145216   3.845   6.304   1.566  0.3335  0.0227 -0.8399
 7007TIP3    H245217   3.841   6.225   1.437  0.6337 -0.9532 -0.2604
 7008TIP3   OH245218   2.889   0.941   0.385 -0.4040 -0.1901  0.5231
 7008TIP3    H145219   2.959   0.978   0.438  1.2469 -1.9245 -0.2942
 7008TIP3    H245220   2.856   0.868   0.437  1.1695 -1.8477 -0.6785
 7009TIP3   OH245221   1.623   6.874   0.857  0.1409  0.1452 -0.2132
 7009TIP3    H145222   1.528   6.861   0.869  0.6620 -2.3667  2.3098
 7009TIP3    H245223   1.653   6.792   0.818  1.5257  0.0642  0.9665
 7010TIP3   OH245224   4.622   5.885   0.519  0.0482  0.3562 -0.1218
 7010TIP3    H145225   4.640   5.902   0.611  1.0911  1.8552 -0.5507
 7010TIP3    H245226   4.665   5.802   0.501 -0.9888 -0.4314  0.9575
 7011TIP3   OH245227   3.508   1.376   2.303  0.3593 -0.2883 -0.1463
 7011TIP3    H145228   3.424   1.412   2.331  0.2272  1.6413 -2.6229
 7011TIP3    H245229   3.494   1.350   2.212  2.0423 -1.4120 -0.1307
 7012TIP3   OH245230   0.888   5.168   3.097  0.1542  0.7384  0.0945
 7012TIP3    H145231   0.795   5.151   3.081  0.1805 -0.5067  1.0841
 7012TIP3    H245232   0.933   5.104   3.042  0.3204 -0.8387  1.9637
 7013TIP3   OH245233   0.105   5.360   0.408  0.1864  0.9689  0.2684
 7013TIP3    H145234   0.083   5.362   0.315  1.1421  1.2401  0.0319
 7013TIP3    H245235   0.025   5.332   0.452 -0.3024  0.9424 -0.6278
 7014TIP3   OH245236   1.816   2.801   2.553  0.1259  0.2308  0.2702
 7014TIP3    H145237   1.848   2.817   2.642  1.1392 -1.7729  0.3196
 7014TIP3    H245238   1.892   2.817   2.497 -0.1673  0.2499 -0.1253
 7015TIP3   OH245239   6.095   1.766   0.527 -0.3872  0.3310 -0.1695
 7015TIP3    H145240   6.143   1.698   0.480  0.9668  0.8142  0.4791
 7015TIP3    H245241   6.073   1.831   0.460 -2.1564 -0.9515 -0.9018
 7016TIP3   OH245242   3.286   3.247   1.603 -0.5671 -0.3125  0.7204
 7016TIP3    H145243   3.212   3.200   1.640 -1.1404 -0.4753 -0.5944
 7016TIP3    H245244   3.309   3.198   1.524  0.3536  0.2647  0.6106
 7017TIP3   OH245245   4.376   7.421   2.150 -0.0546 -0.1425 -0.1889
 7017TIP3    H145246   4.298   7.449   2.198  0.5943 -0.7645  1.2600
 7017TIP3    H245247   4.421   7.361   2.209  2.0836  1.0098 -0.5625
 7018TIP3   OH245248   5.208   1.895   2.254 -0.4098  0.1517  0.2069
 7018TIP3    H145249   5.225   1.809   2.214  1.0674 -0.4249  1.9192
 7018TIP3    H245250   5.265   1.955   2.206  0.7048 -0.3764  0.8300
 7019TIP3   OH245251   3.373   4.061   3.582  0.7188  0.1764 -0.7179
 7019TIP3    H145252   3.438   4.007   3.537 -0.1546 -1.3545 -0.2372
 7019TIP3    H245253   3.335   4.002   3.647  0.1205  1.5683  0.2359
 7020TIP3   OH245254   1.774   0.769   1.202  0.7644  0.7605  0.8051
 7020TIP3    H145255   1.794   0.774   1.109 -0.1109  1.7443  0.6527
 7020TIP3    H245256   1.678   0.770   1.206  0.6777 -2.0284  1.5913
 7021TIP3   OH245257   5.932   1.766   1.025 -0.0417  0.3534 -0.4534
 7021TIP3    H145258   6.002   1.744   1.087 -0.2921  1.1293  0.1207
 7021TIP3    H245259   5.888   1.683   1.007  1.2394 -0.2133 -1.1022
 7022TIP3   OH245260   3.091   6.690   0.713  0.2336  0.4519  0.1688
 7022TIP3    H145261   3.019   6.683   0.775 -0.8017 -0.0019 -1.0457
 7022TIP3    H245262   3.089   6.609   0.663  2.2314 -0.0197  0.7349
 7023TIP3   OH245263   6.971   5.798   2.755  0.0607 -0.5957 -0.2523
 7023TIP3    H145264   6.950   5.890   2.741 -3.8277 -1.5035 -2.1581
 7023TIP3    H245265   6.928   5.775   2.838 -0.3172 -0.9670 -0.5418
 7024TIP3   OH245266   4.656   6.007   0.767 -0.2410  0.2860  0.4834
 7024TIP3    H145267   4.567   6.021   0.799 -1.6552 -0.8422 -2.5993
 7024TIP3    H245268   4.683   5.923   0.805 -0.9546  0.0760  0.5353
 7025TIP3   OH245269   0.342   5.864   1.950 -0.0916 -0.3410  0.6530
 7025TIP3    H145270   0.370   5.773   1.938 -0.3151 -0.4540  0.9892
 7025TIP3    H245271   0.409   5.902   2.007  0.1306 -0.2259  0.3221
 7026TIP3   OH245272   1.268   1.552   3.264  0.3561  0.0301  0.7154
 7026TIP3    H145273   1.337   1.615   3.243 -0.1929  0.7723  1.0906
 7026TIP3    H245274   1.313   1.468   3.273  1.1557  0.4481  0.6340
 7027TIP3   OH245275   4.134   5.131   3.687 -0.3592 -0.0616 -0.1475
 7027TIP3    H145276   4.158   5.206   3.633 -1.0717  0.4029  0.1645
 7027TIP3    H245277   4.211   5.074   3.685 -0.2028  0.1705 -1.2528
 7028TIP3   OH245278   7.179   5.520   1.782  0.1009 -0.3496 -0.0833
 7028TIP3    H145279   7.270   5.492   1.773  0.4797  0.7962  0.1164
 7028TIP3    H245280   7.151   5.485   1.866  1.2634  1.6757  1.2233
 7029TIP3   OH245281   6.358   5.205   1.417  0.5102 -0.0767 -0.3860
 7029TIP3    H145282   6.270   5.214   1.381  0.3225 -2.1123 -0.5308
 7029TIP3    H245283   6.345   5.155   1.498  1.3650  1.0956  0.5083
 7030TIP3   OH245284   5.005   6.335   0.507  0.0072  0.0046 -0.6067
 7030TIP3    H145285   4.960   6.250   0.511  0.9504 -0.5364 -0.9467
 7030TIP3    H245286   4.977   6.381   0.586 -0.5850 -0.5977 -0.4546
 7031TIP3   OH245287   5.095   3.530   1.938 -0.5612 -0.1259 -0.2044
 7031TIP3    H145288   5.059   3.450   1.900  1.7433 -1.7425  0.8110
 7031TIP3    H245289   5.171   3.551   1.884 -0.2119  0.4627  0.4914
 7032TIP3   OH245290   6.587   3.821   0.815  0.1862 -0.0030 -0.3122
 7032TIP3    H145291   6.611   3.900   0.766 -1.0167  0.3776 -0.3220
 7032TIP3    H245292   6.631   3.750   0.768 -1.5103  0.2535 -2.4522
 7033TIP3   OH245293   6.689   0.688   1.750 -0.4310 -0.2759 -0.1100
 7033TIP3    H145294   6.783   0.707   1.749 -0.8807  2.2472 -1.5472
 7033TIP3    H245295   6.647   0.772   1.772 -2.3781 -1.4195  0.8921
 7034TIP3   OH245296   3.256   3.899   0.960  0.1886 -0.4832 -0.1602
 7034TIP3    H145297   3.316   3.826   0.949  2.1382  0.5415  2.5933
 7034TIP3    H245298   3.177   3.860   0.998  0.5387 -1.3518 -0.3127
 7035TIP3   OH245299   3.298   5.117   2.591  0.8454 -0.6762  0.0183
 7035TIP3    H145300   3.266   5.034   2.625 -0.8697 -0.5870 -1.2780
 7035TIP3    H245301   3.277   5.115   2.497  0.6812  1.2356 -0.0323
 7036TIP3   OH245302   1.751   7.239   3.063 -0.0302 -0.2963  0.4155
 7036TIP3    H145303   1.760   7.145   3.080 -1.1277 -0.2963  1.0414
 7036TIP3    H245304   1.685   7.269   3.125  0.2908  0.8956  0.2053
 7037TIP3   OH245305   3.164   0.912   2.311  0.0205 -0.8337 -0.7320
 7037TIP3    H145306   3.216   0.855   2.255  2.4784 -0.2631  0.8232
 7037TIP3    H245307   3.160   0.866   2.395 -1.0032 -0.3120 -0.4799
 7038TIP3   OH245308   1.158   7.494   6.455  0.1723  0.6567  0.0636
 7038TIP3    H145309   1.064   7.479   6.443 -0.2110  2.8123 -0.0576
 7038TIP3    H245310   1.163   7.565   6.520  1.6966  0.9072 -0.2887
 7039TIP3   OH245311   6.414   1.688   1.857 -0.5393  0.1201  0.1194
 7039TIP3    H145312   6.343   1.714   1.914 -0.2652  0.9861  0.0774
 7039TIP3    H245313   6.441   1.602   1.890 -0.6312  0.4389  1.0462
 7040TIP3   OH245314   4.764   3.920   3.168  0.3641  0.1947  0.3714
 7040TIP3    H145315   4.670   3.917   3.181  0.1154  0.8172 -1.0090
 7040TIP3    H245316   4.789   3.830   3.149  0.5099 -0.4479  3.2672
 7041TIP3   OH245317   4.918   2.704   1.498 -0.5591 -0.0405  0.0880
 7041TIP3    H145318   4.824   2.688   1.507 -0.5215 -0.3062  0.0030
 7041TIP3    H245319   4.957   2.668   1.578 -0.6676  1.2576  0.7599
 7042TIP3   OH245320   6.104   3.916   1.092 -0.5080  0.0115  0.5076
 7042TIP3    H145321   6.198   3.904   1.101 -0.6558 -1.3043  0.5181
 7042TIP3    H245322   6.070   3.828   1.078 -1.6050  0.5941 -0.7470
 7043TIP3   OH245323   5.134   1.539   2.859 -0.0332  0.3330 -0.1343
 7043TIP3    H145324   5.082   1.608   2.901 -1.8816 -1.9301  1.5384
 7043TIP3    H245325   5.210   1.529   2.915  1.5924  2.5730 -1.7372
 7044TIP3   OH245326   3.307   1.079   0.743 -0.3849 -0.3981  0.5332
 7044TIP3    H145327   3.214   1.097   0.725 -0.5304  0.1514  1.7421
 7044TIP3    H245328   3.351   1.099   0.661 -1.1617  0.8236  0.3744
 7045TIP3   OH245329   7.493   1.371   0.431 -0.2944 -0.2368 -0.3405
 7045TIP3    H145330   7.427   1.313   0.394  1.4092  0.0033 -4.2294
 7045TIP3    H245331   7.576   1.324   0.419  0.8098  1.6899 -0.6903
 7046TIP3   OH245332   5.082   3.314   1.080  0.3372 -0.0453  0.4738
 7046TIP3    H145333   5.023   3.384   1.050 -3.1277 -3.5251 -1.9075
 7046TIP3    H245334   5.148   3.308   1.012  0.2027  0.4110  0.2956
 7047TIP3   OH245335   0.482   3.148   3.227  0.4139 -0.0003 -0.2165
 7047TIP3    H145336   0.463   3.230   3.182  1.7294  0.2226 -0.4170
 7047TIP3    H245337   0.418   3.086   3.192 -0.4077  0.8531 -0.2756
 7048TIP3   OH245338   3.976   2.441   2.103  0.1998 -0.6853  0.2132
 7048TIP3    H145339   4.014   2.467   2.186  1.8654  1.2871 -1.0781
 7048TIP3    H245340   3.932   2.519   2.070 -1.3565 -1.7250 -0.3380
 7049TIP3   OH245341   1.680   7.074   2.254  0.1747  0.0778 -0.0839
 7049TIP3    H145342   1.769   7.109   2.251  0.1324  0.2656  0.6202
 7049TIP3    H245343   1.685   7.002   2.317 -0.0489 -0.2863 -0.4757
 7050TIP3   OH245344   6.593   1.986   2.578 -0.1187  0.6725  0.4632
 7050TIP3    H145345   6.652   1.925   2.532 -0.7504  0.5618 -0.2155
 7050TIP3    H245346   6.650   2.032   2.639  0.7816  0.9350 -0.5382
 7051TIP3   OH245347   5.295   4.380   2.108 -0.3442  0.0711  0.2535
 7051TIP3    H145348   5.281   4.303   2.053  0.2547 -1.7870  2.5440
 7051TIP3    H245349   5.213   4.429   2.103 -1.0041 -1.0795 -0.6970
 7052TIP3   OH245350   2.283   5.625   2.242 -0.3251 -0.4454 -0.3852
 7052TIP3    H145351   2.215   5.622   2.310  1.0447  0.4487  1.1179
 7052TIP3    H245352   2.242   5.669   2.168 -1.9615 -1.7289 -0.2836
 7053TIP3   OH245353   5.585   2.498   2.060 -0.1555  0.4595 -0.1695
 7053TIP3    H145354   5.582   2.502   2.155 -2.2043  0.7963 -0.1991
 7053TIP3    H245355   5.588   2.589   2.032 -1.5288  0.4474 -0.4196
 7054TIP3   OH245356   4.822   6.647   2.437 -0.1888  0.2378 -0.2217
 7054TIP3    H145357   4.872   6.621   2.514 -4.0629  0.5866  2.7257
 7054TIP3    H245358   4.886   6.691   2.380  2.9776 -0.3518  2.5731
 7055TIP3   OH245359   3.505   4.048   1.940 -0.3227  0.6575 -0.2887
 7055TIP3    H145360   3.556   4.129   1.934  1.1037 -0.0992  0.9697
 7055TIP3    H245361   3.542   3.991   1.873 -3.0117  1.8019 -3.0063
 7056TIP3   OH245362   6.220   1.665   0.950 -0.0923 -0.4419  0.2372
 7056TIP3    H145363   6.234   1.605   1.023  0.0873  0.7135  1.1873
 7056TIP3    H245364   6.188   1.610   0.879  1.5563 -1.9087  0.5719
 7057TIP3   OH245365   0.028   5.909   3.076  0.1376 -0.4980  0.0078
 7057TIP3    H145366   0.038   5.969   3.002  0.1045 -0.0692  0.3450
 7057TIP3    H245367   0.030   5.966   3.153 -1.9554 -0.6960  0.2619
 7058TIP3   OH245368   0.640   2.972   2.940 -0.4036  0.2726  0.0084
 7058TIP3    H145369   0.662   2.990   2.849 -0.7401  0.3896 -0.0514
 7058TIP3    H245370   0.689   2.892   2.961  0.5912  0.8824  0.0857
 7059TIP3   OH245371   4.662   3.493   1.869  0.0964  0.5508  0.3270
 7059TIP3    H145372   4.597   3.554   1.834  1.0144  0.4068 -1.7796
 7059TIP3    H245373   4.618   3.408   1.866  0.1818  0.5273 -0.6267
 7060TIP3   OH245374   4.816   7.015   0.815  0.4918 -0.0140 -0.2312
 7060TIP3    H145375   4.753   7.063   0.869 -1.2763 -0.2902 -1.9451
 7060TIP3    H245376   4.763   6.961   0.758  2.3792 -2.1177 -0.1526
 7061TIP3   OH245377   7.059   1.013   0.572  0.1017  0.0837  0.3624
 7061TIP3    H145378   7.036   0.951   0.502 -0.3185 -0.3911  0.9135
 7061TIP3    H245379   6.997   1.085   0.560  0.8168  0.5795 -0.4944
 7062TIP3   OH245380   3.433   0.832   3.847 -0.5456  0.1210 -0.3168
 7062TIP3    H145381   3.418   0.753   3.898  1.2185 -0.7790 -1.0976
 7062TIP3    H245382   3.363   0.832   3.782 -1.8428  0.4166  1.0251
 7063TIP3   OH245383   3.457   7.145   0.770  0.3287 -0.0908 -0.4714
 7063TIP3    H145384   3.393   7.187   0.713  0.0381  0.0461 -0.0512
 7063TIP3    H245385   3.542   7.162   0.729  0.1506  0.3171 -0.6658
 7064TIP3   OH245386   2.308   1.600   2.119 -0.4888 -0.1376 -0.1953
 7064TIP3    H145387   2.282   1.582   2.210 -0.2811  0.2652 -0.0527
 7064TIP3    H245388   2.293   1.518   2.073 -0.1694 -0.4830  0.3014
 7065TIP3   OH245389   0.763   4.947   1.360  0.2830 -0.6083 -0.8103
 7065TIP3    H145390   0.742   4.864   1.317  0.3716  0.8485 -3.8922
 7065TIP3    H245391   0.838   4.981   1.311 -0.1228  1.5885 -0.0270
 7066TIP3   OH245392   0.769   5.369   0.807 -0.1163 -0.4744 -0.3277
 7066TIP3    H145393   0.695   5.404   0.757 -0.0922  2.0899  1.2141
 7066TIP3    H245394   0.743   5.381   0.899  1.0572 -2.2037  0.2801
 7067TIP3   OH245395   3.243   4.614   1.758 -0.0124  0.3913  0.4822
 7067TIP3    H145396   3.198   4.546   1.708 -0.7325 -0.1271  1.7679
 7067TIP3    H245397   3.241   4.582   1.848 -2.1709  2.9850  1.5050
 7068TIP3   OH245398   4.761   2.263   0.918  0.7812 -0.1630  0.0725
 7068TIP3    H145399   4.837   2.294   0.869  1.7623 -0.7904  1.1399
 7068TIP3    H245400   4.722   2.343   0.954  1.3981  0.1138  0.1534
 7069TIP3   OH245401   6.268   6.689   2.044 -0.0943 -0.1972  0.1881
 7069TIP3    H145402   6.272   6.685   1.949  0.3512  0.6804  0.1588
 7069TIP3    H245403   6.251   6.599   2.071  0.2545 -0.5438 -0.6999
 7070TIP3   OH245404   1.034   2.344   2.989 -0.5851 -1.0019  0.5924
 7070TIP3    H145405   1.078   2.369   3.070 -0.2213 -1.2049  0.4635
 7070TIP3    H245406   0.950   2.390   2.991 -0.3993 -0.6734  0.8838
 7071TIP3   OH245407   0.104   5.263   2.523 -0.1344 -0.3746  0.1025
 7071TIP3    H145408   0.092   5.358   2.519 -1.3249 -0.4288  1.6717
 7071TIP3    H245409   0.096   5.241   2.616 -1.8939 -2.2311 -0.4028
 7072TIP3   OH245410   1.934   6.627   1.353  0.2464 -0.2070  0.3885
 7072TIP3    H145411   1.925   6.701   1.413  0.2498  0.2771 -0.1904
 7072TIP3    H245412   2.025   6.601   1.359  0.9855  1.6589 -1.4476
 7073TIP3   OH245413   3.820   4.497   0.723  0.0650 -0.0333 -0.5455
 7073TIP3    H145414   3.780   4.418   0.689  1.7781 -0.5986 -1.3770
 7073TIP3    H245415   3.843   4.548   0.645  0.1323  0.6949 -0.0633
 7074TIP3   OH245416   6.689   3.638   0.652 -0.2112  0.2968 -0.2858
 7074TIP3    H145417   6.775   3.607   0.680  0.2562  2.4878  0.9604
 7074TIP3    H245418   6.627   3.573   0.687  0.8193 -0.3908  0.3044
 7075TIP3   OH245419   4.735   5.919   2.255 -0.8218 -0.7166 -0.6232
 7075TIP3    H145420   4.824   5.915   2.219 -0.3822 -1.7729  0.5245
 7075TIP3    H245421   4.748   5.944   2.347 -1.8794  1.2831 -0.9565
 7076TIP3   OH245422   3.430   0.741   1.616 -0.9226 -0.3381 -0.4015
 7076TIP3    H145423   3.498   0.676   1.599 -0.8687 -0.9516  1.7731
 7076TIP3    H245424   3.472   0.825   1.597  0.7888 -0.6443  1.5600
 7077TIP3   OH245425   4.875   7.136   1.890  0.2781 -0.1188 -0.5841
 7077TIP3    H145426   4.855   7.079   1.816 -2.3205  0.3302 -0.3340
 7077TIP3    H245427   4.868   7.224   1.855 -1.0476  0.1025  0.1526
 7078TIP3   OH245428   7.136   0.110   2.985  0.1310 -0.6710 -0.8007
 7078TIP3    H145429   7.082   0.034   2.966  0.8131 -1.0380 -1.2893
 7078TIP3    H245430   7.219   0.093   2.941  0.4001  0.2121 -0.6594
 7079TIP3   OH245431   5.181   6.363   0.894 -0.3225 -0.2263 -0.1957
 7079TIP3    H145432   5.133   6.446   0.891 -1.4344 -0.8383  0.0259
 7079TIP3    H245433   5.114   6.297   0.914  0.3474 -1.3219 -1.3649
 7080TIP3   OH245434   6.060   1.424   2.564  0.1925  0.1302  0.4331
 7080TIP3    H145435   6.128   1.378   2.613 -0.4943 -0.2158  1.0855
 7080TIP3    H245436   5.978   1.388   2.598 -0.3130 -0.9491 -1.7365
 7081TIP3   OH245437   4.015   6.754   2.062  0.2240 -0.4020 -0.2043
 7081TIP3    H145438   3.972   6.835   2.091  0.1321 -0.5640  0.1203
 7081TIP3    H245439   3.974   6.734   1.978 -2.2677 -1.9621  1.2504
 7082TIP3   OH245440   1.390   1.548   2.227 -0.3176 -0.5541  0.7381
 7082TIP3    H145441   1.446   1.584   2.296 -0.7760 -1.5617  1.6545
 7082TIP3    H245442   1.450   1.534   2.153  0.1999  0.4394  0.9518
 7083TIP3   OH245443   3.773   0.741   0.834  0.1667  0.4670 -0.4652
 7083TIP3    H145444   3.718   0.799   0.783 -1.5376  1.7753  2.6136
 7083TIP3    H245445   3.723   0.659   0.841  0.8148 -0.0436 -1.5785
 7084TIP3   OH245446   0.445   3.017   2.465 -0.5318  0.3276 -0.1522
 7084TIP3    H145447   0.391   3.056   2.396 -2.4357  0.6731  1.4400
 7084TIP3    H245448   0.386   3.008   2.540  0.7938 -2.2451  0.7339
 7085TIP3   OH245449   0.371   0.417   1.400  0.1741  0.3120 -0.9832
 7085TIP3    H145450   0.399   0.391   1.312  1.4776 -0.9456 -0.2494
 7085TIP3    H245451   0.439   0.477   1.430  0.1413  0.1436 -0.5637
 7086TIP3   OH245452   5.868   5.977   2.901  0.5135 -0.0918  0.7752
 7086TIP3    H145453   5.896   5.934   2.820  4.1600  1.9885  0.6871
 7086TIP3    H245454   5.904   5.923   2.971  0.3433 -0.1065  0.8504
 7087TIP3   OH245455   3.738   1.426   3.526  0.3098 -0.3207 -0.0251
 7087TIP3    H145456   3.666   1.369   3.498  0.4471 -0.4202 -0.1805
 7087TIP3    H245457   3.806   1.412   3.461  0.3229  0.0694 -0.0996
 7088TIP3   OH245458   2.013   3.131   2.764 -0.2476  0.0841 -0.2624
 7088TIP3    H145459   2.013   3.152   2.671 -2.3957  0.2219 -0.2685
 7088TIP3    H245460   1.975   3.207   2.806 -2.1377 -1.1517  0.3872
 7089TIP3   OH245461   5.508   5.445   1.808  0.7511  0.2528  0.7078
 7089TIP3    H145462   5.534   5.367   1.857 -0.9437 -0.9708 -0.2604
 7089TIP3    H245463   5.413   5.443   1.806  0.6338  2.6343  1.0549
 7090TIP3   OH245464   3.305   4.333   2.434  0.3366 -0.2755  0.0905
 7090TIP3    H145465   3.338   4.417   2.465  0.0868  0.7009 -2.0720
 7090TIP3    H245466   3.362   4.311   2.360  1.0308 -2.5607  1.2261
 7091TIP3   OH245467   6.316   4.475   2.358  0.2454  0.3443  0.3811
 7091TIP3    H145468   6.382   4.540   2.337  2.2449 -1.4348  0.8150
 7091TIP3    H245469   6.352   4.427   2.433 -2.0669  0.0191  1.3907
 7092TIP3   OH245470   6.020   1.052   1.685  0.0678  0.0923 -0.0126
 7092TIP3    H145471   5.990   1.010   1.605 -1.7071  1.9210 -0.4011
 7092TIP3    H245472   6.059   1.135   1.656 -2.1607  1.6129  0.9933
 7093TIP3   OH245473   5.082   3.555   1.544 -0.2954 -0.5876  0.4288
 7093TIP3    H145474   5.007   3.575   1.601 -1.1845  1.0650 -1.2522
 7093TIP3    H245475   5.043   3.526   1.462  0.9483 -0.6136 -0.1774
 7094TIP3   OH245476   2.988   2.550   2.488 -0.2244 -0.6797 -0.1430
 7094TIP3    H145477   3.021   2.473   2.442  1.3201 -0.4386  0.4900
 7094TIP3    H245478   2.971   2.519   2.577 -0.2119 -0.4541 -0.0599
 7095TIP3   OH245479   0.563   2.175   2.406  0.0982  0.1393  0.0462
 7095TIP3    H145480   0.638   2.115   2.408  0.5731  0.7141 -0.3121
 7095TIP3    H245481   0.569   2.218   2.322 -0.4133  0.4866  0.1833
 7096TIP3   OH245482   2.848   7.402   1.483 -0.3899 -0.7541 -0.6488
 7096TIP3    H145483   2.938   7.409   1.512  0.0246 -3.0790 -1.2282
 7096TIP3    H245484   2.820   7.493   1.469  1.6699  0.0204  0.0075
 7097TIP3   OH245485   2.732   3.141   2.771  0.0946  0.1892 -0.2545
 7097TIP3    H145486   2.701   3.053   2.791  0.3740  0.2200  0.3442
 7097TIP3    H245487   2.784   3.130   2.691 -0.5927 -0.0332 -0.6734
 7098TIP3   OH245488   2.584   1.717   2.709 -0.1223  0.5596 -0.0803
 7098TIP3    H145489   2.543   1.769   2.640 -0.7584 -0.0378 -0.1655
 7098TIP3    H245490   2.522   1.646   2.726  0.6974 -0.1449  0.0688
 7099TIP3   OH245491   4.028   6.745   0.974  0.0816 -0.5008  0.1636
 7099TIP3    H145492   4.043   6.831   1.012 -0.1470 -0.4234  0.0853
 7099TIP3    H245493   4.115   6.706   0.965  0.4176  0.5353 -1.7208
 7100TIP3   OH245494   2.772   1.489   2.048 -0.1840  0.0854  0.5512
 7100TIP3    H145495   2.687   1.532   2.039 -2.0060 -3.1642  0.8685
 7100TIP3    H245496   2.817   1.508   1.966 -2.0559  0.2339 -0.4944
 7101TIP3   OH245497   0.082   5.929   0.681 -0.7111  0.1072 -0.1984
 7101TIP3    H145498   0.149   5.994   0.662 -1.2893  0.3076 -1.7135
 7101TIP3    H245499   0.012   5.948   0.619 -2.1087 -0.1998  1.2163
 7102TIP3   OH245500   6.606   5.832   1.348  0.0621 -0.0300 -0.0527
 7102TIP3    H145501   6.608   5.846   1.442  1.7827  0.1286 -0.0781
 7102TIP3    H245502   6.587   5.739   1.338 -1.5725  0.2362  0.3925
 7103TIP3   OH245503   4.612   7.497   2.620 -0.0457 -0.9069 -0.9800
 7103TIP3    H145504   4.692   7.534   2.658 -0.1289 -2.0301  0.3781
 7103TIP3    H245505   4.631   7.404   2.611 -1.2612 -1.2224 -0.4837
 7104TIP3   OH245506   2.564   0.461   1.593  0.2158  0.0697  0.2347
 7104TIP3    H145507   2.528   0.373   1.582 -2.7224  1.3410 -1.6732
 7104TIP3    H245508   2.570   0.473   1.688 -1.4022 -1.4233  0.5797
 7105TIP3   OH245509   2.951   6.582   1.750  0.1787 -0.2437  0.1385
 7105TIP3    H145510   2.998   6.502   1.728 -0.1149 -0.4330  0.2073
 7105TIP3    H245511   3.020   6.647   1.763  0.3874 -0.0107 -1.7646
 7106TIP3   OH245512   4.104   7.073   0.469  0.5393 -0.3685 -0.0222
 7106TIP3    H145513   4.153   7.046   0.391  1.5624 -0.0820  0.4964
 7106TIP3    H245514   4.165   7.129   0.517 -1.6319  3.4238 -1.3146
 7107TIP3   OH245515   1.658   6.903   3.337  0.0278  0.2012  0.1611
 7107TIP3    H145516   1.613   6.832   3.384 -1.2147  0.4006 -0.6925
 7107TIP3    H245517   1.640   6.981   3.390 -0.1017  0.1783  0.1511
 7108TIP3   OH245518   5.028   3.088   0.956 -0.0644  0.1088 -0.2845
 7108TIP3    H145519   5.002   3.147   1.027 -0.3693 -0.7274  0.3134
 7108TIP3    H245520   5.111   3.051   0.985 -1.1226 -1.7489  0.6254
 7109TIP3   OH245521   5.227   4.803   2.707  0.2415  0.0933 -0.1274
 7109TIP3    H145522   5.201   4.782   2.797 -1.3596 -0.5070 -0.7023
 7109TIP3    H245523   5.322   4.814   2.712  0.2139 -0.1551  1.5901
 7110TIP3   OH245524   0.378   0.965   2.918 -0.4574  0.0438  0.1374
 7110TIP3    H145525   0.300   0.961   2.862  0.2492 -3.3192 -0.8237
 7110TIP3    H245526   0.449   0.989   2.860 -0.1172 -1.1542  0.0204
 7111TIP3   OH245527   6.106   0.242   2.791 -0.1182  0.3340  0.1807
 7111TIP3    H145528   6.192   0.205   2.811 -0.2308  0.7119  1.4580
 7111TIP3    H245529   6.109   0.261   2.698  1.1845  0.3504  0.2081
 7112TIP3   OH245530   5.326   0.853   1.552  0.0234 -0.7274  0.3965
 7112TIP3    H145531   5.397   0.813   1.602 -0.6036  0.0253  1.9384
 7112TIP3    H245532   5.368   0.883   1.471  0.8505 -2.8760 -0.0451
 7113TIP3   OH245533   4.899   2.074   2.183 -0.5401 -0.0512 -0.1747
 7113TIP3    H145534   4.804   2.065   2.174 -0.6299 -0.0710  0.7411
 7113TIP3    H245535   4.922   2.014   2.253  0.1344  0.0751 -0.2845
 7114TIP3   OH245536   0.604   6.012   0.902 -0.4270 -0.0193  0.4533
 7114TIP3    H145537   0.549   6.058   0.965  0.4536  1.6684  0.0680
 7114TIP3    H245538   0.597   6.064   0.822  1.1966 -0.0878  0.2203
 7115TIP3   OH245539   0.941   7.124   2.080  0.1429  0.3550 -0.4341
 7115TIP3    H145540   0.855   7.137   2.040 -0.1181  0.2567  0.0840
 7115TIP3    H245541   0.995   7.194   2.043 -0.3773  0.9239 -0.1520
 7116TIP3   OH245542   1.435   0.702   1.721 -0.1843 -0.1372 -0.2977
 7116TIP3    H145543   1.522   0.726   1.688  0.3119 -1.6339 -0.1301
 7116TIP3    H245544   1.391   0.786   1.734  0.6637  0.6070 -1.8898
 7117TIP3   OH245545   5.379   1.004   0.978 -0.6820 -0.4874 -0.3741
 7117TIP3    H145546   5.407   1.004   1.070  0.8634  1.6366 -0.7755
 7117TIP3    H245547   5.404   0.918   0.946 -0.0978 -0.8066  0.8695
 7118TIP3   OH245548   2.466   7.502   3.569 -0.0059 -0.1239  0.0858
 7118TIP3    H145549   2.541   7.561   3.568  0.0606 -0.2044 -1.4012
 7118TIP3    H245550   2.503   7.415   3.585  0.0379  0.0449  0.9354
 7119TIP3   OH245551   6.990   6.868   0.805 -0.3105  0.5002  0.2704
 7119TIP3    H145552   7.012   6.786   0.850  1.8485  1.5935  1.3713
 7119TIP3    H245553   6.962   6.841   0.718 -0.8645 -1.4628  1.0011
 7120TIP3   OH245554   2.301   5.614   3.365 -0.3793 -0.0282 -0.2332
 7120TIP3    H145555   2.360   5.542   3.342 -1.7310 -0.9171 -1.0575
 7120TIP3    H245556   2.215   5.573   3.372 -1.3664  1.6562 -1.7564
 7121TIP3   OH245557   7.417   4.090   0.541  0.1253  0.1384 -0.2289
 7121TIP3    H145558   7.494   4.128   0.583  0.0865  0.2811 -0.2876
 7121TIP3    H245559   7.353   4.161   0.537  0.0081  0.0348 -0.2273
 7122TIP3   OH245560   1.697   1.243   3.509  0.2294  0.9533 -0.4602
 7122TIP3    H145561   1.671   1.320   3.458  1.9416  0.9857 -1.3583
 7122TIP3    H245562   1.782   1.266   3.545 -0.7893  0.8185  2.2941
 7123TIP3   OH245563   4.547   2.066   1.582 -0.2752 -0.3556  0.4972
 7123TIP3    H145564   4.508   2.131   1.523  0.2660 -0.5263 -0.0551
 7123TIP3    H245565   4.486   2.061   1.655 -1.3216 -0.6538 -0.3749
 7124TIP3   OH245566   7.444   3.863   0.766 -0.6762 -0.1585 -0.4390
 7124TIP3    H145567   7.486   3.778   0.779 -0.1030  0.4801  2.7485
 7124TIP3    H245568   7.516   3.926   0.773 -1.4102  0.6904 -0.3212
 7125TIP3   OH245569   2.574   1.114   2.999  0.5004 -0.2781 -0.2489
 7125TIP3    H145570   2.591   1.070   3.082  1.0625 -0.0293 -0.2283
 7125TIP3    H245571   2.589   1.207   3.017  0.9769 -0.2614 -0.7183
 7126TIP3   OH245572   7.502   5.258   1.042 -0.1171  0.3322 -0.1887
 7126TIP3    H145573   7.508   5.354   1.039  0.5199  0.2952 -0.3419
 7126TIP3    H245574   7.563   5.233   1.111 -0.7911  0.0723  0.3179
 7127TIP3   OH245575   0.422   5.652   2.969 -0.4178  0.4294  0.2531
 7127TIP3    H145576   0.465   5.680   2.889 -1.2090  1.3685  0.1464
 7127TIP3    H245577   0.331   5.676   2.957 -0.7230 -0.2819  1.0501
 7128TIP3   OH245578   2.679   1.911   0.659  0.0234 -0.0824  0.4329
 7128TIP3    H145579   2.610   1.846   0.670 -0.8691  0.5502 -1.1782
 7128TIP3    H245580   2.651   1.965   0.585  2.6364 -0.3040 -0.8365
 7129TIP3   OH245581   3.018   6.769   2.926  0.7548 -0.3312 -0.3400
 7129TIP3    H145582   2.986   6.813   3.005  2.7165 -0.2307  0.4397
 7129TIP3    H245583   2.996   6.829   2.855 -2.3663 -1.0585 -0.1695
 7130TIP3   OH245584   0.698   2.625   1.123  0.7415  0.7304  0.0271
 7130TIP3    H145585   0.614   2.585   1.143  0.3607  0.4491 -1.9081
 7130TIP3    H245586   0.758   2.588   1.187  0.0397 -1.6341 -0.5955
 7131TIP3   OH245587   7.266   2.642   1.994 -0.1160 -0.1207 -0.2140
 7131TIP3    H145588   7.294   2.727   2.028  1.0044 -0.5161 -0.1069
 7131TIP3    H245589   7.304   2.637   1.906 -0.3995 -0.4113 -0.3253
 7132TIP3   OH245590   6.320   1.286   2.788 -0.6667  0.2265 -0.1951
 7132TIP3    H145591   6.249   1.348   2.805  0.2817  1.1864  0.4075
 7132TIP3    H245592   6.391   1.315   2.845 -0.0528 -1.1904 -0.1934
 7133TIP3   OH245593   5.673   3.718   1.172 -0.1278  0.6083  0.0661
 7133TIP3    H145594   5.654   3.747   1.083  0.8095  0.2395 -0.2739
 7133TIP3    H245595   5.656   3.623   1.170  0.1758  0.5507  0.1890
 7134TIP3   OH245596   3.935   5.650   1.500 -0.8583  0.5431 -0.0096
 7134TIP3    H145597   3.841   5.645   1.515 -0.8774  1.2452  0.1209
 7134TIP3    H245598   3.964   5.559   1.495 -1.7622  0.3093 -1.4185
 7135TIP3   OH245599   6.199   4.439   1.952  0.7844  0.5041  0.0832
 7135TIP3    H145600   6.163   4.464   1.867 -0.3576 -0.5391  0.2440
 7135TIP3    H245601   6.204   4.522   2.001 -1.0806  0.7569 -0.0765
 7136TIP3   OH245602   5.684   1.013   1.097 -0.3922 -0.2296 -0.8446
 7136TIP3    H145603   5.674   1.049   1.009 -0.7323 -0.3075 -0.8388
 7136TIP3    H245604   5.718   1.086   1.149 -3.5852  0.9647 -0.2004
 7137TIP3   OH245605   5.766   3.172   1.034 -0.4127  0.1828  0.2479
 7137TIP3    H145606   5.836   3.238   1.040 -1.7860  1.6649  0.4998
 7137TIP3    H245607   5.791   3.106   1.098  0.9882  0.4345  0.0136
 7138TIP3   OH245608   7.329   6.840   2.688 -0.0541  0.4850  0.0962
 7138TIP3    H145609   7.243   6.832   2.730  0.3083 -1.4544  0.5533
 7138TIP3    H245610   7.346   6.934   2.687 -0.0669  0.7448  4.4126
 7139TIP3   OH245611   4.897   7.328   1.062  0.8436  0.0156  0.5099
 7139TIP3    H145612   4.911   7.356   0.972  0.3200  0.2594  0.5021
 7139TIP3    H245613   4.812   7.283   1.060  0.7547  0.1656  0.9148
 7140TIP3   OH245614   6.826   3.071   0.918  0.0578 -0.3055 -0.1026
 7140TIP3    H145615   6.767   3.103   0.986 -0.9388 -2.8711  0.3641
 7140TIP3    H245616   6.907   3.051   0.963 -0.5927 -1.9775  0.3982
 7141TIP3   OH245617   4.090   3.353   1.357  0.2737  0.2029 -0.5197
 7141TIP3    H145618   4.122   3.307   1.280  0.0350  0.7270 -0.9381
 7141TIP3    H245619   4.028   3.417   1.323 -0.4879 -0.1383  0.1843
 7142TIP3   OH245620   4.090   3.259   3.106  0.1159  0.2580 -0.6425
 7142TIP3    H145621   4.128   3.324   3.166 -0.8829 -0.4763  0.8634
 7142TIP3    H245622   4.112   3.291   3.019  0.8711  1.8511  0.0854
 7143TIP3   OH245623   4.535   5.513   0.648 -0.1928 -0.3538  0.2102
 7143TIP3    H145624   4.566   5.603   0.655 -0.8425 -0.1189  0.1552
 7143TIP3    H245625   4.446   5.521   0.613  0.0402 -1.0632 -0.5695
 7144TIP3   OH245626   5.020   6.832   1.290  0.4677 -0.8250 -0.3322
 7144TIP3    H145627   5.056   6.920   1.307 -2.0631  0.3494 -0.6489
 7144TIP3    H245628   5.046   6.814   1.199  1.2818 -0.5765 -0.1638
 7145TIP3   OH245629   0.972   3.209   0.701  0.1111 -0.2062  0.0749
 7145TIP3    H145630   0.908   3.216   0.772 -0.3328 -0.1974 -0.3181
 7145TIP3    H245631   1.056   3.196   0.745  0.0583  1.1853  0.6544
 7146TIP3   OH245632   2.738   3.334   3.709 -0.1242  0.6347  0.0062
 7146TIP3    H145633   2.680   3.397   3.667 -1.1557  1.5003  2.5291
 7146TIP3    H245634   2.823   3.378   3.711 -0.5236  1.4096  0.5403
 7147TIP3   OH245635   3.570   4.830   1.383 -0.3948  0.0753 -0.7583
 7147TIP3    H145636   3.514   4.794   1.314  0.4127  0.8241 -1.8234
 7147TIP3    H245637   3.647   4.773   1.385 -0.8233 -0.5073  0.1977
 7148TIP3   OH245638   4.200   2.022   1.423  0.1986  0.0550  0.3822
 7148TIP3    H145639   4.281   1.975   1.403  0.0534 -1.0187  2.0445
 7148TIP3    H245640   4.130   1.960   1.402 -0.0896  0.2977  0.6112
 7149TIP3   OH245641   2.241   2.020   0.748  0.3071 -0.2018  0.0542
 7149TIP3    H145642   2.281   2.038   0.663  0.2812 -1.9629 -0.3850
 7149TIP3    H245643   2.298   2.063   0.812  1.5920 -0.6874 -0.7271
 7150TIP3   OH245644   0.028   0.989   3.015  0.4264 -0.8457 -0.2578
 7150TIP3    H145645   0.112   0.947   3.032  1.5154  1.1168 -0.5159
 7150TIP3    H245646   0.047   1.055   2.948 -1.6127 -1.2512 -1.3175
 7151TIP3   OH245647   4.742   3.242   2.182  0.2510  0.4278  0.3661
 7151TIP3    H145648   4.659   3.240   2.134 -0.1207  0.4446  0.9881
 7151TIP3    H245649   4.789   3.164   2.153  0.1974  0.6409 -0.3026
 7152TIP3   OH245650   5.843   3.473   2.022  0.1783  0.2371 -0.4251
 7152TIP3    H145651   5.772   3.432   1.972 -0.2459  0.3210  0.0996
 7152TIP3    H245652   5.847   3.563   1.989  0.1919  0.1652 -0.6185
 7153TIP3   OH245653   0.357   4.514   3.263 -0.3354 -0.0746  0.3237
 7153TIP3    H145654   0.358   4.488   3.171  1.0057 -0.0638  0.3141
 7153TIP3    H245655   0.431   4.467   3.302 -0.7463  0.0982  1.3559
 7154TIP3   OH245656   5.017   2.355   0.872  0.2346 -0.5879 -0.0456
 7154TIP3    H145657   5.034   2.410   0.949  1.1214  0.4153 -0.9368
 7154TIP3    H245658   5.081   2.384   0.807 -0.7704 -1.1342 -1.3163
 7155TIP3   OH245659   1.493   4.812   0.924  0.0785  0.0529 -0.1896
 7155TIP3    H145660   1.538   4.849   0.999  2.2079 -1.4812 -0.6256
 7155TIP3    H245661   1.443   4.739   0.959 -1.2039  1.0232  0.1025
 7156TIP3   OH245662   4.356   7.366   1.290 -0.2666  0.1310 -0.2950
 7156TIP3    H145663   4.312   7.369   1.205  1.4189 -0.6310 -1.2335
 7156TIP3    H245664   4.447   7.385   1.271 -0.2547  2.6988  1.7431
 7157TIP3   OH245665   6.482   6.116   1.684 -0.0860  0.4565 -0.2368
 7157TIP3    H145666   6.476   6.203   1.646 -1.7876  0.7553  0.5926
 7157TIP3    H245667   6.397   6.076   1.664  1.2221 -1.6317 -1.9767
 7158TIP3   OH245668   2.465   5.123   2.243 -0.2774  0.1327 -0.6214
 7158TIP3    H145669   2.452   5.218   2.244  1.1746  0.4549 -3.0537
 7158TIP3    H245670   2.518   5.107   2.165  5.2907 -1.9118  2.9458
 7159TIP3   OH245671   7.031   1.585   2.032  0.2572  0.0624 -0.2662
 7159TIP3    H145672   7.090   1.660   2.021 -0.5012  0.5553 -1.0834
 7159TIP3    H245673   7.009   1.586   2.126 -0.5676  1.5111 -0.4405
 7160TIP3   OH245674   5.263   2.471   0.767 -0.2002  0.0188 -0.0152
 7160TIP3    H145675   5.321   2.406   0.807  1.8440  1.4938 -0.3652
 7160TIP3    H245676   5.323   2.537   0.732 -2.1349  1.6391 -0.4535
 7161TIP3   OH245677   1.934   1.028   2.741  0.5020  0.0203 -0.1654
 7161TIP3    H145678   2.010   1.061   2.790  0.5641  2.0356 -1.5170
 7161TIP3    H245679   1.936   1.077   2.659 -1.7846 -0.5109 -0.5811
 7162TIP3   OH245680   7.091   6.421   2.610 -0.2607 -0.3218  0.1960
 7162TIP3    H145681   7.093   6.470   2.692  1.9331  0.0052  0.0104
 7162TIP3    H245682   7.105   6.330   2.636  0.6277 -0.1937  0.1893
 7163TIP3   OH245683   2.968   0.905   2.722  0.1665 -0.0439  0.2077
 7163TIP3    H145684   2.898   0.901   2.786 -0.5578 -1.3626 -0.6331
 7163TIP3    H245685   2.933   0.959   2.651  0.2670 -0.1011  0.1138
 7164TIP3   OH245686   0.471   1.750   1.926  0.3577 -0.0774  0.4114
 7164TIP3    H145687   0.435   1.679   1.872  0.2209  0.1531  0.1976
 7164TIP3    H245688   0.529   1.706   1.988 -0.4735 -0.4833  0.9209
 7165TIP3   OH245689   5.763   5.879   1.262  0.4270  0.4039 -0.6141
 7165TIP3    H145690   5.724   5.826   1.192  1.3931 -0.3546 -0.5918
 7165TIP3    H245691   5.759   5.824   1.340  0.5199  0.7614 -0.3511
 7166TIP3   OH245692   6.899   5.154   0.386 -0.0790 -0.5122 -0.1277
 7166TIP3    H145693   6.857   5.102   0.454 -1.5913  0.0069 -0.6247
 7166TIP3    H245694   6.838   5.225   0.368  1.8130  1.3511  0.3580
 7167TIP3   OH245695   5.570   1.437   1.253  0.1976 -0.8717  0.2425
 7167TIP3    H145696   5.561   1.344   1.273  2.6487 -1.2507 -0.1284
 7167TIP3    H245697   5.556   1.444   1.159 -0.7985 -0.6974  0.3857
 7168TIP3   OH245698   4.816   0.477   2.709 -0.2416 -0.0010  0.1086
 7168TIP3    H145699   4.727   0.456   2.740 -0.0636  0.2309  0.8036
 7168TIP3    H245700   4.802   0.544   2.642 -0.8170 -2.2153 -2.1392
 7169TIP3   OH245701   3.873   6.944   0.556  0.3551 -0.0100 -0.0449
 7169TIP3    H145702   3.869   6.951   0.651 -0.2892  0.4004 -0.0920
 7169TIP3    H245703   3.937   7.009   0.529  0.4816 -0.0744  0.1021
 7170TIP3   OH245704   6.508   5.458   1.643  0.2286  0.0622 -0.2073
 7170TIP3    H145705   6.603   5.463   1.644  0.1753  1.5734  0.8269
 7170TIP3    H245706   6.482   5.505   1.563  0.3340  0.1175 -0.2091
 7171TIP3   OH245707   3.119   4.653   1.060 -0.0040  0.1248 -0.7542
 7171TIP3    H145708   3.204   4.680   1.095  0.0635  0.7065 -1.3531
 7171TIP3    H245709   3.090   4.583   1.119  0.8808 -0.0711 -0.5383
 7172TIP3   OH245710   1.923   2.314   2.210  0.3431  0.1630  0.7290
 7172TIP3    H145711   1.909   2.372   2.135 -0.8000  1.0165  1.5586
 7172TIP3    H245712   1.884   2.230   2.183 -0.9058  0.7358  0.6931
 7173TIP3   OH245713   2.970   3.911   0.737  0.6261  0.1499 -0.3655
 7173TIP3    H145714   2.950   3.979   0.672  1.0297  1.3090  0.6942
 7173TIP3    H245715   3.061   3.887   0.719  0.8735  0.7750  0.0353
 7174TIP3   OH245716   5.785   0.209   1.322  0.3002 -0.4343 -0.2053
 7174TIP3    H145717   5.744   0.263   1.254  3.1929  2.2020 -0.0469
 7174TIP3    H245718   5.836   0.144   1.273 -1.3795 -1.7138 -0.3929
 7175TIP3   OH245719   3.530   4.833   2.521 -0.0143  0.3903  0.4615
 7175TIP3    H145720   3.548   4.783   2.601  0.6176 -1.9395 -1.0591
 7175TIP3    H245721   3.437   4.855   2.526 -0.3999 -1.2674  1.0203
 7176TIP3   OH245722   1.890   0.269   1.802  0.3156  0.2713 -0.6038
 7176TIP3    H145723   1.809   0.217   1.799  0.2199  0.4137 -0.5094
 7176TIP3    H245724   1.891   0.314   1.717 -0.3381  1.2148 -0.1297
 7177TIP3   OH245725   0.835   1.142   0.945  0.0902 -0.5008  0.1932
 7177TIP3    H145726   0.810   1.158   1.036  0.2891  1.1350 -0.0187
 7177TIP3    H245727   0.826   1.227   0.902 -0.9267 -1.4256 -1.5526
 7178TIP3   OH245728   2.036   4.487   1.728  0.0318  0.4631 -0.1830
 7178TIP3    H145729   2.122   4.444   1.728 -0.0846  0.1583 -1.8515
 7178TIP3    H245730   2.053   4.576   1.697 -0.4201 -0.0970 -2.2027
 7179TIP3   OH245731   4.891   3.548   2.373 -0.1898  0.2175  0.6898
 7179TIP3    H145732   4.839   3.539   2.292  0.2375 -1.0325  0.5313
 7179TIP3    H245733   4.871   3.469   2.423 -0.5655  1.0540  1.8988
 7180TIP3   OH245734   5.092   4.652   0.957 -0.0324  0.2156 -0.5712
 7180TIP3    H145735   5.122   4.691   0.876  1.1488  0.7532  0.0999
 7180TIP3    H245736   5.040   4.720   0.999  2.0213  1.1498  0.5958
 7181TIP3   OH245737   4.829   2.741   1.190  0.1394 -0.5633 -0.4354
 7181TIP3    H145738   4.911   2.788   1.202  1.5186 -2.8366 -0.2445
 7181TIP3    H245739   4.784   2.749   1.274 -0.5587  1.8829 -0.9833
 7182TIP3   OH245740   6.400   7.339   1.530 -0.2465 -0.2244 -0.2004
 7182TIP3    H145741   6.313   7.344   1.570 -0.3184 -0.1782 -0.3653
 7182TIP3    H245742   6.415   7.425   1.493  0.1333 -0.0331  0.3745
 7183TIP3   OH245743   0.811   2.204   1.145  0.4029  0.2510  0.2592
 7183TIP3    H145744   0.893   2.253   1.146  0.1522  0.7024 -0.4581
 7183TIP3    H245745   0.812   2.157   1.062 -0.1557  0.4343  0.1415
 7184TIP3   OH245746   2.655   4.813   3.426 -0.5031 -0.6977  0.0181
 7184TIP3    H145747   2.597   4.844   3.495  4.5929  1.0711  4.2509
 7184TIP3    H245748   2.647   4.718   3.427 -1.9414 -0.5940  1.7417
 7185TIP3   OH245749   0.799   5.166   1.037 -0.0461 -0.8548 -0.4226
 7185TIP3    H145750   0.839   5.191   0.954 -1.6375  1.0276 -0.7010
 7185TIP3    H245751   0.863   5.194   1.104  0.4646 -0.7548 -0.9424
 7186TIP3   OH245752   2.078   4.393   1.041 -0.1330 -0.1923 -0.0538
 7186TIP3    H145753   2.074   4.402   0.945 -0.3719 -0.1057 -0.0366
 7186TIP3    H245754   2.171   4.382   1.060  0.0337  0.8484 -0.2059
 7187TIP3   OH245755   5.736   5.393   2.616  0.0292 -0.1022  0.2430
 7187TIP3    H145756   5.649   5.363   2.589  1.1166 -2.0166 -1.4027
 7187TIP3    H245757   5.725   5.487   2.631 -2.1557 -0.1453 -0.6881
 7188TIP3   OH245758   2.915   3.437   1.721  0.2102 -0.2325 -0.2969
 7188TIP3    H145759   2.938   3.525   1.690  1.9932 -0.2028  1.0008
 7188TIP3    H245760   2.998   3.398   1.747 -0.6129 -2.1555 -0.3966
 7189TIP3   OH245761   6.848   3.214   1.917 -0.2674  0.4273 -0.1155
 7189TIP3    H145762   6.891   3.287   1.872 -0.7875  0.0342 -1.3090
 7189TIP3    H245763   6.869   3.137   1.863 -0.5392 -0.1362  0.5744
 7190TIP3   OH245764   5.091   3.840   1.503  0.0137  0.5936  0.0934
 7190TIP3    H145765   5.136   3.756   1.509  0.2444  0.8127  1.9244
 7190TIP3    H245766   5.060   3.844   1.413  2.5585 -0.1128 -0.8861
 7191TIP3   OH245767   6.673   6.629   0.625 -0.5840  0.1014  0.3654
 7191TIP3    H145768   6.663   6.542   0.585 -0.5379  0.2818 -0.0358
 7191TIP3    H245769   6.619   6.624   0.704  1.3329 -1.1188  1.6929
 7192TIP3   OH245770   7.476   7.490   2.125 -0.5368  0.1428 -0.1593
 7192TIP3    H145771   7.504   7.399   2.141 -0.5499  0.0698 -0.5321
 7192TIP3    H245772   7.492   7.535   2.208  0.2937 -0.0011 -0.2252
 7193TIP3   OH245773   7.311   7.080   2.186 -0.4218  0.3556  0.4895
 7193TIP3    H145774   7.401   7.112   2.177  0.1023 -1.4553 -1.9636
 7193TIP3    H245775   7.315   7.015   2.256 -0.4917  2.1863  2.2742
 7194TIP3   OH245776   3.964   4.589   0.523 -0.2529  0.3562  0.1479
 7194TIP3    H145777   4.058   4.575   0.530 -0.7144 -2.8882  1.7828
 7194TIP3    H245778   3.947   4.598   0.430  1.6141  0.7294 -0.1901
 7195TIP3   OH245779   5.225   0.032   1.881 -0.0669 -0.1035  0.3288
 7195TIP3    H145780   5.141   0.001   1.913  0.3602 -0.9490  0.6384
 7195TIP3    H245781   5.268   0.070   1.958 -0.3497  0.7691  0.0727
 7196TIP3   OH245782   6.873   7.447   0.468  0.0824 -0.8157  0.4174
 7196TIP3    H145783   6.851   7.359   0.498 -1.7732 -0.5815 -0.0943
 7196TIP3    H245784   6.959   7.438   0.427 -0.8963 -2.8373 -1.3796
 7197TIP3   OH245785   6.620   2.557   2.644  0.1317  0.1643  0.2368
 7197TIP3    H145786   6.536   2.563   2.599 -1.0474  1.0454  2.3726
 7197TIP3    H245787   6.682   2.528   2.577 -1.2327  2.4342 -2.1932
 7198TIP3   OH245788   6.327   1.222   2.520  0.4944  0.0574 -0.6695
 7198TIP3    H145789   6.370   1.275   2.587 -0.4891  1.6710 -1.2575
 7198TIP3    H245790   6.377   1.240   2.440  0.8238 -0.7758 -0.6574
 7199TIP3   OH245791   4.608   3.323   1.615  0.0920 -0.0087 -0.8927
 7199TIP3    H145792   4.658   3.395   1.575  1.8238 -0.0473  1.0320
 7199TIP3    H245793   4.629   3.247   1.562  2.6219 -0.1301  0.1384
 7200TIP3   OH245794   1.476   1.748   0.915  0.0599 -0.2575  0.6849
 7200TIP3    H145795   1.387   1.720   0.894  0.5407  0.6536 -3.4047
 7200TIP3    H245796   1.526   1.667   0.923 -0.8800 -0.7451  1.9670
 7201TIP3   OH245797   0.858   1.827   2.927 -0.4075  0.3577 -0.0792
 7201TIP3    H145798   0.807   1.893   2.880 -0.1179 -0.4009 -1.4982
 7201TIP3    H245799   0.802   1.803   3.001 -0.0691  2.9390  1.1325
 7202TIP3   OH245800   2.402   3.926   0.656  0.0180 -0.0643 -0.0349
 7202TIP3    H145801   2.388   3.989   0.585  0.2168  0.3898  0.3163
 7202TIP3    H245802   2.358   3.846   0.627  0.5856 -0.0700 -0.9213
 7203TIP3   OH245803   0.143   2.566   1.160 -0.5059  0.1667 -0.1920
 7203TIP3    H145804   0.196   2.611   1.226 -1.3492  0.7646  0.0822
 7203TIP3    H245805   0.095   2.635   1.115 -0.6276 -0.3184 -0.8270
 7204TIP3   OH245806   1.942   6.706   1.717  0.0915  0.1286  0.1790
 7204TIP3    H145807   1.989   6.632   1.679 -0.2877  0.4602 -0.9714
 7204TIP3    H245808   1.931   6.768   1.645 -2.1684  0.0192  0.3425
 7205TIP3   OH245809   0.461   3.594   2.475 -0.1076  0.1684 -0.2796
 7205TIP3    H145810   0.397   3.604   2.546 -0.1291  0.0890 -0.2880
 7205TIP3    H245811   0.470   3.500   2.463 -0.3344  0.1829 -0.5881
 7206TIP3   OH245812   3.149   0.022   1.358 -0.0603 -0.3502 -0.4964
 7206TIP3    H145813   3.128  -0.003   1.448 -0.9100 -2.9341 -1.3253
 7206TIP3    H245814   3.071   0.069   1.328 -0.4725 -0.9548 -0.3888
 7207TIP3   OH245815   0.344   5.228   1.773  0.4207  0.1697  0.2711
 7207TIP3    H145816   0.259   5.189   1.790  0.2111  0.6982  0.4717
 7207TIP3    H245817   0.325   5.321   1.756  0.9520  0.2962  0.3396
 7208TIP3   OH245818   7.442   4.156   1.083  0.2343  0.0065  0.8430
 7208TIP3    H145819   7.366   4.166   1.141  0.6566  0.9812  1.2488
 7208TIP3    H245820   7.489   4.080   1.118 -0.6183 -0.7174  0.4860
 7209TIP3   OH245821   2.853   6.914   0.805 -0.0111  1.0702  0.3360
 7209TIP3    H145822   2.850   6.847   0.873 -1.1935 -1.7707 -2.2854
 7209TIP3    H245823   2.773   6.900   0.753  1.6144  1.9263 -2.6251
 7210TIP3   OH245824   5.155   4.662   1.771 -0.3571  0.3090 -0.0780
 7210TIP3    H145825   5.247   4.636   1.770  0.7050  3.5481  1.4249
 7210TIP3    H245826   5.113   4.597   1.827  0.9910 -1.1262 -0.6371
 7211TIP3   OH245827   3.665   5.641   1.528 -0.0513 -0.3739 -0.0474
 7211TIP3    H145828   3.649   5.578   1.599 -0.5561 -1.5878 -1.1892
 7211TIP3    H245829   3.584   5.692   1.523 -0.8547 -1.6500 -1.0293
 7212TIP3   OH245830   5.201   5.746   1.545 -0.4683 -0.0084  0.0303
 7212TIP3    H145831   5.113   5.785   1.547 -1.0103 -1.1687 -0.1695
 7212TIP3    H245832   5.185   5.652   1.546  0.7780 -0.2391 -0.2837
 7213TIP3   OH245833   3.792   4.708   1.405  0.2951 -0.4029 -0.3983
 7213TIP3    H145834   3.802   4.617   1.376 -1.9941 -0.5812 -0.8594
 7213TIP3    H245835   3.768   4.701   1.497 -0.5873 -0.3444 -0.6100
 7214TIP3   OH245836   1.978   2.427   3.772  0.1202  0.1837  0.6173
 7214TIP3    H145837   1.924   2.364   3.725  1.5655 -0.2102 -0.5642
 7214TIP3    H245838   2.000   2.493   3.706  1.7273 -0.0922  0.8445
 7215TIP3   OH245839   4.431   0.598   1.874  0.1639 -0.1099 -0.2204
 7215TIP3    H145840   4.487   0.659   1.921  0.9450 -0.8054 -0.2300
 7215TIP3    H245841   4.367   0.654   1.829  1.8589  0.8344 -1.5687
 7216TIP3   OH245842   1.438   3.459   2.465 -0.1390 -0.1434  0.5483
 7216TIP3    H145843   1.482   3.498   2.389  1.9516 -0.2337  1.6664
 7216TIP3    H245844   1.393   3.532   2.506  2.3540  0.8662  1.6615
 7217TIP3   OH245845   2.832   7.423   3.037 -0.2176  0.2488 -0.1925
 7217TIP3    H145846   2.865   7.352   3.093  0.5123  0.7573  0.0406
 7217TIP3    H245847   2.782   7.378   2.969 -0.2606 -0.4504  0.2891
 7218TIP3   OH245848   7.392   0.452   2.090  0.7279  0.6550  0.0871
 7218TIP3    H145849   7.428   0.526   2.139  1.5168 -0.0155  0.5542
 7218TIP3    H245850   7.355   0.395   2.158 -0.9186  1.1577 -0.3606
 7219TIP3   OH245851   7.263   3.452   2.403 -0.0747 -0.0797  0.3779
 7219TIP3    H145852   7.252   3.491   2.316  2.0061 -0.3730 -0.0615
 7219TIP3    H245853   7.219   3.514   2.462 -0.5667  0.6984 -0.7607
 7220TIP3   OH245854   4.839   3.573   2.698 -0.5992  0.0481 -0.0809
 7220TIP3    H145855   4.880   3.659   2.695  0.6730 -0.5073  0.3353
 7220TIP3    H245856   4.794   3.564   2.614 -1.1910  1.3154  0.0878
 7221TIP3   OH245857   6.668   1.765   2.789 -0.5701  0.0416  0.5562
 7221TIP3    H145858   6.726   1.808   2.852  1.0712 -0.3958 -0.5928
 7221TIP3    H245859   6.614   1.707   2.842  0.0750  0.4256  1.6732
 7222TIP3   OH245860   7.259   0.096   0.525  0.2392  0.2810  0.3494
 7222TIP3    H145861   7.263   0.165   0.459 -0.4918  0.9038  0.9381
 7222TIP3    H245862   7.242   0.016   0.476  0.9269  0.5402 -0.3243
 7223TIP3   OH245863   1.800   2.757   3.453 -0.2882  0.4291 -0.1457
 7223TIP3    H145864   1.720   2.808   3.464 -0.8143 -0.4730  0.4154
 7223TIP3    H245865   1.812   2.751   3.358 -0.7399  0.8040 -0.2283
 7224TIP3   OH245866   2.261   5.309   1.655  0.0585  0.4948 -0.8831
 7224TIP3    H145867   2.318   5.385   1.645 -0.1511  0.5067 -2.1889
 7224TIP3    H245868   2.275   5.258   1.575 -1.1781  0.1033 -0.8721
 7225TIP3   OH245869   6.661   2.004   2.228  0.5685 -0.4601  0.5774
 7225TIP3    H145870   6.720   2.025   2.300  1.3481 -0.2354 -0.1085
 7225TIP3    H245871   6.696   2.052   2.153 -0.3133 -0.5658  0.0764
 7226TIP3   OH245872   1.156   1.370   0.428 -0.8834  0.2382  0.1570
 7226TIP3    H145873   1.106   1.289   0.417  0.7037 -1.1335  2.1186
 7226TIP3    H245874   1.091   1.436   0.451 -2.1270 -0.6754 -0.6047
 7227TIP3   OH245875   0.190   7.165   3.343  0.1176 -0.1362 -0.2921
 7227TIP3    H145876   0.204   7.094   3.406 -1.4821  0.1890  0.4925
 7227TIP3    H245877   0.225   7.243   3.385  1.4681 -0.3617 -0.9639
 7228TIP3   OH245878   2.997   5.971   0.609  0.0575  0.1665  0.2931
 7228TIP3    H145879   3.000   5.934   0.521 -1.1088  0.1683  0.2324
 7228TIP3    H245880   2.956   5.903   0.663  2.3533 -0.5651  1.2625
 7229TIP3   OH245881   0.665   6.926   1.592  0.2782 -0.0391 -0.2381
 7229TIP3    H145882   0.596   6.861   1.606 -0.6304  0.6037 -1.5138
 7229TIP3    H245883   0.641   6.998   1.650 -0.2699  0.2708 -0.8325
 7230TIP3   OH245884   2.646   5.612   3.479  0.3096 -0.2985  0.1078
 7230TIP3    H145885   2.594   5.621   3.559  1.9178  0.0984  1.1574
 7230TIP3    H245886   2.613   5.533   3.437 -2.7928  1.2010 -0.5915
 7231TIP3   OH245887   6.802   5.504   1.648 -0.0812  0.2313  0.4851
 7231TIP3    H145888   6.827   5.588   1.687 -0.2700  0.7662 -0.5114
 7231TIP3    H245889   6.885   5.465   1.621 -0.0129  0.2010  0.7341
 7232TIP3   OH245890   3.342   7.460   0.687  0.3499 -0.1617  0.1314
 7232TIP3    H145891   3.273   7.460   0.753 -0.7063  0.0951 -0.9398
 7232TIP3    H245892   3.330   7.378   0.639  0.9184 -0.2083  0.0611
 7233TIP3   OH245893   1.918   0.376   1.546 -0.4904 -0.6063 -0.0971
 7233TIP3    H145894   1.951   0.351   1.459  1.2512  0.5365  0.1934
 7233TIP3    H245895   1.969   0.454   1.569 -2.9392  0.8632  0.7210
 7234TIP3   OH245896   1.675   4.408   1.422 -0.0266 -0.2617 -0.6200
 7234TIP3    H145897   1.727   4.356   1.483 -0.7770 -0.8519 -0.4626
 7234TIP3    H245898   1.736   4.434   1.354  0.5570 -0.6207 -0.2407
 7235TIP3   OH245899   3.921   3.876   0.993 -0.5166 -0.3051  0.1042
 7235TIP3    H145900   3.963   3.878   1.079  0.5393 -0.2235 -0.3893
 7235TIP3    H245901   3.829   3.895   1.010 -0.3872 -0.6318  1.2493
 7236TIP3   OH245902   6.708   1.795   1.842  0.4596 -0.4776  0.3553
 7236TIP3    H145903   6.702   1.712   1.794 -0.4628 -1.0896  1.4924
 7236TIP3    H245904   6.622   1.836   1.830  1.7431  1.7748 -2.6364
 7237TIP3   OH245905   0.038   2.890   1.746 -0.8593  0.3184  0.3547
 7237TIP3    H145906   0.025   2.891   1.840 -0.5728  2.1115  0.4165
 7237TIP3    H245907   0.048   2.982   1.722 -0.3565 -0.1328 -1.3458
 7238TIP3   OH245908   5.886   5.216   2.457 -0.0863  0.0164  0.5589
 7238TIP3    H145909   5.833   5.281   2.505  0.5481  1.2930 -0.3912
 7238TIP3    H245910   5.922   5.160   2.525 -1.5136 -0.0188  1.3404
 7239TIP3   OH245911   3.765   4.229   0.980 -0.1226  0.1414  0.6362
 7239TIP3    H145912   3.829   4.197   1.044  0.9165  0.8759 -0.0150
 7239TIP3    H245913   3.798   4.199   0.896  0.7255  2.5716  0.0203
 7240TIP3   OH245914   6.562   0.188   1.219 -0.1673  0.1500 -0.5685
 7240TIP3    H145915   6.618   0.250   1.174 -0.2896  0.4920 -0.2609
 7240TIP3    H245916   6.485   0.179   1.163  0.0001  0.0138 -0.7777
 7241TIP3   OH245917   3.596   2.410   2.308  0.0221 -0.5786  0.0263
 7241TIP3    H145918   3.641   2.348   2.252  0.8814 -1.5675  1.7474
 7241TIP3    H245919   3.522   2.360   2.344 -0.6532  0.1145 -0.3503
 7242TIP3   OH245920   3.905   6.186   2.096  0.1778 -0.1245 -0.6141
 7242TIP3    H145921   3.966   6.185   2.022  1.7164  0.4479  0.5788
 7242TIP3    H245922   3.882   6.278   2.106  1.7226  0.1609  0.9084
 7243TIP3   OH245923   1.965   6.868   1.490  0.2999 -0.8443 -0.0923
 7243TIP3    H145924   1.993   6.959   1.503  0.2564 -0.8191 -0.1738
 7243TIP3    H245925   1.878   6.875   1.450  0.6793 -0.9225 -0.9468
 7244TIP3   OH245926   3.403   0.169   3.410  0.2401  0.4365  0.0954
 7244TIP3    H145927   3.453   0.136   3.335  0.1493  1.5475 -0.4636
 7244TIP3    H245928   3.318   0.193   3.374  0.1125  0.7569  0.5981
 7245TIP3   OH245929   6.270   3.193   0.493  0.0890  0.0315 -0.9433
 7245TIP3    H145930   6.336   3.153   0.437  1.1484  0.0475  0.2571
 7245TIP3    H245931   6.248   3.275   0.449  0.8600  0.0246 -1.3591
 7246TIP3   OH245932   7.249   2.479   1.125  0.2186 -0.1292  0.8334
 7246TIP3    H145933   7.202   2.560   1.106  0.3352  0.0600  1.3340
 7246TIP3    H245934   7.336   2.508   1.155  0.0483 -0.4103  1.6244
 7247TIP3   OH245935   3.075   6.488   2.423 -0.1401 -0.4616 -0.1109
 7247TIP3    H145936   3.029   6.572   2.427 -0.4170 -0.6214  0.1213
 7247TIP3    H245937   3.011   6.424   2.456  0.3946 -0.6230  0.6335
 7248TIP3   OH245938   3.200   2.739   2.837 -0.3243 -0.3484 -0.0956
 7248TIP3    H145939   3.259   2.676   2.877 -2.8958 -2.0688  1.2852
 7248TIP3    H245940   3.128   2.686   2.803 -0.3891  1.4680 -3.2144
 7249TIP3   OH245941   1.449   5.121   0.850  0.0622  0.7909  0.2421
 7249TIP3    H145942   1.433   5.095   0.760 -0.7335  0.9414  0.3308
 7249TIP3    H245943   1.431   5.043   0.902  2.6150  0.0480  0.1357
 7250TIP3   OH245944   4.196   3.654   1.820  0.4544  0.4572 -0.3248
 7250TIP3    H145945   4.123   3.643   1.758  0.0719  1.3103 -0.0405
 7250TIP3    H245946   4.156   3.642   1.906  0.7808  0.2902 -0.1963
 7251TIP3   OH245947   2.989   3.027   2.308 -0.0576  0.4736  0.4417
 7251TIP3    H145948   3.022   2.959   2.249  1.6963  0.5496  1.2799
 7251TIP3    H245949   2.921   3.071   2.258  1.0937  0.2875 -1.3794
 7252TIP3   OH245950   6.736   5.180   2.204  0.2394 -0.2115  0.4546
 7252TIP3    H145951   6.674   5.110   2.182 -1.0636  1.0035  0.0922
 7252TIP3    H245952   6.795   5.140   2.268 -0.4839 -1.6282  0.2878
 7253TIP3   OH245953   0.884   2.213   2.602  0.3260 -0.4888  0.6263
 7253TIP3    H145954   0.860   2.124   2.627 -0.4937 -1.2988 -2.6044
 7253TIP3    H245955   0.920   2.205   2.514 -2.9782  2.6339 -1.2825
 7254TIP3   OH245956   1.991   5.880   1.991 -0.1311 -0.6533  0.5401
 7254TIP3    H145957   2.018   5.898   2.081 -0.5864  0.0783  0.5301
 7254TIP3    H245958   2.041   5.942   1.938 -1.4830  0.4320  0.4844
 7255TIP3   OH245959   3.052   4.310   2.492  0.2281 -0.2763 -0.3201
 7255TIP3    H145960   3.029   4.224   2.456 -0.5197 -0.1149 -0.2397
 7255TIP3    H245961   3.137   4.331   2.452  0.9132 -1.5060  0.4358
 7256TIP3   OH245962   2.691   6.544   2.814 -0.1949  0.2066  0.7692
 7256TIP3    H145963   2.645   6.587   2.741 -0.3809 -1.2388 -0.0082
 7256TIP3    H245964   2.620   6.505   2.866  0.0532 -1.8658 -0.3255
 7257TIP3   OH245965   2.064   4.183   2.533 -0.1445 -0.0992 -0.1185
 7257TIP3    H145966   2.096   4.127   2.604  0.9349  1.3019  0.5464
 7257TIP3    H245967   2.032   4.262   2.577 -0.6537  0.2545 -1.0999
 7258TIP3   OH245968   5.177   2.463   1.239  0.4144  0.6134 -0.1022
 7258TIP3    H145969   5.094   2.460   1.191  0.5680 -1.9889 -0.3414
 7258TIP3    H245970   5.160   2.416   1.320  1.9728 -1.4240 -0.8473
 7259TIP3   OH245971   5.026   2.803   2.267 -0.0619 -0.7017  0.0334
 7259TIP3    H145972   5.095   2.761   2.215  1.9653  0.2965  1.7776
 7259TIP3    H245973   5.072   2.863   2.325 -2.6237  1.9606 -0.4530
 7260TIP3   OH245974   2.555   2.722   2.703  0.3090 -0.3061  0.5036
 7260TIP3    H145975   2.496   2.743   2.631  0.4437 -1.7486 -0.0664
 7260TIP3    H245976   2.497   2.696   2.774  0.1890  0.7461  0.8045
 7261TIP3   OH245977   4.511   3.224   2.053 -0.0952 -0.0982  0.3936
 7261TIP3    H145978   4.486   3.301   2.002 -0.7249 -0.9672 -0.6512
 7261TIP3    H245979   4.548   3.163   1.989 -1.2312 -1.3535  0.8731
 7262TIP3   OH245980   7.299   1.586   0.845  0.5777  0.0902  0.0038
 7262TIP3    H145981   7.309   1.676   0.875  2.6484 -0.4222  0.9941
 7262TIP3    H245982   7.234   1.547   0.904 -2.1332  1.4628 -1.8428
 7263TIP3   OH245983   0.625   2.374   2.179  0.6759 -0.0394  0.4699
 7263TIP3    H145984   0.633   2.392   2.086 -0.7629  1.3340  0.5829
 7263TIP3    H245985   0.708   2.404   2.216  0.7685  0.5504 -0.2030
 7264TIP3   OH245986   3.909   0.812   2.947 -0.0998 -0.6077  0.1254
 7264TIP3    H145987   3.875   0.783   2.863 -0.5938 -0.8012  0.3886
 7264TIP3    H245988   4.002   0.787   2.945 -0.5662 -2.5713  0.4643
 7265TIP3   OH245989   0.047   6.995   9.202 -0.0656 -0.3389  0.4890
 7265TIP3    H145990  -0.048   7.004   9.188 -0.2361  0.8112  2.1530
 7265TIP3    H245991   0.085   7.063   9.146 -0.1883 -0.8707 -0.2655
 7266TIP3   OH245992   6.949   6.842   1.994 -0.5383  0.0166  0.0372
 7266TIP3    H145993   7.043   6.836   2.005 -0.5575 -0.4448 -0.0287
 7266TIP3    H245994   6.935   6.829   1.900 -0.4153  3.3345 -0.5774
 7267TIP3   OH245995   3.722   1.692   0.355  0.6920 -0.2679 -0.0783
 7267TIP3    H145996   3.672   1.648   0.424  0.1006 -0.7412 -0.7896
 7267TIP3    H245997   3.799   1.636   0.342  0.5948 -0.3981 -0.0922
 7268TIP3   OH245998   2.289   4.372   0.761  0.1170 -0.4628  0.2612
 7268TIP3    H145999   2.194   4.361   0.769  0.0518  0.0188  0.1747
 7268TIP3    H246000   2.324   4.334   0.842 -0.3008  1.2203  1.2863
 7269TIP3   OH246001   2.008   4.345   0.776  0.1903  0.2551 -0.2279
 7269TIP3    H146002   1.932   4.389   0.813  1.4029  1.6482  0.7554
 7269TIP3    H246003   1.982   4.253   0.767 -1.8249  0.8231 -0.6280
 7270TIP3   OH246004   2.932   4.657   1.543 -0.0104 -0.2447  0.3930
 7270TIP3    H146005   2.837   4.648   1.552 -0.2420 -0.3036 -1.6027
 7270TIP3    H246006   2.964   4.567   1.537 -0.2918 -0.2441 -2.3668
 7271TIP3   OH246007   0.084   0.691   3.016  0.6045  0.1367 -0.2400
 7271TIP3    H146008   0.033   0.613   2.995 -0.1381  0.2921  0.9008
 7271TIP3    H246009   0.041   0.762   2.968 -0.5485  0.3381  1.0325
 7272TIP3   OH246010   4.897   7.320   1.436  0.0435 -0.2992  0.3459
 7272TIP3    H146011   4.881   7.332   1.529  0.1655  0.4068  0.2785
 7272TIP3    H246012   4.973   7.375   1.417  0.0764 -0.5099 -0.1516
 7273TIP3   OH246013   5.719   0.834   2.235 -0.2873  0.5664 -0.1777
 7273TIP3    H146014   5.753   0.847   2.323  0.6656  1.2317 -0.6128
 7273TIP3    H246015   5.764   0.901   2.182  0.5136 -0.9440 -1.4875
 7274TIP3   OH246016   0.556   0.415   0.708  0.5807 -0.7985  0.5859
 7274TIP3    H146017   0.558   0.411   0.613  0.3001 -0.9729  0.5892
 7274TIP3    H246018   0.624   0.480   0.730  0.1424 -0.2096  0.2351
 7275TIP3   OH246019   2.906   1.496   2.297  0.6647 -0.4378 -0.0331
 7275TIP3    H146020   2.847   1.487   2.222 -0.0411 -1.1546  0.5908
 7275TIP3    H246021   2.978   1.435   2.278  0.5744 -0.4910 -0.2065
 7276TIP3   OH246022   1.180   1.181   2.230 -0.0285 -0.1498 -0.2183
 7276TIP3    H146023   1.142   1.187   2.143  0.3401  2.3984 -0.2675
 7276TIP3    H246024   1.275   1.190   2.216 -0.0075  0.8273  0.4667
 7277TIP3   OH246025   0.339   4.057   0.597 -0.0730 -0.2141  0.0413
 7277TIP3    H146026   0.307   3.967   0.610  0.0829 -0.2755 -0.0038
 7277TIP3    H246027   0.259   4.110   0.600 -0.4300 -0.5444 -1.8180
 7278TIP3   OH246028   7.310   0.159   2.506 -0.0267  0.1213  0.1428
 7278TIP3    H146029   7.350   0.227   2.561  0.0831  0.1445  0.0351
 7278TIP3    H246030   7.230   0.134   2.553  0.1244  0.0608  0.3692
 7279TIP3   OH246031   6.540   6.473   1.173 -0.1712 -0.1595 -0.1552
 7279TIP3    H146032   6.588   6.487   1.255  0.3210  0.6691 -0.5786
 7279TIP3    H246033   6.594   6.411   1.124 -0.1117 -0.1067 -0.1555
 7280TIP3   OH246034   7.206   2.739   1.149  0.9559 -0.1036  1.0712
 7280TIP3    H146035   7.156   2.790   1.212  0.9614  1.6190 -0.2430
 7280TIP3    H246036   7.283   2.793   1.130 -0.5517  1.0417 -2.7110
 7281TIP3   OH246037   4.251   4.169   2.060  0.2318  0.1488 -0.5860
 7281TIP3    H146038   4.210   4.161   1.974 -1.6375 -3.0591  0.4386
 7281TIP3    H246039   4.332   4.118   2.052  0.0170 -0.2185 -0.4390
 7282TIP3   OH246040   1.739   0.730   2.541  0.4768  0.1584 -0.3669
 7282TIP3    H146041   1.729   0.771   2.455 -1.2169 -0.8803 -0.7276
 7282TIP3    H246042   1.748   0.636   2.522  2.5543  0.1213  0.5090
 7283TIP3   OH246043   5.032   4.951   2.328  0.4897  0.3767  0.4120
 7283TIP3    H146044   4.989   4.929   2.246  0.6843 -0.3326  0.4983
 7283TIP3    H246045   4.966   5.000   2.377 -0.0966 -0.3931  0.4004
 7284TIP3   OH246046   1.524   6.282   0.986 -0.0499 -0.2086 -0.3303
 7284TIP3    H146047   1.499   6.352   1.047  1.2542 -1.4620  1.7493
 7284TIP3    H246048   1.608   6.250   1.019  1.3158 -0.2400 -3.4699
 7285TIP3   OH246049   5.506   1.699   1.853 -0.5040  0.2056 -0.9021
 7285TIP3    H146050   5.438   1.760   1.824  0.3454  1.2823 -0.6552
 7285TIP3    H246051   5.497   1.625   1.793 -1.6535  0.4768 -1.1049
 7286TIP3   OH246052   6.761   4.691   1.649 -0.4757  0.3130  0.2351
 7286TIP3    H146053   6.762   4.605   1.692 -0.6377 -0.1115 -0.5918
 7286TIP3    H246054   6.675   4.727   1.669 -0.1071  0.6610  1.2846
 7287TIP3   OH246055   1.230   0.125   2.870  0.3419  0.0337  0.6060
 7287TIP3    H146056   1.162   0.169   2.819  0.8335 -0.0186 -0.1193
 7287TIP3    H246057   1.191   0.110   2.956  0.4506  2.6850  1.1951
 7288TIP3   OH246058   0.661   5.074   2.991 -0.1752  0.4118 -0.9687
 7288TIP3    H146059   0.670   4.979   2.981  0.7704  0.3366  0.4136
 7288TIP3    H246060   0.653   5.106   2.901 -4.2159 -1.2487 -1.4123
 7289TIP3   OH246061   6.063   0.957   1.942  0.3953 -0.3640 -0.6315
 7289TIP3    H146062   6.064   1.005   1.859 -2.0392  1.2715  0.1673
 7289TIP3    H246063   5.972   0.929   1.951  0.3275  0.4644  1.9734
 7290TIP3   OH246064   6.108   1.290   1.554 -0.7974 -0.7045 -0.1715
 7290TIP3    H146065   6.082   1.277   1.463  0.8033 -2.3277 -0.4401
 7290TIP3    H246066   6.195   1.330   1.549 -0.8801 -0.3805  0.6676
 7291TIP3   OH246067   1.491   7.291   0.875 -0.2576  0.0176  0.0064
 7291TIP3    H146068   1.548   7.262   0.946  1.5444 -0.6156 -1.5930
 7291TIP3    H246069   1.524   7.378   0.851  0.3849 -0.5262 -1.2059
 7292TIP3   OH246070   4.000   5.937   2.979 -0.0533  0.3860 -0.1291
 7292TIP3    H146071   3.996   5.865   3.042 -0.0972  1.3486  0.9837
 7292TIP3    H246072   4.063   5.998   3.016 -0.3972  1.1635 -0.8058
 7293TIP3   OH246073   1.504   4.898   0.665  0.6767  0.3368  0.9715
 7293TIP3    H146074   1.416   4.897   0.628  1.2665 -0.1231 -0.4872
 7293TIP3    H246075   1.491   4.888   0.759 -0.7921 -0.9093  0.6664
 7294TIP3   OH246076   2.816   1.543   2.895 -0.2293  0.1385 -0.2462
 7294TIP3    H146077   2.863   1.523   2.976 -1.6400  0.4885  0.6857
 7294TIP3    H246078   2.788   1.457   2.862 -0.5752  0.0740  0.2123
 7295TIP3   OH246079   2.124   2.615   2.255 -0.2574 -0.5568 -0.1737
 7295TIP3    H146080   2.156   2.657   2.335 -3.3247 -1.0709  1.4992
 7295TIP3    H246081   2.148   2.523   2.266  2.5422 -0.1256 -1.7248
 7296TIP3   OH246082   7.469   5.747   1.741  0.1818  0.1717 -0.4585
 7296TIP3    H146083   7.508   5.729   1.656 -0.7868 -0.9994 -0.6881
 7296TIP3    H246084   7.440   5.838   1.737 -1.6999 -0.4303 -2.1712
 7297TIP3   OH246085   6.589   0.778   0.840  0.4267  0.1418  0.2105
 7297TIP3    H146086   6.664   0.729   0.872  1.8234  2.1232  0.1207
 7297TIP3    H246087   6.569   0.840   0.910 -0.5679  0.2645 -0.1568
 7298TIP3   OH246088   3.776   4.145   3.266  0.0416 -0.3167  0.5481
 7298TIP3    H146089   3.780   4.086   3.341  0.8506  0.7765  1.3912
 7298TIP3    H246090   3.833   4.218   3.289  0.5943 -0.1173 -1.2844
 7299TIP3   OH246091   5.437   4.179   2.924  0.2605 -0.7907 -0.0872
 7299TIP3    H146092   5.496   4.169   2.849 -1.4212 -0.7464 -1.4818
 7299TIP3    H246093   5.483   4.136   2.997  1.8879 -0.9418 -1.1540
 7300TIP3   OH246094   1.129   4.248   0.947 -0.6484  0.1503  0.1176
 7300TIP3    H146095   1.214   4.286   0.928  0.6519 -2.3165  0.5979
 7300TIP3    H246096   1.123   4.247   1.043 -0.5878 -0.9127  0.1223
 7301TIP3   OH246097   0.229   1.840   1.330  0.1135  0.2100 -0.6525
 7301TIP3    H146098   0.197   1.777   1.395 -1.2409  2.3009  0.8390
 7301TIP3    H246099   0.149   1.877   1.292  0.8910  0.4093 -2.1510
 7302TIP3   OH246100   7.294   5.753   1.283  0.1616 -0.2632 -0.3534
 7302TIP3    H146101   7.237   5.697   1.336  1.2267 -0.9779  0.0935
 7302TIP3    H246102   7.271   5.842   1.308 -1.6917 -0.4680 -1.2040
 7303TIP3   OH246103   3.507   5.135   1.409 -0.2717  0.1034 -0.8395
 7303TIP3    H146104   3.519   5.048   1.371 -1.2535 -0.0286 -0.8682
 7303TIP3    H246105   3.421   5.163   1.378 -0.2261  0.8351 -0.3348
 7304TIP3   OH246106   6.994   6.793   1.709 -1.1328 -0.2175 -0.1017
 7304TIP3    H146107   7.064   6.730   1.724 -0.2921  0.7453  0.1509
 7304TIP3    H246108   7.005   6.821   1.618 -0.9379  0.2146  0.0497
 7305TIP3   OH246109   4.963   1.503   0.977 -0.1835  0.0527 -0.2705
 7305TIP3    H146110   4.974   1.497   1.072  2.2413 -1.5081 -0.5544
 7305TIP3    H246111   5.016   1.578   0.952 -1.0492  0.6375 -0.4071
 7306TIP3   OH246112   4.540   5.026   1.341  0.3809 -0.3941 -0.0825
 7306TIP3    H146113   4.509   4.984   1.421  1.0781  2.1421  1.6428
 7306TIP3    H246114   4.462   5.033   1.286 -0.9577  0.7676  1.8045
 7307TIP3   OH246115   3.793   3.171   2.307  0.0729  0.0868  0.3943
 7307TIP3    H146116   3.779   3.094   2.362 -0.8101  0.4116  0.6295
 7307TIP3    H246117   3.860   3.222   2.353  1.1474 -0.8482 -0.0923
 7308TIP3   OH246118   5.486   4.447   1.653  0.3070  0.5941 -0.1696
 7308TIP3    H146119   5.459   4.460   1.743  1.0766 -0.4840  0.2325
 7308TIP3    H246120   5.415   4.397   1.613  1.1077 -1.1929  0.5617
 7309TIP3   OH246121   3.553   0.412   1.809 -0.2012  0.1381  0.2228
 7309TIP3    H146122   3.577   0.442   1.722  2.1144 -3.0228 -0.4288
 7309TIP3    H246123   3.518   0.324   1.795 -1.3306  0.1815  2.3657
 7310TIP3   OH246124   6.238   1.045   3.143 -0.7718 -0.4555  0.4605
 7310TIP3    H146125   6.244   0.951   3.159 -2.9047 -0.6209  0.5334
 7310TIP3    H246126   6.328   1.076   3.149 -0.1600 -2.3035  1.5304
 7311TIP3   OH246127   4.871   0.798   1.415 -0.5429 -0.6960  0.5675
 7311TIP3    H146128   4.929   0.726   1.438  0.5000  0.4909  1.8339
 7311TIP3    H246129   4.923   0.877   1.432 -1.0621  0.3796 -2.2687
 7312TIP3   OH246130   1.916   6.155   2.076 -0.5810 -0.5272  0.0780
 7312TIP3    H146131   1.898   6.078   2.022  2.8733 -0.4492 -1.4423
 7312TIP3    H246132   1.966   6.121   2.150 -0.2645  0.1066  0.1610
 7313TIP3   OH246133   6.066   2.764   1.122  0.0612  0.6909  0.1867
 7313TIP3    H146134   6.156   2.765   1.091 -0.6791  1.1656 -2.1668
 7313TIP3    H246135   6.034   2.676   1.102  0.1095  0.3654  1.4514
 7314TIP3   OH246136   0.278   3.242   0.715 -0.1046 -0.0924 -0.6037
 7314TIP3    H146137   0.272   3.151   0.687  1.0621 -0.6118  0.7210
 7314TIP3    H246138   0.216   3.289   0.658 -1.8161 -1.9264 -0.3652
 7315TIP3   OH246139   3.197   1.563   1.974  0.1318 -0.7559  0.0987
 7315TIP3    H146140   3.165   1.639   1.925 -2.3228 -1.6608  0.2037
 7315TIP3    H246141   3.216   1.598   2.061 -1.1645 -0.2678  0.2072
 7316TIP3   OH246142   3.979   3.337   2.406 -0.5481 -0.2416 -0.0018
 7316TIP3    H146143   3.973   3.368   2.496  0.7389 -1.4958  0.5619
 7316TIP3    H246144   4.070   3.353   2.381 -0.6831 -0.6508 -0.7962
 7317TIP3   OH246145   2.242   2.215   2.599 -0.0748 -0.2422  0.0896
 7317TIP3    H146146   2.169   2.267   2.566  1.3403  0.8571 -1.4787
 7317TIP3    H246147   2.294   2.275   2.651  0.0500 -0.8468  0.6778
 7318TIP3   OH246148   3.676   6.289   2.474  0.5266  0.1479  0.2339
 7318TIP3    H146149   3.593   6.335   2.489  0.7966 -0.0031  2.6424
 7318TIP3    H246150   3.734   6.322   2.543  1.6829 -1.5744  0.1445
 7319TIP3   OH246151   0.271   3.483   2.665  0.1116 -0.3548  0.8734
 7319TIP3    H146152   0.342   3.502   2.726  0.8581 -1.1560  0.2723
 7319TIP3    H246153   0.216   3.420   2.711  0.4077 -0.5892  0.9085
 7320TIP3   OH246154   1.005   2.056   3.593 -0.1607  0.0473  0.3008
 7320TIP3    H146155   1.100   2.061   3.583 -0.1248 -2.1642 -1.1725
 7320TIP3    H246156   0.974   2.145   3.577  1.5665  0.5384 -0.4967
 7321TIP3   OH246157   1.439   4.474   1.973  0.3671 -0.4728 -0.4241
 7321TIP3    H146158   1.490   4.555   1.966 -0.9582  0.4023 -0.2709
 7321TIP3    H246159   1.427   4.445   1.882 -0.2168  0.2060 -0.5754
 7322TIP3   OH246160   0.189   1.759   2.498  0.0608  0.1478 -0.1491
 7322TIP3    H146161   0.174   1.810   2.578  3.4528  0.8833  0.1460
 7322TIP3    H246162   0.177   1.668   2.526  1.4669  0.3651  1.3524
 7323TIP3   OH246163   1.202   5.543   1.216  0.4883  0.1544  0.3689
 7323TIP3    H146164   1.273   5.486   1.243  0.4915  0.1170  0.2826
 7323TIP3    H246165   1.193   5.607   1.287  2.1820  1.6174 -0.6543
 7324TIP3   OH246166   5.458   6.494   1.771 -0.4185 -0.0234 -0.3030
 7324TIP3    H146167   5.546   6.459   1.787  0.1384  2.1641  2.0558
 7324TIP3    H246168   5.460   6.521   1.679  1.0397 -0.8726 -0.5646
 7325TIP3   OH246169   4.257   5.161   1.509 -0.1736 -0.4313 -0.2677
 7325TIP3    H146170   4.178   5.124   1.549  0.6261 -1.0966  0.7434
 7325TIP3    H246171   4.325   5.149   1.575  0.6850  0.5329 -0.9530
 7326TIP3   OH246172   6.017   2.558   1.909  0.0587 -0.0337 -0.4887
 7326TIP3    H146173   6.027   2.475   1.865 -0.0239  0.7053 -1.9495
 7326TIP3    H246174   6.044   2.541   2.000  2.6763 -0.9997 -1.3610
 7327TIP3   OH246175   5.361   3.941   1.937 -0.2258 -0.2028  0.1317
 7327TIP3    H146176   5.379   3.868   1.877 -1.0670  0.4131 -0.9149
 7327TIP3    H246177   5.277   3.918   1.977  0.2717 -0.5490  0.9905
 7328TIP3   OH246178   5.995   3.985   1.963 -0.0930 -0.0511 -0.2223
 7328TIP3    H146179   5.942   3.963   1.887  0.1957 -1.3779 -0.0625
 7328TIP3    H246180   5.992   3.907   2.019  1.0350  0.2820  0.3494
 7329TIP3   OH246181   0.348   2.927   0.544 -0.0029  0.1350 -0.4321
 7329TIP3    H146182   0.402   2.987   0.492 -0.3436 -0.2225 -1.2255
 7329TIP3    H246183   0.390   2.841   0.533 -0.5344 -0.0882 -0.8054
 7330TIP3   OH246184   1.627   0.720   3.102  0.6995  0.2690 -0.2003
 7330TIP3    H146185   1.681   0.702   3.178  2.5989 -1.3314 -1.8377
 7330TIP3    H246186   1.686   0.763   3.040 -0.5537  0.7065 -1.1409
 7331TIP3   OH246187   3.487   2.504   2.597  0.3473 -0.3407 -0.2108
 7331TIP3    H146188   3.547   2.429   2.593 -0.8094 -1.2356 -2.2527
 7331TIP3    H246189   3.401   2.464   2.613 -0.2570  0.5406 -1.1342
 7332TIP3   OH246190   5.766   4.856   1.318 -0.0643 -0.2704 -0.8194
 7332TIP3    H146191   5.806   4.841   1.404 -1.9836  0.7775  0.3061
 7332TIP3    H246192   5.762   4.951   1.309 -0.3860 -0.3674 -1.8576
 7333TIP3   OH246193   4.099   3.466   1.096 -0.5957  0.1199 -0.4597
 7333TIP3    H146194   4.041   3.519   1.042  0.8068  1.6479 -0.5177
 7333TIP3    H246195   4.099   3.380   1.054 -0.8240  0.8124 -1.9182
 7334TIP3   OH246196   4.145   4.900   1.987  0.1159 -0.1187  0.8117
 7334TIP3    H146197   4.150   4.826   1.926 -2.3359 -0.5124  0.9937
 7334TIP3    H246198   4.153   4.860   2.073  0.2246  0.0239  0.8676
 7335TIP3   OH246199   2.667   4.540   3.420 -0.0433  0.1098  0.2474
 7335TIP3    H146200   2.671   4.454   3.461 -0.8611 -0.6547 -1.1923
 7335TIP3    H246201   2.582   4.542   3.376  0.1129  1.5142 -0.0441
 7336TIP3   OH246202   3.112   2.791   2.512  0.2607 -0.0804 -0.0351
 7336TIP3    H146203   3.047   2.834   2.458  0.9152 -0.1714 -0.9181
 7336TIP3    H246204   3.084   2.699   2.514 -0.0959  0.0357  0.2806
 7337TIP3   OH246205   6.782   1.432   2.173  0.0679 -0.5832 -0.3547
 7337TIP3    H146206   6.840   1.464   2.242 -1.4094  0.1750  0.5652
 7337TIP3    H246207   6.734   1.509   2.144 -0.2604 -1.1413 -1.3336
 7338TIP3   OH246208   5.872   5.395   1.613  0.5371 -0.0265  0.1597
 7338TIP3    H146209   5.916   5.459   1.557  2.5632 -1.1681  0.3863
 7338TIP3    H246210   5.935   5.325   1.625 -1.1383 -1.4694  1.0296
 7339TIP3   OH246211   2.861   4.905   1.133 -0.1475 -0.4590  0.1700
 7339TIP3    H146212   2.899   4.943   1.213 -1.3608  1.0641  0.0782
 7339TIP3    H246213   2.818   4.825   1.162  1.3771 -1.1558  0.6112
 7340TIP3   OH246214   7.039   1.357   0.470  0.1256 -0.5380 -0.1366
 7340TIP3    H146215   7.114   1.404   0.506  0.1131 -0.6111 -0.0121
 7340TIP3    H246216   6.979   1.426   0.441 -0.3161 -0.4531  0.9268
 7341TIP3   OH246217   3.901   7.373   2.019  0.9280  0.3307 -0.1957
 7341TIP3    H146218   3.968   7.336   2.077  1.0092  0.0206 -0.4808
 7341TIP3    H246219   3.833   7.406   2.078  0.3816 -1.1717  0.0641
 7342TIP3   OH246220   3.879   6.953   0.825 -0.4038 -0.1595  0.7365
 7342TIP3    H146221   3.887   7.014   0.897  0.5186  0.1730  0.3673
 7342TIP3    H246222   3.890   6.866   0.865  0.5856  0.0469  0.9368
 7343TIP3   OH246223   0.787   2.714   2.267 -0.3683 -0.5136 -0.4263
 7343TIP3    H146224   0.818   2.711   2.177  0.1166  0.6684 -0.3096
 7343TIP3    H246225   0.714   2.775   2.266 -0.6203 -0.8064 -0.0961
 7344TIP3   OH246226   6.847   3.269   1.599  0.4891 -0.0774  0.5434
 7344TIP3    H146227   6.931   3.229   1.623  0.3240 -0.2835  0.7949
 7344TIP3    H246228   6.816   3.217   1.525  0.7676  0.2457  0.2006
 7345TIP3   OH246229   6.206   3.318   2.067 -0.1350  0.1587  0.2904
 7345TIP3    H146230   6.125   3.290   2.111 -0.4948  0.3514 -0.2335
 7345TIP3    H246231   6.185   3.405   2.032  0.5346  0.5116  0.7632
 7346TIP3   OH246232   4.073   7.193   2.101 -0.8845 -0.2186 -0.3432
 7346TIP3    H146233   4.138   7.169   2.167 -0.3883 -1.2912 -1.1926
 7346TIP3    H246234   4.011   7.120   2.101 -0.6272 -0.4515 -1.3588
 7347TIP3   OH246235   1.897   7.196   1.197 -0.2263 -0.0424 -0.3424
 7347TIP3    H146236   1.883   7.164   1.286  0.1686  0.4173 -0.1123
 7347TIP3    H246237   1.964   7.263   1.206 -0.9872  0.7946 -0.8289
 7348TIP3   OH246238   4.832   3.952   1.218 -0.0562 -0.0224 -0.0479
 7348TIP3    H146239   4.801   4.041   1.203 -0.5912 -0.0604  0.7613
 7348TIP3    H246240   4.805   3.932   1.308  0.3952 -0.8592 -0.0881
 7349TIP3   OH246241   4.063   2.051   2.047  0.1910 -0.1439  0.3147
 7349TIP3    H146242   4.072   1.957   2.031  2.4658  0.1089 -0.1774
 7349TIP3    H246243   4.029   2.057   2.136 -1.2659 -1.4179 -0.1063
 7350TIP3   OH246244   5.985   6.997   1.971  0.0593 -0.4349  0.2127
 7350TIP3    H146245   5.901   7.043   1.961  0.7604  1.0747  0.9151
 7350TIP3    H246246   5.964   6.923   2.028 -1.3849 -1.8982 -2.0743
 7351TIP3   OH246247   5.599   0.234   1.053 -0.0349  0.3991  0.4411
 7351TIP3    H146248   5.626   0.266   0.967  0.8253 -0.5306  0.3478
 7351TIP3    H246249   5.503   0.237   1.050 -0.0322  3.5405  0.7094
 7352TIP3   OH246250   3.018   4.074   2.367  0.3930 -0.5895  0.0591
 7352TIP3    H146251   3.093   4.019   2.345 -0.6004 -2.0373  0.1702
 7352TIP3    H246252   2.951   4.050   2.302 -0.2954 -0.0188  0.5462
 7353TIP3   OH246253   1.107   3.592   1.325 -0.6399 -0.2926  0.1977
 7353TIP3    H146254   1.051   3.548   1.260 -1.0562 -2.9661  2.1703
 7353TIP3    H246255   1.049   3.656   1.367 -0.3706  1.4521 -1.9132
 7354TIP3   OH246256   4.601   6.187   1.871 -0.5524 -0.3033  0.7530
 7354TIP3    H146257   4.538   6.162   1.804 -0.3770  0.1967  0.4011
 7354TIP3    H246258   4.604   6.282   1.868 -0.8182 -0.2486  1.7228
 7355TIP3   OH246259   6.498   4.246   1.627 -0.4615 -0.0405 -0.4403
 7355TIP3    H146260   6.534   4.168   1.585 -0.8539 -0.0113 -0.8470
 7355TIP3    H246261   6.568   4.279   1.683  0.1447  0.0381 -1.2343
 7356TIP3   OH246262   3.767   2.223   3.392 -0.8261 -0.1743  0.0583
 7356TIP3    H146263   3.791   2.305   3.349 -0.5621 -0.1383  0.2667
 7356TIP3    H246264   3.697   2.187   3.339 -1.5427  0.6185  0.4449
 7357TIP3   OH246265   3.903   3.889   0.452 -0.2473  0.1641 -0.3408
 7357TIP3    H146266   3.976   3.895   0.389  2.0001 -3.2982  1.5978
 7357TIP3    H246267   3.944   3.906   0.537 -2.1603 -0.0650  0.6683
 7358TIP3   OH246268   3.581   0.453   3.457 -0.4814  0.2992 -0.0318
 7358TIP3    H146269   3.497   0.412   3.442 -0.7512  0.3640  1.1526
 7358TIP3    H246270   3.644   0.397   3.413 -1.0511 -0.2759 -0.1271
 7359TIP3   OH246271   1.088   6.423   1.498 -0.4717  0.0429 -0.1446
 7359TIP3    H146272   1.059   6.441   1.408 -0.3928  0.9370 -0.0026
 7359TIP3    H246273   1.176   6.389   1.488 -1.4376 -2.5196 -0.5682
 7360TIP3   OH246274   4.413   2.269   1.422 -0.0411  0.0900  0.1871
 7360TIP3    H146275   4.374   2.348   1.385 -0.1570 -0.2173 -0.3434
 7360TIP3    H246276   4.418   2.207   1.349 -0.3182 -0.5327  0.6835
 7361TIP3   OH246277   1.984   5.802   0.922  0.1489 -0.3093  0.2401
 7361TIP3    H146278   1.906   5.816   0.869  0.2738  0.0816  0.1609
 7361TIP3    H246279   1.961   5.834   1.009 -0.4380 -1.9445  0.7388
 7362TIP3   OH246280   1.751   1.054   1.448 -0.0710  0.6093 -0.0921
 7362TIP3    H146281   1.812   1.106   1.501 -0.7032  0.2057  1.0715
 7362TIP3    H246282   1.673   1.109   1.440 -0.6040  0.0195  0.8333
 7363TIP3   OH246283   6.252   4.657   2.094  0.4110  0.3231  0.3055
 7363TIP3    H146284   6.340   4.660   2.132  0.8373  1.8243 -0.7363
 7363TIP3    H246285   6.212   4.740   2.119 -0.8862 -0.5068  1.0928
 7364TIP3   OH246286   0.227   1.063   1.394  0.1539 -0.1413  0.0846
 7364TIP3    H146287   0.254   0.972   1.411  0.7558  0.0430  0.1215
 7364TIP3    H246288   0.177   1.058   1.313  0.4086 -0.4664 -0.0539
 7365TIP3   OH246289   6.265   6.639   2.777 -0.5557 -1.0034  0.1362
 7365TIP3    H146290   6.292   6.718   2.731  1.2422  0.1908  2.9663
 7365TIP3    H246291   6.169   6.637   2.768 -0.5696  1.1164 -0.5739
 7366TIP3   OH246292   4.703   1.479   0.885  0.1810 -0.1938 -0.0454
 7366TIP3    H146293   4.653   1.557   0.910  0.3243 -0.1898  0.2341
 7366TIP3    H246294   4.788   1.491   0.927  0.5771  0.0149 -0.8843
 7367TIP3   OH246295   7.182   3.960   1.574  0.3625 -0.3638  0.0722
 7367TIP3    H146296   7.262   4.001   1.605 -0.7176  1.6853  0.2994
 7367TIP3    H246297   7.152   4.015   1.502 -0.0353 -1.9864 -1.0553
 7368TIP3   OH246298   0.873   3.854   1.145 -0.5343 -0.2896 -0.6774
 7368TIP3    H146299   0.910   3.937   1.114  2.2391 -1.3810 -0.5200
 7368TIP3    H246300   0.795   3.841   1.091 -1.5432  2.7650 -0.1482
 7369TIP3   OH246301   0.489   6.758   3.546  0.5143  0.2472 -0.6111
 7369TIP3    H146302   0.549   6.766   3.620 -0.9763  0.9980  0.5765
 7369TIP3    H246303   0.459   6.667   3.550 -0.1546  0.4904  0.2193
 7370TIP3   OH246304   6.010   5.711   2.824 -0.0402  0.0766  0.1115
 7370TIP3    H146305   6.099   5.740   2.846 -1.0544  2.1755  1.8192
 7370TIP3    H246306   6.001   5.627   2.869  1.4839 -0.8705 -1.2220
 7371TIP3   OH246307   1.096   6.662   1.833 -0.2942  0.2983  0.1714
 7371TIP3    H146308   1.151   6.739   1.819  1.7598 -1.5193 -2.5838
 7371TIP3    H246309   1.022   6.675   1.773  0.0599  0.1207 -0.3058
 7372TIP3   OH246310   1.594   1.964   1.063  0.4971 -0.0001  0.2055
 7372TIP3    H146311   1.689   1.955   1.067  0.5661  0.1388 -0.8480
 7372TIP3    H246312   1.566   1.892   1.007 -0.2746 -1.4065  2.2585
 7373TIP3   OH246313   1.309   6.540   0.740  0.5042  0.0202 -0.1443
 7373TIP3    H146314   1.260   6.565   0.662 -1.5245 -0.3517  0.9088
 7373TIP3    H246315   1.371   6.474   0.710 -0.2030 -0.0826 -1.4415
 7374TIP3   OH246316   1.745   2.115   2.101 -0.3928 -0.1131  0.1470
 7374TIP3    H146317   1.686   2.090   2.172  0.2825  1.7802  1.4312
 7374TIP3    H246318   1.698   2.182   2.052 -0.1828 -0.2065 -0.1914
 7375TIP3   OH246319   3.920   5.460   1.802  0.1742  0.9505  0.0069
 7375TIP3    H146320   3.871   5.384   1.834  1.1976  0.5104  0.5604
 7375TIP3    H246321   3.908   5.457   1.707 -0.0060  0.2426  0.0422
 7376TIP3   OH246322   1.822   6.398   1.603  0.3564 -0.4254 -0.0373
 7376TIP3    H146323   1.810   6.448   1.684  1.7231  0.5480 -0.4045
 7376TIP3    H246324   1.914   6.411   1.580  0.2446 -1.5295 -1.2029
 7377TIP3   OH246325   6.926   1.728   1.575  0.0796 -0.0615  0.2588
 7377TIP3    H146326   6.965   1.776   1.502 -1.1755 -0.2540 -0.5789
 7377TIP3    H246327   6.956   1.775   1.653 -0.2224  1.4363 -0.4818
 7378TIP3   OH246328   3.416   2.117   1.713 -0.1406 -0.2021  0.4392
 7378TIP3    H146329   3.336   2.164   1.689 -0.2087 -0.3330  0.4122
 7378TIP3    H246330   3.471   2.121   1.635  0.3572  0.8821  0.8087
 7379TIP3   OH246331   1.965   6.792   2.244 -0.1475  0.4478  0.2854
 7379TIP3    H146332   1.877   6.817   2.272  0.1699  0.1142  1.6530
 7379TIP3    H246333   1.963   6.801   2.149 -1.9783 -0.5263  0.1765
 7380TIP3   OH246334   0.227   5.117   0.923 -0.1299 -0.2303 -0.4926
 7380TIP3    H146335   0.226   5.212   0.924  0.3106 -0.1976 -1.5026
 7380TIP3    H246336   0.310   5.094   0.881 -0.9120 -1.0225 -1.6703
 7381TIP3   OH246337   7.037   5.189   1.857  0.1912  0.2279 -0.2458
 7381TIP3    H146338   7.023   5.095   1.844  0.8074  0.4133 -2.7638
 7381TIP3    H246339   6.949   5.227   1.850 -0.0469 -0.1227  0.6791
 7382TIP3   OH246340   1.815   5.873   1.775 -0.1836  0.6207 -0.0578
 7382TIP3    H146341   1.798   5.779   1.771  0.0152  0.5535  0.5496
 7382TIP3    H246342   1.899   5.881   1.820  1.3935  0.9672 -2.8604
 7383TIP3   OH246343   3.594   1.824   1.286  0.2244 -0.4574 -0.1510
 7383TIP3    H146344   3.597   1.761   1.214 -0.3147  0.9335 -1.4230
 7383TIP3    H246345   3.645   1.899   1.256  0.2827  0.0229  1.0618
 7384TIP3   OH246346   3.989   1.756   2.853 -0.8064 -0.1727 -0.0711
 7384TIP3    H146347   4.001   1.724   2.942 -1.5831  0.8581  0.4347
 7384TIP3    H246348   3.995   1.678   2.798 -2.7676 -1.2471  1.1020
 7385TIP3   OH246349   0.653   7.017   2.765  0.5755 -0.2946  0.4961
 7385TIP3    H146350   0.604   6.998   2.684  0.1095  1.9901  0.1826
 7385TIP3    H246351   0.745   7.009   2.740  0.5128  2.2388 -0.8523
 7386TIP3   OH246352   0.146   4.825   1.641 -0.4740  0.2884  0.2041
 7386TIP3    H146353   0.131   4.799   1.550 -0.1846  0.6103  0.0642
 7386TIP3    H246354   0.107   4.754   1.693 -1.4280  0.5226 -0.1628
 7387TIP3   OH246355   2.344   1.492   0.529 -0.2251 -0.2374 -0.0813
 7387TIP3    H146356   2.279   1.543   0.480  1.0569 -0.0311 -1.6497
 7387TIP3    H246357   2.292   1.427   0.577 -1.6681  0.7034 -0.2890
 7388TIP3   OH246358   2.335   3.817   3.030 -0.2096  0.3178  0.6506
 7388TIP3    H146359   2.379   3.820   2.946 -0.3937  1.0597  0.5668
 7388TIP3    H246360   2.403   3.840   3.094 -0.2786  0.6649  0.6035
 7389TIP3   OH246361   0.646   1.839   1.619  0.3278 -0.1222 -0.5669
 7389TIP3    H146362   0.559   1.879   1.622  0.4888  0.2404  2.3842
 7389TIP3    H246363   0.705   1.907   1.651  1.1724 -1.4203  0.7606
 7390TIP3   OH246364   3.836   2.552   0.747  0.0122  0.7038 -0.0961
 7390TIP3    H146365   3.900   2.621   0.726  0.8574 -0.2198 -0.6509
 7390TIP3    H246366   3.883   2.493   0.806 -0.7217  0.6139  0.4119
 7391TIP3   OH246367   6.743   0.624   2.027 -0.1535 -0.2909  0.1335
 7391TIP3    H146368   6.790   0.690   2.079 -1.1317  0.0466  0.6175
 7391TIP3    H246369   6.762   0.648   1.936  0.5517 -0.1212  0.3189
 7392TIP3   OH246370   6.804   5.965   0.322 -0.0877  0.2428 -0.3878
 7392TIP3    H146371   6.767   5.938   0.238 -0.6006 -1.3696  0.3135
 7392TIP3    H246372   6.727   5.981   0.377  0.2389  1.5007 -0.2778
 7393TIP3   OH246373   1.159   1.328   2.752  0.4424  0.1321  0.3124
 7393TIP3    H146374   1.087   1.266   2.765 -0.1629  1.0154  1.2251
 7393TIP3    H246375   1.188   1.352   2.840  0.6565  1.1705 -0.0231
 7394TIP3   OH246376   4.632   4.159   0.816  0.4333  0.4204  0.8186
 7394TIP3    H146377   4.682   4.240   0.823  1.7442 -0.3689  0.8578
 7394TIP3    H246378   4.586   4.152   0.900  0.6471  0.8933  0.9774
 7395TIP3   OH246379   1.730   7.011   2.742 -0.1344 -0.1093 -0.5856
 7395TIP3    H146380   1.674   6.964   2.804  0.5376 -0.5892 -0.3270
 7395TIP3    H246381   1.697   6.987   2.656 -0.4282 -0.2461 -0.4377
 7396TIP3   OH246382   0.417   2.131   2.919  0.5029  0.0097 -0.0887
 7396TIP3    H146383   0.460   2.085   2.991  0.4711  0.1280  0.0079
 7396TIP3    H246384   0.330   2.153   2.953  1.1117  1.6583  0.5110
 7397TIP3   OH246385   3.713   0.408   3.136 -0.3507  0.6813  1.0543
 7397TIP3    H146386   3.786   0.470   3.128  0.0886 -0.0426 -0.8868
 7397TIP3    H246387   3.735   0.356   3.214  0.7429  1.0676  1.0200
 7398TIP3   OH246388   5.531   4.902   1.543  0.3145 -0.4613  0.7078
 7398TIP3    H146389   5.583   4.823   1.555  1.4445  0.1575  0.0069
 7398TIP3    H246390   5.591   4.974   1.561 -0.1864  0.2828 -0.4829
 7399TIP3   OH246391   4.731   6.329   2.896 -0.1146  0.1288 -0.5283
 7399TIP3    H146392   4.733   6.264   2.825 -0.4087  0.3447 -0.7371
 7399TIP3    H246393   4.818   6.368   2.894  0.4868 -1.1079  0.4032
 7400TIP3   OH246394   5.058   6.758   2.281 -0.1106 -0.4250 -0.3654
 7400TIP3    H146395   5.115   6.688   2.247 -0.3378 -0.5688 -0.4502
 7400TIP3    H246396   5.119   6.821   2.319  0.3153  0.5596 -2.5131
 7401TIP3   OH246397   4.959   5.881   1.523 -0.5738  0.3278  0.3083
 7401TIP3    H146398   4.879   5.841   1.556 -0.5998 -0.2552 -0.4084
 7401TIP3    H246399   4.939   5.903   1.432  0.1537 -0.0538  0.0459
 7402TIP3   OH246400   4.537   4.347   1.840  0.3506  0.0903  0.7648
 7402TIP3    H146401   4.630   4.341   1.866  0.1728 -0.4757  1.2939
 7402TIP3    H246402   4.521   4.441   1.833  1.3444  0.1848 -0.7861
 7403TIP3   OH246403   2.934   4.932   1.692  0.1360 -0.2920 -0.2959
 7403TIP3    H146404   3.025   4.905   1.695  0.1522 -0.1981  0.0332
 7403TIP3    H246405   2.885   4.851   1.706  0.1544 -0.4642 -1.1798
 7404TIP3   OH246406   5.822   1.254   1.191  0.4840  0.1059  0.2374
 7404TIP3    H146407   5.867   1.334   1.164  0.4234  0.1852  0.3702
 7404TIP3    H246408   5.875   1.220   1.263 -1.0305  1.5751  2.1557
 7405TIP3   OH246409   0.999   6.255   2.385  0.3553 -0.3119 -0.4304
 7405TIP3    H146410   1.024   6.233   2.295  1.0190 -0.0676 -0.3115
 7405TIP3    H246411   0.976   6.348   2.381  0.2768 -0.3289 -0.3708
 7406TIP3   OH246412   2.623   4.296   2.073 -0.2805  0.5002  0.0721
 7406TIP3    H146413   2.718   4.301   2.074 -0.0601 -1.4040 -1.7616
 7406TIP3    H246414   2.599   4.317   1.983 -1.3116 -1.4808 -0.1889
 7407TIP3   OH246415   0.197   3.885   2.921 -0.4222 -0.3933 -0.2190
 7407TIP3    H146416   0.141   3.825   2.872  1.2883 -0.5461 -2.1340
 7407TIP3    H246417   0.270   3.904   2.861 -0.1425  2.4424  0.8738
 7408TIP3   OH246418   5.681   5.440   2.158 -0.2690  0.4897  0.0219
 7408TIP3    H146419   5.773   5.467   2.157  0.3382 -1.3451  1.5621
 7408TIP3    H246420   5.672   5.382   2.083 -0.5689  1.7191 -0.9354
 7409TIP3   OH246421   1.066   5.267   2.618  0.2424 -0.3090  0.5241
 7409TIP3    H146422   1.126   5.192   2.626  0.0453 -0.4313  0.8684
 7409TIP3    H246423   1.102   5.332   2.678 -0.2965 -0.6024  1.1759
 7410TIP3   OH246424   7.223   3.435   1.564  0.0014 -0.0238  0.1760
 7410TIP3    H146425   7.186   3.347   1.568  1.1567 -0.4798  1.2725
 7410TIP3    H246426   7.171   3.485   1.628 -0.0244 -0.1506  0.2541
 7411TIP3   OH246427   0.757   0.237   1.112 -0.1228  0.3313 -0.1329
 7411TIP3    H146428   0.755   0.147   1.079  0.3935 -0.2482  1.3461
 7411TIP3    H246429   0.797   0.288   1.041 -0.6257 -0.5482 -1.0790
 7412TIP3   OH246430   5.045   1.231   0.999 -0.1142 -0.3399  0.4723
 7412TIP3    H146431   4.989   1.299   0.960  1.8619  1.1005 -0.0066
 7412TIP3    H246432   4.985   1.177   1.050 -1.8133  1.6913  0.7764
 7413TIP3   OH246433   5.887   0.685   0.985 -0.0688  0.5620 -0.3157
 7413TIP3    H146434   5.897   0.681   1.080  0.2384  0.1638 -0.3619
 7413TIP3    H246435   5.816   0.624   0.967  1.2493 -0.9762 -0.5325
 7414TIP3   OH246436   3.287   2.335   2.924 -0.8473  0.0751 -0.2451
 7414TIP3    H146437   3.280   2.322   3.018 -0.3325 -2.8159 -0.5020
 7414TIP3    H246438   3.301   2.429   2.913 -0.0902  0.3848  2.5948
 7415TIP3   OH246439   3.243   1.402   2.428 -0.1254  0.7523 -0.5064
 7415TIP3    H146440   3.184   1.385   2.355  1.5240 -0.3557 -1.6514
 7415TIP3    H246441   3.292   1.320   2.439 -0.3084  0.8711  1.8835
 7416TIP3   OH246442   4.752   3.925   2.635  0.0317 -0.0508  0.1502
 7416TIP3    H146443   4.709   3.893   2.715 -1.0121 -0.9151 -0.7321
 7416TIP3    H246444   4.838   3.882   2.636  0.2649  0.3860  1.0713
 7417TIP3   OH246445   4.596   6.273   1.252  0.0913 -0.2626  0.3936
 7417TIP3    H146446   4.585   6.261   1.346 -0.0134 -1.0163  0.2892
 7417TIP3    H246447   4.690   6.272   1.238  0.1346  0.5349  0.5696
 7418TIP3   OH246448   2.021   0.913   1.118 -0.0574 -0.2120  0.2564
 7418TIP3    H146449   1.943   0.903   1.174  0.1310 -0.4493  0.4767
 7418TIP3    H246450   2.058   0.825   1.112  1.1340  0.1723  1.5191
 7419TIP3   OH246451   2.784   0.188   0.498 -0.3148 -0.1801 -0.3809
 7419TIP3    H146452   2.847   0.142   0.553 -0.2771 -0.4839 -0.6781
 7419TIP3    H246453   2.700   0.148   0.519 -0.8295  1.8087  1.7980
 7420TIP3   OH246454   4.434   4.532   2.778 -0.3340 -0.0855 -0.3898
 7420TIP3    H146455   4.478   4.450   2.802  1.5074  1.3997  1.7908
 7420TIP3    H246456   4.378   4.551   2.853 -0.9614  0.5032 -1.0020
 7421TIP3   OH246457   4.076   2.817   1.582 -0.0256 -0.7194 -0.0108
 7421TIP3    H146458   4.081   2.724   1.559  1.8940 -1.1049  1.6502
 7421TIP3    H246459   4.016   2.820   1.656 -0.2786 -0.6100 -0.2221
 7422TIP3   OH246460   2.669   2.861   3.182  0.5168 -0.6319 -0.4692
 7422TIP3    H146461   2.612   2.785   3.180 -1.1033  0.5494 -1.1077
 7422TIP3    H246462   2.667   2.896   3.093  1.1441  0.2234 -0.1680
 7423TIP3   OH246463   0.741   1.631   1.502 -0.4943  0.4252  0.2506
 7423TIP3    H146464   0.708   1.708   1.549  0.1534  0.9728 -0.1701
 7423TIP3    H246465   0.801   1.667   1.436  0.7106 -0.4984  0.7998
 7424TIP3   OH246466   3.276   3.847   3.732  0.2462  0.2803 -0.0771
 7424TIP3    H146467   3.365   3.833   3.762  0.0590  0.2833  0.4869
 7424TIP3    H246468   3.246   3.761   3.701  0.1392  0.0814  0.5665
 7425TIP3   OH246469   4.432   5.095   0.952  0.2047  0.0597 -0.0690
 7425TIP3    H146470   4.389   5.150   0.887  0.3541  1.3478  0.8926
 7425TIP3    H246471   4.488   5.036   0.900 -0.2188  0.5681 -1.1307
 7426TIP3   OH246472   2.036   5.720   2.352 -0.0219  0.8188  0.3883
 7426TIP3    H146473   1.967   5.663   2.386 -0.2301  0.9272  0.1499
 7426TIP3    H246474   1.993   5.804   2.336 -0.3121  0.3517 -1.5666
 7427TIP3   OH246475   2.489   1.331   1.584 -0.2074  0.1664  0.5410
 7427TIP3    H146476   2.584   1.320   1.573  0.2763  3.3510  0.6397
 7427TIP3    H246477   2.451   1.270   1.520  1.9679  0.1928 -0.8937
 7428TIP3   OH246478   2.608   0.667   0.406 -0.3176 -0.3047 -0.2841
 7428TIP3    H146479   2.557   0.713   0.473  2.2418  0.6616  1.1611
 7428TIP3    H246480   2.693   0.712   0.407  0.8294 -2.2978 -1.9955
 7429TIP3   OH246481   7.192   1.199   1.432 -0.4230  0.1653  0.0434
 7429TIP3    H146482   7.153   1.265   1.490  0.7231 -0.3994  1.5319
 7429TIP3    H246483   7.142   1.205   1.351 -1.9046  1.2023  0.9891
 7430TIP3   OH246484   0.693   1.545   0.787 -0.1658 -0.0174  0.9259
 7430TIP3    H146485   0.599   1.526   0.782 -0.4300  1.3621  0.3642
 7430TIP3    H246486   0.723   1.493   0.862 -1.8023  1.1912  2.5067
 7431TIP3   OH246487   4.769   5.320   2.399  0.4162 -0.2770 -0.8051
 7431TIP3    H146488   4.816   5.307   2.316  0.8549  0.2190 -0.6418
 7431TIP3    H246489   4.789   5.410   2.424  0.0474 -0.3287 -0.3069
 7432TIP3   OH246490   3.685   0.266   2.283 -0.2139 -0.3013  0.4644
 7432TIP3    H146491   3.629   0.277   2.359  1.5035 -0.8676  1.8732
 7432TIP3    H246492   3.692   0.353   2.244 -2.3398 -0.2866 -0.0086
 7433TIP3   OH246493   4.167   1.761   2.206  0.4218 -0.1715 -0.3331
 7433TIP3    H146494   4.101   1.809   2.258  1.1189  0.0493  0.3751
 7433TIP3    H246495   4.137   1.770   2.116 -0.5249 -0.0792 -0.0254
 7434TIP3   OH246496   0.626   0.910   0.640  0.4122  0.2405 -0.2369
 7434TIP3    H146497   0.705   0.866   0.609 -0.0929  0.6838 -2.3146
 7434TIP3    H246498   0.554   0.855   0.609 -0.1538  1.2985 -0.8643
 7435TIP3   OH246499   1.132   0.338   1.020  0.2435 -0.0808 -0.0314
 7435TIP3    H146500   1.099   0.249   1.011 -0.5757  0.2944 -0.8398
 7435TIP3    H246501   1.088   0.372   1.098 -1.0054  0.2708 -0.8554
 7436TIP3   OH246502   6.522   3.861   2.987 -0.0780 -0.0976 -0.0998
 7436TIP3    H146503   6.479   3.873   2.902  1.6883 -1.3557 -1.2516
 7436TIP3    H246504   6.521   3.767   3.002  1.1979 -0.0573  0.3888
 7437TIP3   OH246505   1.297   4.930   1.404  0.5735  0.5135  0.1059
 7437TIP3    H146506   1.214   4.903   1.444  0.0257  2.9876  0.7953
 7437TIP3    H246507   1.359   4.932   1.476  0.6525  0.9112  0.0265
 7438TIP3   OH246508   2.063   2.894   1.931 -0.2449  1.2132 -0.6288
 7438TIP3    H146509   2.084   2.984   1.956 -0.4516  1.2218 -0.4847
 7438TIP3    H246510   2.001   2.864   1.998  0.0582  0.8609 -0.4941
 7439TIP3   OH246511   0.576   2.403   0.945  0.7964 -0.3002 -1.0191
 7439TIP3    H146512   0.573   2.399   1.041  0.1408 -1.9996 -1.0717
 7439TIP3    H246513   0.564   2.312   0.917  0.1907  0.2669 -2.7296
 7440TIP3   OH246514   4.612   6.134   2.136  0.0868  0.4772  0.5861
 7440TIP3    H146515   4.612   6.138   2.041 -0.9453  0.0247  0.5529
 7440TIP3    H246516   4.664   6.056   2.157 -0.9834 -0.3266  0.3233
 7441TIP3   OH246517   7.320   5.324   2.121 -0.1368  0.7292 -0.3247
 7441TIP3    H146518   7.311   5.339   2.027 -0.1601 -0.9310 -0.6088
 7441TIP3    H246519   7.231   5.303   2.151 -0.0956  1.0543  0.0516
 7442TIP3   OH246520   1.129   7.411   2.355  0.3347 -0.3900  0.5040
 7442TIP3    H146521   1.183   7.461   2.293  1.6043 -2.1953  0.0557
 7442TIP3    H246522   1.127   7.465   2.434  0.8660  0.7771 -0.2522
 7443TIP3   OH246523   3.324   6.628   3.525  0.2110  0.4528  0.6071
 7443TIP3    H146524   3.269   6.661   3.454 -0.2118 -2.7609 -0.7528
 7443TIP3    H246525   3.413   6.628   3.488  0.0739 -0.6834  0.2389
 7444TIP3   OH246526   1.221   3.388   1.568  0.1083 -0.1954  0.3143
 7444TIP3    H146527   1.215   3.292   1.567  0.4383 -0.2196 -0.6934
 7444TIP3    H246528   1.180   3.415   1.485 -0.2165  0.5496  0.7135
 7445TIP3   OH246529   3.086   6.943   1.740 -0.1764  0.1560 -0.0716
 7445TIP3    H146530   2.999   6.919   1.770  0.4582  0.1754  1.9722
 7445TIP3    H246531   3.141   6.868   1.761  0.4060  0.3283 -0.8839
 7446TIP3   OH246532   6.826   0.678   1.383  0.1975 -0.0664 -0.7653
 7446TIP3    H146533   6.910   0.641   1.356  0.3811 -0.9735  0.9230
 7446TIP3    H246534   6.849   0.751   1.441 -0.1778  0.1276 -0.8563
 7447TIP3   OH246535   3.390   3.755   3.055  0.6010  0.0177 -0.2590
 7447TIP3    H146536   3.420   3.669   3.026 -1.0913 -0.3340 -1.1353
 7447TIP3    H246537   3.332   3.785   2.984 -1.0762  0.6030  1.2933
 7448TIP3   OH246538   4.691   4.476   2.070  0.1607  0.1101  0.1167
 7448TIP3    H146539   4.720   4.480   2.161 -1.2097 -0.0032  0.5710
 7448TIP3    H246540   4.732   4.397   2.035  1.7467  0.8405  0.2354
 7449TIP3   OH246541   4.987   4.081   2.784  0.5765  0.2410  0.5160
 7449TIP3    H146542   5.026   4.124   2.860  1.4403 -0.6185  0.5813
 7449TIP3    H246543   5.058   4.079   2.719  0.5107 -0.8954  0.4505
 7450TIP3   OH246544   5.438   3.040   2.719  0.5298  0.6792  0.0729
 7450TIP3    H146545   5.421   3.007   2.807  0.2567  1.5836  0.3769
 7450TIP3    H246546   5.357   3.085   2.694  1.0313  1.4845 -0.1358
 7451TIP3   OH246547   4.559   4.872   3.152  0.1987  0.5808  0.2598
 7451TIP3    H146548   4.548   4.863   3.247 -0.6659 -0.0112  0.1113
 7451TIP3    H246549   4.651   4.896   3.141  0.5877 -0.4001  1.1795
 7452TIP3   OH246550   0.031   3.707   1.151  0.5449  0.3531  0.1024
 7452TIP3    H146551   0.035   3.665   1.065  0.2913 -0.9308  0.6944
 7452TIP3    H246552  -0.019   3.787   1.137 -0.6088 -0.4900 -0.7036
 7453TIP3   OH246553   7.266   3.535   2.131 -0.9810 -0.4176 -0.3739
 7453TIP3    H146554   7.356   3.567   2.143 -2.0095  2.4226  0.7716
 7453TIP3    H246555   7.246   3.554   2.039 -0.9797  0.6920 -0.1587
 7454TIP3   OH246556   0.765   1.991   2.366 -0.2339  0.4233  0.6852
 7454TIP3    H146557   0.799   1.953   2.447 -0.5188  1.8658  1.5054
 7454TIP3    H246558   0.837   1.981   2.304 -0.1211 -0.9833  0.9969
 7455TIP3   OH246559   1.291   0.042   1.348  0.3068  0.6831  0.2789
 7455TIP3    H146560   1.379   0.022   1.378  0.2140  1.7664  1.3391
 7455TIP3    H246561   1.304   0.109   1.280  0.2775  1.2805  0.8541
 7456TIP3   OH246562   1.589   6.150   2.284 -0.0146  0.5495 -0.4073
 7456TIP3    H146563   1.510   6.191   2.318 -1.2923 -0.5234 -1.8688
 7456TIP3    H246564   1.643   6.222   2.252 -0.1194  1.3362  1.0979
 7457TIP3   OH246565   6.853   3.384   0.453 -0.6644 -0.1205 -0.2442
 7457TIP3    H146566   6.903   3.303   0.446 -0.4421  0.0368 -0.5033
 7457TIP3    H246567   6.918   3.449   0.482 -0.5515  0.2456 -1.2839
 7458TIP3   OH246568   1.445   5.321   1.285 -0.8646 -0.8018  0.0315
 7458TIP3    H146569   1.445   5.330   1.189 -1.8199  0.5779  0.1379
 7458TIP3    H246570   1.366   5.270   1.304  0.8531 -3.7669 -0.0531
 7459TIP3   OH246571   0.986   0.614   1.630  0.2903  0.6251  0.0285
 7459TIP3    H146572   1.076   0.645   1.621  1.2621 -1.2100  2.2788
 7459TIP3    H246573   0.992   0.520   1.615 -1.3772  0.5701 -0.3930
 7460TIP3   OH246574   1.575   5.181   1.884  0.4570 -0.3642  0.6220
 7460TIP3    H146575   1.544   5.268   1.909  0.9474 -0.4916  1.7778
 7460TIP3    H246576   1.496   5.126   1.885  0.2759 -0.1027  0.7084
 7461TIP3   OH246577   3.583   6.853   2.682  0.1834 -0.5240  0.1413
 7461TIP3    H146578   3.582   6.828   2.590 -0.5358  1.0715 -0.3188
 7461TIP3    H246579   3.491   6.855   2.708  0.1285  1.8172  0.0388
 7462TIP3   OH246580   3.141   3.391   0.928 -0.0608 -0.2389 -0.2144
 7462TIP3    H146581   3.229   3.377   0.964  0.7113  1.0046 -1.5413
 7462TIP3    H246582   3.084   3.335   0.982  1.2476  0.4149  1.9403
 7463TIP3   OH246583   3.846   3.361   1.753 -0.0603  0.6216  0.6907
 7463TIP3    H146584   3.771   3.383   1.696  0.4432 -0.7755 -0.5719
 7463TIP3    H246585   3.822   3.277   1.792  0.9509  0.0391  0.0767
 7464TIP3   OH246586   4.189   0.081   1.149  0.0129  0.0962 -0.4892
 7464TIP3    H146587   4.223   0.144   1.214 -0.4877  0.0328 -0.1584
 7464TIP3    H246588   4.181   0.131   1.069  0.3472  0.2578 -0.4241
 7465TIP3   OH246589   6.634   4.766   1.001 -0.0985  0.0476 -0.1533
 7465TIP3    H146590   6.546   4.727   0.995 -0.3153  0.6228 -0.9087
 7465TIP3    H246591   6.684   4.704   1.054 -0.9262 -0.3501  0.1918
 7466TIP3   OH246592   3.717   6.207   1.767  0.3026  0.4146  0.3813
 7466TIP3    H146593   3.799   6.196   1.718 -0.2376 -0.9714 -0.2640
 7466TIP3    H246594   3.650   6.167   1.711 -0.6374  0.5453  1.3879
 7467TIP3   OH246595   5.692   1.672   0.709  0.1813 -0.4075  0.1664
 7467TIP3    H146596   5.664   1.747   0.656  0.4863 -1.4030 -1.4871
 7467TIP3    H246597   5.638   1.599   0.678 -1.0998 -0.6507  2.7040
 7468TIP3   OH246598   4.937   0.062   1.207  0.5212 -0.2123 -0.6733
 7468TIP3    H146599   4.935  -0.033   1.196  0.3702 -0.2251 -0.5356
 7468TIP3    H246600   4.864   0.081   1.267  1.4465 -0.1639  0.4628
 7469TIP3   OH246601   5.143   7.438   1.399 -0.6695  0.0023 -0.2404
 7469TIP3    H146602   5.132   7.527   1.366  1.0802 -0.5210 -2.5186
 7469TIP3    H246603   5.174   7.449   1.489  0.8508  1.7903 -0.9100
 7470TIP3   OH246604   1.232   4.522   2.355  0.2725 -0.8131  0.1959
 7470TIP3    H146605   1.246   4.516   2.260  1.6084  0.8405  0.2448
 7470TIP3    H246606   1.276   4.445   2.391  2.8001  0.2903 -0.3036
 7471TIP3   OH246607   5.357   2.694   1.207  0.0561  0.4659 -0.3079
 7471TIP3    H146608   5.338   2.719   1.116 -2.6889  0.2044  0.1296
 7471TIP3    H246609   5.275   2.659   1.240  1.2950 -0.4720  1.9825
 7472TIP3   OH246610   5.715   1.285   0.646  0.0504 -0.6400 -0.0777
 7472TIP3    H146611   5.666   1.229   0.706  0.0106 -1.0634 -0.4996
 7472TIP3    H246612   5.756   1.225   0.584 -0.0471 -0.2038 -0.5836
 7473TIP3   OH246613   3.828   3.528   2.217 -0.2034 -0.0753  0.0115
 7473TIP3    H146614   3.825   3.453   2.276  1.8148 -0.4966 -0.3646
 7473TIP3    H246615   3.835   3.604   2.274  0.3819 -0.3788  0.3479
 7474TIP3   OH246616   7.087   3.959   0.538 -0.4499  0.1617 -0.0670
 7474TIP3    H146617   7.032   3.909   0.478 -0.0523 -1.4375  0.8554
 7474TIP3    H246618   7.175   3.927   0.523 -0.0344  1.2750 -0.1046
 7475TIP3   OH246619   6.846   5.116   2.631  0.7440  0.4620  0.4871
 7475TIP3    H146620   6.802   5.033   2.651  1.2752  0.2129  0.6406
 7475TIP3    H246621   6.865   5.111   2.538  3.3573 -0.8811  0.9911
 7476TIP3   OH246622   1.819   2.641   0.950 -0.5602 -0.9167  0.5590
 7476TIP3    H146623   1.758   2.609   1.016 -0.3443 -0.0436  1.1956
 7476TIP3    H246624   1.895   2.669   0.999 -0.1206 -0.8823 -0.1278
 7477TIP3   OH246625   4.409   3.954   2.270 -0.3304  0.0424 -0.4206
 7477TIP3    H146626   4.451   4.037   2.246  1.4985 -0.5236  0.6241
 7477TIP3    H246627   4.402   3.957   2.365  0.2070 -1.1996 -0.3241
 7478TIP3   OH246628   1.037   5.007   2.894  0.2831 -0.1884 -0.0923
 7478TIP3    H146629   1.115   5.030   2.843  0.8266 -2.0831 -0.1856
 7478TIP3    H246630   0.996   4.936   2.844 -0.8827  0.0014  0.5536
 7479TIP3   OH246631   1.839   4.747   8.598  0.4160  0.2020 -0.5920
 7479TIP3    H146632   1.905   4.791   8.652 -1.5537  0.8113  1.4637
 7479TIP3    H246633   1.855   4.654   8.613 -1.6265  0.2787  3.3264
 7480TIP3   OH246634   1.088   0.057   3.105  0.7541  0.0112 -0.1002
 7480TIP3    H146635   1.029  -0.018   3.112  0.0916  0.5150 -0.2217
 7480TIP3    H246636   1.121   0.070   3.194  1.2600 -0.7254 -0.1705
 7481TIP3   OH246637   5.668   7.384   2.177  0.0975  0.5178  0.1417
 7481TIP3    H146638   5.594   7.328   2.154 -0.3011  1.0255  0.1470
 7481TIP3    H246639   5.686   7.433   2.096  1.3084 -0.5568 -0.2675
 7482TIP3   OH246640   2.804   3.167   2.163  0.3469  0.2171  0.1863
 7482TIP3    H146641   2.730   3.179   2.222  0.6963  1.4404  0.3907
 7482TIP3    H246642   2.794   3.235   2.097  1.0892  0.1545  0.0009
 7483TIP3   OH246643   3.390   4.713   1.206  0.3448  0.0943 -0.5876
 7483TIP3    H146644   3.412   4.620   1.209  3.0387  0.6707  0.1971
 7483TIP3    H246645   3.326   4.724   1.277 -1.1304 -1.3512 -1.6252
 7484TIP3   OH246646   4.715   5.212   1.671  0.1621  0.1931 -0.6195
 7484TIP3    H146647   4.734   5.180   1.583 -0.0860 -2.8763  0.3592
 7484TIP3    H246648   4.791   5.189   1.723 -0.3153  0.6544  0.3151
 7485TIP3   OH246649   1.868   3.565   2.934 -0.4883 -0.6430 -0.2552
 7485TIP3    H146650   1.902   3.639   2.985  0.3546 -2.1288  1.4451
 7485TIP3    H246651   1.940   3.542   2.876 -1.1680  0.5458 -1.6457
 7486TIP3   OH246652   6.635   5.653   0.919 -0.2140 -0.7692  0.9549
 7486TIP3    H146653   6.626   5.648   1.015  0.1635 -0.1696  1.0266
 7486TIP3    H246654   6.597   5.737   0.896  0.5041 -0.5130  0.6811
 7487TIP3   OH246655   1.792   4.169   1.080  0.5429  0.1950 -0.4809
 7487TIP3    H146656   1.816   4.146   0.991 -0.0736  0.2901 -0.6712
 7487TIP3    H246657   1.776   4.263   1.078 -2.0574 -0.1822 -0.8870
 7488TIP3   OH246658   2.878   4.983   3.407  0.4310 -0.3711 -0.4945
 7488TIP3    H146659   2.839   5.057   3.454  1.5034 -0.0542 -0.0682
 7488TIP3    H246660   2.810   4.917   3.406  0.3034 -0.3338  1.4110
 7489TIP3   OH246661   6.818   1.009   2.266 -0.0118 -0.0192 -0.5413
 7489TIP3    H146662   6.857   1.075   2.325 -1.5759 -0.2657  0.8494
 7489TIP3    H246663   6.752   1.058   2.217  1.6904  0.3165 -2.6118
 7490TIP3   OH246664   3.080   6.463   0.954 -0.2524 -0.1553 -0.5345
 7490TIP3    H146665   3.013   6.531   0.938 -0.2920 -0.2443 -0.7575
 7490TIP3    H246666   3.108   6.437   0.866  0.8564  0.6510 -0.4421
 7491TIP3   OH246667   7.060   6.554   0.428  0.8195 -0.1940  0.3310
 7491TIP3    H146668   7.110   6.479   0.462  1.6745  0.1007 -0.2358
 7491TIP3    H246669   7.124   6.605   0.378  0.2230  0.8732  0.6322
 7492TIP3   OH246670   5.195   4.138   3.359  0.6245 -0.4207  0.5322
 7492TIP3    H146671   5.210   4.051   3.395 -0.7399 -0.2851  1.4866
 7492TIP3    H246672   5.139   4.124   3.283 -1.9021 -0.2188  2.2487
 7493TIP3   OH246673   5.720   3.552   1.599  0.4403 -0.2552 -0.0290
 7493TIP3    H146674   5.791   3.516   1.546  0.2867  0.7989 -0.9833
 7493TIP3    H246675   5.646   3.558   1.538  0.3159  1.1632  0.2313
 7494TIP3   OH246676   6.128   0.162   2.004  0.0789  0.2088 -0.2458
 7494TIP3    H146677   6.084   0.175   1.920  2.6073  0.6203 -1.6125
 7494TIP3    H246678   6.172   0.246   2.021  1.2078 -0.4955  0.4342
 7495TIP3   OH246679   6.134   0.041   0.796 -0.4499  0.0507  0.0910
 7495TIP3    H146680   6.113  -0.027   0.861 -0.3526 -0.2559 -0.1955
 7495TIP3    H246681   6.178  -0.006   0.725 -0.9895  0.3038 -0.4206
 7496TIP3   OH246682   4.246   7.181   2.963  0.1020 -0.1981  0.6662
 7496TIP3    H146683   4.312   7.197   2.895 -0.7095  0.5915  0.0602
 7496TIP3    H246684   4.202   7.265   2.975 -0.5313 -0.6183  1.3482
 7497TIP3   OH246685   3.340   0.646   0.666  0.0601 -0.4855  0.2566
 7497TIP3    H146686   3.260   0.691   0.641  1.4969  1.1330 -1.7575
 7497TIP3    H246687   3.402   0.716   0.688  1.5297 -1.5640 -0.2266
 7498TIP3   OH246688   6.316   6.745   3.171  0.6645 -0.6679  0.1468
 7498TIP3    H146689   6.317   6.808   3.100  0.8663  0.0070  0.7387
 7498TIP3    H246690   6.239   6.690   3.153  0.0065  0.2675  0.0753
 7499TIP3   OH246691   6.634   1.195   2.119  0.9778 -0.2088 -0.2017
 7499TIP3    H146692   6.556   1.236   2.157  0.9467 -1.6310  1.4076
 7499TIP3    H246693   6.703   1.261   2.130  0.4403  0.2890  0.2425
 7500TIP3   OH246694   2.526   0.496   1.867  0.0615  0.0964 -0.1884
 7500TIP3    H146695   2.563   0.427   1.923 -1.6944 -2.3593 -1.8420
 7500TIP3    H246696   2.442   0.517   1.908  0.4339  1.0076  0.1123
 7501TIP3   OH246697   3.435   4.097   0.414  0.4619 -0.9341  0.1527
 7501TIP3    H146698   3.389   4.115   0.496 -0.1199  0.1733 -0.4030
 7501TIP3    H246699   3.526   4.082   0.441  0.5929  0.9062  0.8822
 7502TIP3   OH246700   1.066   7.180   3.236 -0.5319  0.1492  0.0829
 7502TIP3    H146701   1.095   7.251   3.293 -2.1287 -0.4010  1.6686
 7502TIP3    H246702   1.004   7.130   3.289 -0.3676 -1.7388 -1.3913
 7503TIP3   OH246703   5.937   5.492   2.276  0.0193  0.2744  0.3078
 7503TIP3    H146704   5.879   5.559   2.312  0.0030  2.2520 -3.0419
 7503TIP3    H246705   6.009   5.541   2.237  3.1275 -2.0092  2.6493
 7504TIP3   OH246706   6.949   2.412   1.815 -0.3558 -0.4242  0.2255
 7504TIP3    H146707   6.870   2.408   1.870  1.0211 -2.2699  2.2515
 7504TIP3    H246708   6.954   2.326   1.774 -1.3396  0.9094 -2.9988
 7505TIP3   OH246709   0.285   0.723   3.193  0.1495  0.3589 -0.3835
 7505TIP3    H146710   0.300   0.817   3.200 -2.1347  0.6389  3.1641
 7505TIP3    H246711   0.207   0.715   3.138  1.5790  0.2625 -2.5235
 7506TIP3   OH246712   6.865   2.760   0.952  0.2724 -0.1227 -0.2920
 7506TIP3    H146713   6.876   2.665   0.955 -1.1810 -0.3022  0.9540
 7506TIP3    H246714   6.910   2.787   0.873  0.8784 -1.8287 -0.5780
 7507TIP3   OH246715   1.858   3.802   1.884 -0.0556  0.1615  0.6476
 7507TIP3    H146716   1.942   3.768   1.852 -0.4187  0.1654 -0.3548
 7507TIP3    H246717   1.792   3.752   1.836 -0.6390  2.7616 -1.6004
 7508TIP3   OH246718   1.900   6.153   1.015  0.0229 -0.5405 -0.5773
 7508TIP3    H146719   1.891   6.066   1.053 -3.7342  0.1147  0.4130
 7508TIP3    H246720   1.928   6.209   1.088  0.3974 -0.5592 -0.7045
 7509TIP3   OH246721   0.870   2.854   1.015  0.0895 -0.4388  0.3422
 7509TIP3    H146722   0.833   2.790   1.076  1.7256 -1.0195  0.7724
 7509TIP3    H246723   0.848   2.820   0.928 -0.5148 -0.6761  0.5800
 7510TIP3   OH246724   5.664   2.170   2.221  0.8497 -0.4659  0.2820
 7510TIP3    H146725   5.706   2.217   2.149  2.3115 -1.3764  0.5040
 7510TIP3    H246726   5.720   2.095   2.237 -0.6276 -1.4907  0.9337
 7511TIP3   OH246727   0.778   3.266   1.960 -0.5504  0.0265 -0.2707
 7511TIP3    H146728   0.816   3.315   2.034  0.2653 -0.5120 -0.3199
 7511TIP3    H246729   0.703   3.220   1.998 -1.6228  1.6594 -0.3205
 7512TIP3   OH246730   1.575   3.587   0.990  0.1394  0.4651 -0.1434
 7512TIP3    H146731   1.571   3.625   1.078  1.4910  0.3735 -0.0211
 7512TIP3    H246732   1.603   3.659   0.934  3.7709 -0.4451  0.2499
 7513TIP3   OH246733   0.659   7.166   2.032 -0.6127 -0.0308 -0.1274
 7513TIP3    H146734   0.676   7.223   2.108 -3.8407  2.2849 -0.9520
 7513TIP3    H246735   0.589   7.108   2.061 -0.9276 -0.0513 -0.9188
 7514TIP3   OH246736   1.776   4.414   1.711 -0.4450 -0.4598  0.1126
 7514TIP3    H146737   1.871   4.409   1.726 -0.7809 -0.6499  2.6345
 7514TIP3    H246738   1.741   4.342   1.763 -2.0969  0.6321  0.5628
 7515TIP3   OH246739   1.252   0.222   1.623  0.1172  0.0292 -0.0717
 7515TIP3    H146740   1.266   0.302   1.672  0.9714 -0.7110  0.9377
 7515TIP3    H246741   1.302   0.234   1.542 -1.1255  1.1646 -0.7230
 7516TIP3   OH246742   0.886   4.485   1.414  0.1915 -0.0580 -0.8168
 7516TIP3    H146743   0.900   4.395   1.384  0.3998  0.0595 -1.0785
 7516TIP3    H246744   0.961   4.504   1.470 -0.0671 -0.1909 -0.4281
 7517TIP3   OH246745   3.220   6.567   2.744  0.3425  0.4996 -0.4341
 7517TIP3    H146746   3.195   6.641   2.689 -0.3648 -0.4320 -1.4269
 7517TIP3    H246747   3.176   6.492   2.703  0.5908 -0.3779  0.8541
 7518TIP3   OH246748   4.211   1.810   3.504  0.1151 -0.2077  0.5254
 7518TIP3    H146749   4.251   1.724   3.515 -0.5962 -0.4640  1.1817
 7518TIP3    H246750   4.122   1.791   3.473  0.5741  0.3590 -1.2973
 7519TIP3   OH246751   1.116   1.014   0.313 -0.3127  0.1725  0.7653
 7519TIP3    H146752   1.184   1.067   0.272  0.3937 -0.7529  0.6975
 7519TIP3    H246753   1.038   1.069   0.313 -0.2565  0.3290 -1.5048
 7520TIP3   OH246754   5.423   5.145   0.421 -0.3509 -0.4917  0.8258
 7520TIP3    H146755   5.387   5.144   0.332  0.3091 -0.7231  0.5531
 7520TIP3    H246756   5.378   5.218   0.464  1.7030  1.8912 -0.7271
 7521TIP3   OH246757   6.506   2.942   1.764 -0.1654 -0.4746 -0.0173
 7521TIP3    H146758   6.540   2.996   1.692 -0.8292 -2.3546 -1.8156
 7521TIP3    H246759   6.411   2.957   1.762 -0.4285 -2.0863 -0.9142
 7522TIP3   OH246760   1.594   1.825   1.372 -0.0016  0.3350  0.2981
 7522TIP3    H146761   1.554   1.878   1.303 -0.5059  0.3938  0.6301
 7522TIP3    H246762   1.647   1.887   1.422 -0.8889  0.6214  0.9169
 7523TIP3   OH246763   0.474   4.485   0.824  0.1319  0.3651  0.0482
 7523TIP3    H146764   0.559   4.530   0.830  0.2612 -0.0446  1.9389
 7523TIP3    H246765   0.412   4.545   0.865 -0.1660 -0.0787  0.2507
 7524TIP3   OH246766   1.669   1.786   1.730  0.0171  0.5465 -0.3933
 7524TIP3    H146767   1.679   1.753   1.820 -1.8930 -2.2994 -1.0997
 7524TIP3    H246768   1.594   1.846   1.735  0.1794  0.7273 -0.0415
 7525TIP3   OH246769   0.049   4.137   1.477  0.1205  0.6652  0.0756
 7525TIP3    H146770  -0.005   4.213   1.457 -1.6507 -0.8296 -1.1511
 7525TIP3    H246771  -0.009   4.079   1.526  0.6381 -0.9300 -1.1240
 7526TIP3   OH246772   6.153   0.706   1.523 -0.0367  0.2399 -0.3393
 7526TIP3    H146773   6.202   0.772   1.572 -0.7531  1.1221 -0.7867
 7526TIP3    H246774   6.162   0.626   1.575  0.7629  0.7074  0.2620
 7527TIP3   OH246775   3.203   0.185   1.048  0.3380  0.2038  0.0979
 7527TIP3    H146776   3.164   0.179   1.135 -0.0033  0.1155 -0.0610
 7527TIP3    H246777   3.210   0.279   1.032  4.7422  0.4494  2.1561
 7528TIP3   OH246778   1.432   6.824   2.051 -0.3396  0.1236  0.4697
 7528TIP3    H146779   1.425   6.730   2.032 -0.6147  0.2066  0.1479
 7528TIP3    H246780   1.455   6.828   2.144 -0.9457 -0.2562  0.6469
 7529TIP3   OH246781   3.180   2.217   1.575 -0.1716 -0.0273 -0.2516
 7529TIP3    H146782   3.108   2.154   1.569 -1.1404  1.0422 -0.2818
 7529TIP3    H246783   3.177   2.264   1.492 -0.6748  1.3057  0.4905
 7530TIP3   OH246784   3.520   2.967   2.671 -0.5598 -0.1067  0.1950
 7530TIP3    H146785   3.465   2.903   2.626 -0.8369 -0.1653  0.6170
 7530TIP3    H246786   3.591   2.985   2.609 -1.0834  0.0139 -0.3831
 7531TIP3   OH246787   7.278   7.329   2.540 -0.3292 -0.0964  0.0347
 7531TIP3    H146788   7.213   7.328   2.610  0.2783 -4.5772  0.8227
 7531TIP3    H246789   7.229   7.308   2.461 -0.3477  0.3455 -0.0752
 7532TIP3   OH246790   3.081   3.109   3.818  0.7314  0.8160 -0.5571
 7532TIP3    H146791   3.066   3.161   3.739 -0.8820  0.2177 -0.6824
 7532TIP3    H246792   3.002   3.120   3.870  0.6230 -0.9431 -0.2848
 7533TIP3   OH246793   6.249   0.760   0.584  0.8294  0.0356  0.6309
 7533TIP3    H146794   6.183   0.779   0.518  0.7766 -1.2193  0.3032
 7533TIP3    H246795   6.254   0.665   0.587  3.2716  0.0721 -0.0117
 7534TIP3   OH246796   2.111   4.190   2.036 -0.0930  0.6131  0.0023
 7534TIP3    H146797   2.039   4.175   1.975  0.9377  1.8527 -1.6189
 7534TIP3    H246798   2.172   4.118   2.019  0.6695  1.5170 -1.2256
 7535TIP3   OH246799   3.489   1.371   1.569  0.3549  0.1615  0.1270
 7535TIP3    H146800   3.533   1.384   1.653  1.9141 -2.1664 -0.2283
 7535TIP3    H246801   3.555   1.389   1.503 -0.4061  0.4899 -0.5640
 7536TIP3   OH246802   7.123   2.194   1.740  0.1124 -0.4163  0.2353
 7536TIP3    H146803   7.091   2.115   1.697 -0.2171 -0.1540  0.0011
 7536TIP3    H246804   7.118   2.262   1.674  1.7736 -0.4954 -0.0146
 7537TIP3   OH246805   6.675   6.965   1.265  0.0558 -0.2899 -0.1244
 7537TIP3    H146806   6.640   7.042   1.309  0.0634  0.3523 -1.2034
 7537TIP3    H246807   6.692   6.994   1.175 -1.8834 -2.0816 -1.1439
 7538TIP3   OH246808   7.110   4.864   2.481  0.3619 -0.0433 -0.2891
 7538TIP3    H146809   7.186   4.871   2.538  0.1622 -0.9503  0.1054
 7538TIP3    H246810   7.042   4.824   2.536 -0.0342 -0.3295 -0.9696
 7539TIP3   OH246811   6.107   6.665   0.797  0.4099  0.4811  0.5020
 7539TIP3    H146812   6.023   6.680   0.753 -0.3899  1.2204  2.1846
 7539TIP3    H246813   6.170   6.715   0.746  0.1577 -1.2170 -1.6338
 7540TIP3   OH246814   0.681   1.889   1.012  0.0287 -0.2850  0.4446
 7540TIP3    H146815   0.661   1.860   0.923  0.1999  0.3675  0.1833
 7540TIP3    H246816   0.651   1.818   1.068 -2.3462  0.2889  0.0359
 7541TIP3   OH246817   6.569   0.927   1.807  0.6517 -0.4394 -0.2645
 7541TIP3    H146818   6.562   0.916   1.902  1.2554 -1.6355 -0.3323
 7541TIP3    H246819   6.642   0.988   1.795  3.8169 -3.8434  0.0215
 7542TIP3   OH246820   2.953   0.114   0.713 -0.0633  0.1145 -0.2896
 7542TIP3    H146821   2.992   0.201   0.722  0.0542  0.0783 -0.4402
 7542TIP3    H246822   3.006   0.058   0.769 -0.7915  0.3372  0.6504
 7543TIP3   OH246823   2.769   1.273   0.923  0.3063 -0.2784  0.2847
 7543TIP3    H146824   2.800   1.363   0.910 -1.2566  0.7113  2.6335
 7543TIP3    H246825   2.674   1.281   0.932  0.0128 -2.3244 -0.3775
 7544TIP3   OH246826   6.971   0.704   1.823  0.2412 -0.2967 -0.3178
 7544TIP3    H146827   7.020   0.779   1.790 -2.6724  1.1077 -1.7886
 7544TIP3    H246828   7.020   0.675   1.900  2.4530  1.9336 -0.7815
 7545TIP3   OH246829   7.034   0.936   0.850 -0.1452  0.0606  1.0259
 7545TIP3    H146830   6.980   0.933   0.771 -0.2356 -0.1730  1.0939
 7545TIP3    H246831   7.102   1.001   0.831  0.9236 -1.2743  0.0446
 7546TIP3   OH246832   3.266   2.455   0.863 -0.1072  0.1856 -0.4065
 7546TIP3    H146833   3.203   2.526   0.848 -0.3736 -0.2518 -1.4514
 7546TIP3    H246834   3.333   2.467   0.795  0.5269  0.1798  0.2045
 7547TIP3   OH246835   5.632   0.667   0.850 -0.1208 -0.1249 -0.5195
 7547TIP3    H146836   5.682   0.729   0.798 -0.0322  0.6435  0.4536
 7547TIP3    H246837   5.581   0.721   0.910 -0.3650 -0.9698  0.0550
 7548TIP3   OH246838   6.490   5.488   2.176 -0.0861 -0.7068  0.3906
 7548TIP3    H146839   6.515   5.494   2.269  1.3852 -0.9682  0.0296
 7548TIP3    H246840   6.454   5.574   2.156  0.0136 -0.4934  1.0847
 7549TIP3   OH246841   1.243   5.439   1.769  0.1860  0.4351  0.0823
 7549TIP3    H146842   1.315   5.452   1.707  1.1396  0.4842  1.1638
 7549TIP3    H246843   1.199   5.359   1.740  0.7781  0.3163 -0.4969
 7550TIP3   OH246844   1.029   4.991   1.251 -0.3313  0.9692 -0.0278
 7550TIP3    H146845   1.001   4.908   1.211  1.8937 -0.1316  0.5532
 7550TIP3    H246846   1.090   5.029   1.188 -0.6709  1.7351  0.1013
 7551TIP3   OH246847   4.878   6.340   1.871  0.4484  0.0470  0.3054
 7551TIP3    H146848   4.786   6.366   1.882  0.4910  0.1108  0.5085
 7551TIP3    H246849   4.921   6.420   1.841  0.6524  0.3223  1.2944
 7552TIP3   OH246850   0.950   7.465   1.321 -0.1969 -0.2834 -0.5246
 7552TIP3    H146851   0.856   7.467   1.339 -0.4329  2.0827 -1.6448
 7552TIP3    H246852   0.956   7.445   1.228  0.1971  2.6124 -1.1894
 7553TIP3   OH246853   6.182   6.426   2.146  0.6257  0.2877  0.0637
 7553TIP3    H146854   6.174   6.338   2.110 -1.0379 -0.0704  1.1733
 7553TIP3    H246855   6.161   6.415   2.239  1.8193  1.6401  0.5176
 7554TIP3   OH246856   2.166   2.510   1.193 -0.0931 -0.3216  0.3223
 7554TIP3    H146857   2.110   2.571   1.241 -0.3095 -0.8273  0.7189
 7554TIP3    H246858   2.105   2.444   1.158  0.1002 -0.1473 -0.3616
 7555TIP3   OH246859   4.689   3.589   1.458 -0.4050 -0.2963  0.3131
 7555TIP3    H146860   4.746   3.600   1.533 -0.3033  1.5899  0.0202
 7555TIP3    H246861   4.601   3.609   1.491 -0.2573  1.3553 -0.1877
 7556TIP3   OH246862   7.172   7.337   0.411  0.4244 -0.6904 -0.4140
 7556TIP3    H146863   7.193   7.269   0.347 -2.1077 -0.9301 -1.1182
 7556TIP3    H246864   7.114   7.294   0.473 -0.8576  0.6767 -0.6189
 7557TIP3   OH246865   7.074   2.994   1.050 -0.1488 -0.6704 -0.1560
 7557TIP3    H146866   7.065   2.981   1.145 -0.7554  0.4435 -0.0380
 7557TIP3    H246867   7.155   2.949   1.027  0.0592 -0.8733  0.9151
 7558TIP3   OH246868   3.931   2.417   1.794  0.7179 -0.4638  0.1648
 7558TIP3    H146869   3.941   2.426   1.889 -0.1528  2.8905  0.0774
 7558TIP3    H246870   3.991   2.347   1.770  1.0394 -1.3564  3.1657
 7559TIP3   OH246871   2.656   0.737   2.660 -0.0458 -0.0792 -0.1193
 7559TIP3    H146872   2.690   0.779   2.739  0.0104 -0.4061  0.0345
 7559TIP3    H246873   2.561   0.754   2.663  0.1253  1.0032 -0.6549
 7560TIP3   OH246874   6.910   1.453   1.388 -0.1417 -0.4094  0.0882
 7560TIP3    H146875   6.986   1.469   1.443  0.5084 -0.3970 -0.7994
 7560TIP3    H246876   6.893   1.537   1.345 -0.9786 -0.2698  0.6592
 7561TIP3   OH246877   0.712   6.348   0.533  0.3388 -0.1845  0.4915
 7561TIP3    H146878   0.739   6.269   0.580  0.3737 -0.2674  0.3319
 7561TIP3    H246879   0.795   6.394   0.514  0.3314 -0.1907  0.4424
 7562TIP3   OH246880   3.000   2.863   3.760  0.0652  0.2105  0.1366
 7562TIP3    H146881   3.026   2.953   3.780  0.0204  0.1040  0.6713
 7562TIP3    H246882   2.926   2.845   3.818 -2.4800  1.1101 -2.5541
 7563TIP3   OH246883   3.029   3.526   2.794 -0.1753 -0.2808  0.1825
 7563TIP3    H146884   3.036   3.430   2.794  0.3768 -0.2865  2.3832
 7563TIP3    H246885   3.053   3.552   2.883 -3.1735  1.7197  0.5499
 7564TIP3   OH246886   0.008   3.427   2.485  0.4467 -0.6162 -0.2905
 7564TIP3    H146887  -0.085   3.442   2.470  0.3207 -1.3039 -0.2307
 7564TIP3    H246888   0.015   3.417   2.580  0.6554 -0.1046 -0.2493
 7565TIP3   OH246889   2.669   4.927   2.644 -0.4613 -0.1246 -0.0174
 7565TIP3    H146890   2.662   4.896   2.554 -0.9853  0.1142 -0.0614
 7565TIP3    H246891   2.611   5.003   2.648  0.4017  0.5406  0.2276
 7566TIP3   OH246892   7.426   5.550   2.260  0.7047  0.0613 -0.0802
 7566TIP3    H146893   7.393   5.600   2.186 -2.5340 -1.0957  0.4518
 7566TIP3    H246894   7.438   5.461   2.226 -0.6035 -0.4314  0.6719
 7567TIP3   OH246895   2.252   6.814   0.545  0.0518 -0.1675 -0.0692
 7567TIP3    H146896   2.320   6.769   0.495  0.3979  1.4362 -1.1195
 7567TIP3    H246897   2.230   6.753   0.616  2.3753 -0.8669  0.1412
 7568TIP3   OH246898   0.359   3.302   0.978  0.2465 -0.2481  0.2888
 7568TIP3    H146899   0.284   3.279   1.032  0.4638 -1.5720  0.0673
 7568TIP3    H246900   0.327   3.296   0.888  1.0259 -2.5661  0.1172
 7569TIP3   OH246901   2.212   0.919   1.750  0.0311 -0.1044  0.0561
 7569TIP3    H146902   2.288   0.931   1.806 -0.6078 -2.8639  1.7332
 7569TIP3    H246903   2.215   0.826   1.726 -3.1951 -0.5511  0.9339
 7570TIP3   OH246904   6.498   6.657   2.367 -0.0066  0.1207 -0.1736
 7570TIP3    H146905   6.539   6.731   2.412  1.7685 -1.0076  0.2010
 7570TIP3    H246906   6.499   6.587   2.432 -1.9765 -0.1668 -0.4018
 7571TIP3   OH246907   3.509   2.107   0.719  0.1606 -0.7669 -0.8303
 7571TIP3    H146908   3.429   2.073   0.679 -0.5135 -0.6452  0.3834
 7571TIP3    H246909   3.539   2.175   0.658 -1.7148  0.5260 -0.3946
 7572TIP3   OH246910   2.452   3.766   1.599 -0.5792 -0.4208  0.2222
 7572TIP3    H146911   2.371   3.807   1.630 -0.6868 -0.5508  0.1133
 7572TIP3    H246912   2.485   3.717   1.675  0.8132  1.7626  1.1342
 7573TIP3   OH246913   1.373   1.687   1.555 -0.6584 -0.2930 -0.0238
 7573TIP3    H146914   1.356   1.779   1.535 -1.4512 -0.6257 -0.9733
 7573TIP3    H246915   1.325   1.638   1.488  0.6029 -1.3906 -0.1661
 7574TIP3   OH246916   2.558   5.649   1.062 -0.6651 -0.6402 -0.7097
 7574TIP3    H146917   2.476   5.694   1.045  0.1503  0.5513 -1.5852
 7574TIP3    H246918   2.558   5.574   1.002 -0.6527 -0.0491 -1.4565
 7575TIP3   OH246919   2.925   3.353   1.437 -0.3263 -0.1709  0.1519
 7575TIP3    H146920   2.875   3.433   1.422  1.2741  0.6117 -1.2169
 7575TIP3    H246921   2.948   3.356   1.530  0.7746  1.6174 -0.1493
 7576TIP3   OH246922   5.886   7.071   0.644  0.1009 -0.3269 -0.3271
 7576TIP3    H146923   5.824   7.035   0.581 -1.4101  0.2732  0.7686
 7576TIP3    H246924   5.960   7.099   0.590  0.1779 -2.5446 -1.4954
 7577TIP3   OH246925   0.561   2.946   1.226  0.4012 -0.2216 -0.1431
 7577TIP3    H146926   0.521   2.943   1.313  2.6791  0.6623  1.0153
 7577TIP3    H246927   0.654   2.931   1.242  0.8334 -0.3876 -2.4887
 7578TIP3   OH246928   4.864   1.092   1.144  0.3153  0.0940 -0.3410
 7578TIP3    H146929   4.867   1.147   1.222 -0.7190 -0.3187  0.0102
 7578TIP3    H246930   4.775   1.055   1.144 -0.4735  1.7605 -2.8713
 7579TIP3   OH246931   0.768   2.486   0.777 -0.1548  0.1016 -0.2365
 7579TIP3    H146932   0.734   2.454   0.861 -0.6484 -1.5481 -1.0136
 7579TIP3    H246933   0.829   2.555   0.800  0.4299 -0.9509  1.5438
 7580TIP3   OH246934   2.770   4.058   0.982  0.0234 -0.3353 -0.2304
 7580TIP3    H146935   2.832   4.007   0.930  1.4697 -0.8513  1.8371
 7580TIP3    H246936   2.727   4.116   0.919  0.1630 -2.3149 -2.2658
 7581TIP3   OH246937   5.903   6.532   1.954  0.3137 -0.1092 -0.2651
 7581TIP3    H146938   5.906   6.461   2.018  0.3528 -0.6446 -0.8376
 7581TIP3    H246939   5.873   6.608   2.002  0.0590 -0.5759  0.3174
 7582TIP3   OH246940   1.196   3.804   1.102  0.4976 -0.2844 -0.4364
 7582TIP3    H146941   1.154   3.764   1.178  1.2923 -0.5870 -0.1489
 7582TIP3    H246942   1.131   3.867   1.069  0.5425  0.6596  1.1531
 7583TIP3   OH246943   6.917   0.417   1.079  0.8075 -0.4369  0.0495
 7583TIP3    H146944   6.978   0.458   1.140  0.7724  0.0020 -0.2111
 7583TIP3    H246945   6.942   0.324   1.079  0.5462 -0.5224  1.0424
 7584TIP3   OH246946   1.658   1.546   1.320  0.2814  0.1048  0.4504
 7584TIP3    H146947   1.740   1.505   1.293  0.0226 -0.2245  0.1465
 7584TIP3    H246948   1.684   1.628   1.361  0.6844  0.8071 -1.1170
 7585TIP3   OH246949   2.157   5.077   2.946  1.1420 -0.2719 -0.3468
 7585TIP3    H146950   2.069   5.099   2.977  0.9222 -1.8963  0.2960
 7585TIP3    H246951   2.158   5.104   2.855  0.3627  0.7894 -0.0527
 7586TIP3   OH246952   7.180   0.006   3.287 -0.2399  0.3983 -0.4386
 7586TIP3    H146953   7.274   0.023   3.289 -0.2417  0.4390 -0.6545
 7586TIP3    H246954   7.166  -0.039   3.203 -0.2154 -0.7706  0.1610
 7587TIP3   OH246955   3.875   1.506   0.729  0.1478  0.2263  0.0994
 7587TIP3    H146956   3.922   1.550   0.658 -1.3620 -1.0593 -1.7870
 7587TIP3    H246957   3.860   1.575   0.793  2.1739  1.2758 -0.4583
 7588TIP3   OH246958   0.969   3.784   2.127  0.3395  0.3054 -0.4440
 7588TIP3    H146959   0.928   3.850   2.183  0.6328  0.2598 -0.1662
 7588TIP3    H246960   0.896   3.736   2.088  0.0621 -1.2792  1.8140
 7589TIP3   OH246961   0.845   0.324   0.844  0.1609  0.6907  0.0044
 7589TIP3    H146962   0.865   0.402   0.792  0.1235 -0.0453 -1.1295
 7589TIP3    H246963   0.853   0.251   0.783 -0.4302 -0.1465  0.9008
 7590TIP3   OH246964   0.630   2.065   2.740 -0.4635  0.6188  0.8197
 7590TIP3    H146965   0.690   2.139   2.736 -1.0814  1.1172  0.5851
 7590TIP3    H246966   0.565   2.090   2.805 -0.3004 -0.0051  1.2271
 7591TIP3   OH246967   1.014   4.194   1.523  0.5324  0.0602 -0.0889
 7591TIP3    H146968   0.956   4.194   1.446  2.2745 -0.4294 -1.4612
 7591TIP3    H246969   1.102   4.184   1.487  1.3617 -0.8720  2.0291
 7592TIP3   OH246970   0.186   5.630   2.156  0.4214 -0.6124  0.5333
 7592TIP3    H146971   0.250   5.681   2.105  0.0822  0.5767  1.2591
 7592TIP3    H246972   0.103   5.645   2.112  0.2180 -0.0269  1.1100
 7593TIP3   OH246973   0.107   3.447   1.428  0.4083 -0.0956 -0.5852
 7593TIP3    H146974   0.090   3.415   1.516 -1.7869  1.4012 -0.3924
 7593TIP3    H246975   0.120   3.368   1.375 -0.6754 -1.1229  0.6204
 7594TIP3   OH246976   1.073   6.032   3.139  0.5004  0.3976 -0.5231
 7594TIP3    H146977   1.063   5.940   3.114  1.5447  0.1569 -0.0947
 7594TIP3    H246978   1.025   6.040   3.221  1.1505  0.0105 -0.0965
 7595TIP3   OH246979   4.452   0.209   2.654 -0.5686 -0.1209 -0.3305
 7595TIP3    H146980   4.457   0.250   2.568  0.7958  0.2642 -0.0835
 7595TIP3    H246981   4.506   0.130   2.647 -0.6117 -0.1947  0.1190
 7596TIP3   OH246982   1.050   3.552   0.801  0.1286 -0.0154  0.1281
 7596TIP3    H146983   1.124   3.598   0.841  0.0375 -0.2289  0.5516
 7596TIP3    H246984   1.060   3.462   0.830  0.5895 -0.3807 -1.1151
 7597TIP3   OH246985   3.800   5.213   2.214 -0.3803 -0.6068 -0.1714
 7597TIP3    H146986   3.870   5.260   2.168  0.6015 -2.2402 -0.4043
 7597TIP3    H246987   3.842   5.177   2.292 -1.0236 -1.3795 -0.1716
 7598TIP3   OH246988   6.307   0.687   1.079 -0.8456 -0.2483 -0.2910
 7598TIP3    H146989   6.223   0.687   1.126 -0.5299 -0.1192  0.2715
 7598TIP3    H246990   6.314   0.598   1.044 -0.3783 -0.8236  1.1899
 7599TIP3   OH246991   2.248   6.867   2.262 -0.5375  0.3278 -0.0160
 7599TIP3    H146992   2.237   6.924   2.185 -1.1208  0.6876  0.3283
 7599TIP3    H246993   2.163   6.826   2.274 -0.2538 -0.2577  0.0301
 7600TIP3   OH246994   5.925   6.707   2.975 -0.0442  0.2536 -0.1043
 7600TIP3    H146995   5.839   6.727   2.937 -0.2363  0.8388  0.5982
 7600TIP3    H246996   5.982   6.776   2.941 -0.1709  0.6595  0.4780
 7601TIP3   OH246997   4.260   4.556   1.563  0.1420  0.3398 -0.3262
 7601TIP3    H146998   4.208   4.602   1.497  0.0159  0.6179 -0.0407
 7601TIP3    H246999   4.198   4.496   1.605 -0.0659  0.9825  0.3102
 7602TIP3   OH247000   1.616   2.304   1.674 -0.2636 -0.1610  0.5529
 7602TIP3    H147001   1.573   2.346   1.748 -0.3949  0.3943  0.1639
 7602TIP3    H247002   1.584   2.214   1.676  1.3018 -0.7574  2.4046
 7603TIP3   OH247003   2.914   0.139   1.307 -0.0670 -0.1041  0.5659
 7603TIP3    H147004   2.873   0.147   1.221 -1.3844  0.4435  1.2137
 7603TIP3    H247005   2.843   0.156   1.369  0.7543 -0.9087  1.7758
 7604TIP3   OH247006   7.058   1.939   1.437  0.1781 -0.2725 -0.1925
 7604TIP3    H147007   7.001   2.013   1.453  0.7454 -0.0814  1.1210
 7604TIP3    H247008   7.137   1.977   1.400  0.7645 -0.0902  1.1765
 7605TIP3   OH247009   6.833   3.769   2.791  0.2595 -0.1826  0.2351
 7605TIP3    H147010   6.916   3.815   2.799 -0.2219  0.8611 -0.5653
 7605TIP3    H247011   6.824   3.753   2.697 -0.3908 -0.4099  0.3344
 7606TIP3   OH247012   0.480   4.186   3.081  0.4672 -0.0365  0.4086
 7606TIP3    H147013   0.534   4.132   3.023 -0.1285 -0.6882  0.4483
 7606TIP3    H247014   0.542   4.242   3.128  0.8976  2.1001 -2.3984
 7607TIP3   OH247015   3.220   4.866   1.626 -0.0206  0.4529 -0.2816
 7607TIP3    H147016   3.231   4.808   1.702  3.4751  0.6455 -0.4689
 7607TIP3    H247017   3.195   4.807   1.555 -1.1935 -0.0518  0.5107
 7608TIP3   OH247018   2.224   7.446   1.467  0.0215 -0.6271  0.4391
 7608TIP3    H147019   2.239   7.527   1.417  0.9562 -1.2453 -0.2944
 7608TIP3    H247020   2.212   7.379   1.400 -1.1506 -1.0442  1.0460
 7609TIP3   OH247021   2.510   3.748   1.341  0.7649  0.0767 -0.2987
 7609TIP3    H147022   2.430   3.792   1.314 -0.3200 -2.4018 -1.3869
 7609TIP3    H247023   2.497   3.727   1.434  0.7395  0.8114 -0.1301
 7610TIP3   OH247024   3.971   3.992   1.861  0.0246  0.2621  1.0239
 7610TIP3    H147025   3.962   3.905   1.822 -2.3700  0.5352  0.8121
 7610TIP3    H247026   3.937   3.982   1.950 -1.1237  1.1310  0.7101
 7611TIP3   OH247027   0.779   3.336   3.219 -0.7606  0.0418  0.7811
 7611TIP3    H147028   0.816   3.362   3.303 -1.1373  0.9198  0.6827
 7611TIP3    H247029   0.781   3.415   3.165  0.1148 -0.6630 -0.2861
 7612TIP3   OH247030   7.039   3.705   2.504 -0.2636  0.1159 -0.0890
 7612TIP3    H147031   6.994   3.630   2.543  0.1444 -0.3381 -0.4847
 7612TIP3    H247032   7.107   3.728   2.568  0.0046 -0.2363 -0.2474
 7613TIP3   OH247033   4.590   5.356   1.419 -0.0768  0.6636  0.3809
 7613TIP3    H147034   4.521   5.405   1.464 -2.2859 -0.5663 -1.4989
 7613TIP3    H247035   4.551   5.272   1.398  2.0013 -0.0836 -0.8413
 7614TIP3   OH247036   2.620   5.812   0.415  0.7602 -0.1100  0.6371
 7614TIP3    H147037   2.531   5.818   0.450  0.5237  0.2235  0.0011
 7614TIP3    H247038   2.647   5.722   0.433 -0.0737 -0.5178 -0.0035
 7615TIP3   OH247039   0.305   6.462   1.787  0.0049 -0.1245  0.7483
 7615TIP3    H147040   0.284   6.454   1.694 -1.4147 -1.0409  1.1141
 7615TIP3    H247041   0.350   6.380   1.808  2.7441  1.1512  0.3399
 7616TIP3   OH247042   5.836   3.572   2.464  0.3444 -1.0367 -1.1459
 7616TIP3    H147043   5.815   3.651   2.514  1.3479 -0.9184 -0.8896
 7616TIP3    H247044   5.761   3.560   2.406  0.6820  0.7670 -2.0121
 7617TIP3   OH247045   2.725   5.736   1.670 -0.1215  0.3368 -0.2216
 7617TIP3    H147046   2.706   5.790   1.593  1.0628  0.6935 -0.2896
 7617TIP3    H247047   2.640   5.704   1.699 -0.4508 -1.2108 -2.6780
 7618TIP3   OH247048   4.475   1.706   2.078 -0.4031  0.2194  0.2073
 7618TIP3    H147049   4.451   1.756   2.000  0.6473 -0.6977 -0.7483
 7618TIP3    H247050   4.410   1.636   2.083 -0.5820  0.3894  0.2702
 7619TIP3   OH247051   2.633   2.927   2.460 -0.1433  0.4335  0.0908
 7619TIP3    H147052   2.627   3.017   2.426  0.7050  0.4608 -0.0157
 7619TIP3    H247053   2.542   2.897   2.465 -0.5505  1.7966  1.4804
 7620TIP3   OH247054   5.256   7.174   0.449 -0.6006 -0.2629 -0.4641
 7620TIP3    H147055   5.178   7.229   0.450  0.2784  1.0714 -1.3559
 7620TIP3    H247056   5.319   7.223   0.396  1.0413 -1.0214  0.6915
 7621TIP3   OH247057   0.107   1.031   1.922 -0.6737  0.4545  0.0355
 7621TIP3    H147058   0.071   0.942   1.920 -1.7327  0.8548 -1.8467
 7621TIP3    H247059   0.170   1.030   1.993 -1.7885 -1.3628  1.0835
 7622TIP3   OH247060   1.230   5.797   3.481 -0.6966 -0.4282  0.0351
 7622TIP3    H147061   1.286   5.797   3.403 -0.2196  0.4348  0.3692
 7622TIP3    H247062   1.213   5.705   3.498  0.3254 -0.6901 -0.2921
 7623TIP3   OH247063   3.003   1.326   2.645 -0.5726  0.5909 -0.0464
 7623TIP3    H147064   2.987   1.420   2.655  0.6256  0.6434  1.9696
 7623TIP3    H247065   3.095   1.315   2.670 -0.6143 -1.1014 -0.5236
 7624TIP3   OH247066   1.818   6.552   2.129  0.2328 -0.4142  0.2794
 7624TIP3    H147067   1.810   6.628   2.071 -0.0659 -0.2109  0.5840
 7624TIP3    H247068   1.784   6.582   2.213  0.8078 -0.6583  0.6075
 7625TIP3   OH247069   1.396   5.405   0.669 -0.2946 -0.4374 -0.1437
 7625TIP3    H147070   1.343   5.381   0.745 -0.1955 -0.7187 -0.1634
 7625TIP3    H247071   1.418   5.322   0.627  1.2279 -0.4496  0.5960
 7626TIP3   OH247072   0.696   2.039   1.330 -0.2230  0.8375 -0.0549
 7626TIP3    H147073   0.702   2.091   1.251 -0.7459  0.2696 -0.4808
 7626TIP3    H247074   0.607   2.053   1.362 -0.6045 -0.3038 -0.5535
 7627TIP3   OH247075   7.402   0.428   2.475 -0.4205 -0.3848  0.0822
 7627TIP3    H147076   7.443   0.503   2.519  0.0933  0.4059 -1.6274
 7627TIP3    H247077   7.308   0.447   2.478 -0.2836  0.5084 -0.5509
 7628TIP3   OH247078   4.062   0.250   2.982  0.1951 -0.6644  0.2807
 7628TIP3    H147079   4.071   0.344   2.969 -0.1038 -0.6179  0.3880
 7628TIP3    H247080   4.098   0.211   2.903  0.4274 -0.4650  0.2854
 7629TIP3   OH247081   7.083   4.410   2.632  0.3484 -0.5696  0.5527
 7629TIP3    H147082   7.122   4.488   2.671  0.8830 -0.0174 -0.9922
 7629TIP3    H247083   7.133   4.397   2.551 -0.2010 -2.1051  0.4273
 7630TIP3   OH247084   4.320   6.424   1.973  0.1370  0.1748 -0.5493
 7630TIP3    H147085   4.395   6.409   1.914 -0.0378  3.4973 -1.8605
 7630TIP3    H247086   4.270   6.493   1.929 -2.1504  0.0560  1.7059
 7631TIP3   OH247087   2.316   0.538   3.709  0.4000  0.1024  0.4184
 7631TIP3    H147088   2.222   0.541   3.723  0.3956  0.4367  0.3248
 7631TIP3    H247089   2.335   0.445   3.692 -0.0190  0.1361 -0.2873
 7632TIP3   OH247090   2.931   0.691   2.311 -0.2255  0.0096 -0.1513
 7632TIP3    H147091   2.984   0.768   2.335  0.0248 -0.3543  0.4754
 7632TIP3    H247092   2.937   0.633   2.386 -3.9912  1.2164  1.2880
 7633TIP3   OH247093   7.382   5.975   1.817 -0.3907 -0.3200 -0.0310
 7633TIP3    H147094   7.435   6.053   1.832  0.5913 -0.6574 -1.5804
 7633TIP3    H247095   7.294   6.001   1.844  0.3797  0.4577  1.9588
 7634TIP3   OH247096   1.142   6.534   0.978 -0.9511 -0.5101  0.6247
 7634TIP3    H147097   1.079   6.471   0.943  0.3470 -1.6934  0.3229
 7634TIP3    H247098   1.194   6.559   0.901 -2.2256  1.9587  0.4633
 7635TIP3   OH247099   3.060   4.415   1.655 -0.2090 -0.5629  0.0484
 7635TIP3    H147100   2.979   4.458   1.683 -0.8077 -1.4390 -0.3033
 7635TIP3    H247101   3.078   4.351   1.723  1.5823  1.2762  1.4290
 7636TIP3   OH247102   0.445   1.273   0.575 -0.5092  0.5064 -0.1539
 7636TIP3    H147103   0.403   1.199   0.619 -1.2104  0.2247 -1.2575
 7636TIP3    H247104   0.372   1.327   0.544 -0.0702  0.3725 -1.4880
 7637TIP3   OH247105   1.810   5.677   2.534 -0.2328  0.0658  0.3820
 7637TIP3    H147106   1.855   5.758   2.557  0.3396 -0.0554 -0.2716
 7637TIP3    H247107   1.733   5.705   2.483  1.3589  0.1437 -2.1543
 7638TIP3   OH247108   3.551   6.923   1.111 -0.3953  0.1581 -0.1606
 7638TIP3    H147109   3.524   7.012   1.089  1.6329  1.2716  1.3927
 7638TIP3    H247110   3.644   6.932   1.133 -0.4577 -2.1105  1.3391
 7639TIP3   OH247111   2.482   4.147   0.817  0.7029  0.0217  0.5475
 7639TIP3    H147112   2.541   4.195   0.759 -0.1020 -0.2962 -0.5898
 7639TIP3    H247113   2.438   4.085   0.759 -0.6804  0.2033  1.3637
 7640TIP3   OH247114   2.731   3.618   2.609 -0.0234 -0.6193  0.3234
 7640TIP3    H147115   2.756   3.577   2.692  0.0580  1.0019  1.1559
 7640TIP3    H247116   2.813   3.633   2.564  0.0984  0.0775  0.7580
 7641TIP3   OH247117   1.230   1.416   2.417  0.5626 -0.1681  0.4739
 7641TIP3    H147118   1.229   1.321   2.412 -0.6974 -0.1951  0.9785
 7641TIP3    H247119   1.257   1.445   2.329 -0.6395 -0.9684 -0.1849
 7642TIP3   OH247120   0.165   2.284   1.133  0.3677  0.0028  0.4969
 7642TIP3    H147121   0.115   2.364   1.148 -0.4535 -0.4752  0.3216
 7642TIP3    H247122   0.220   2.305   1.057  1.2335  0.8834  1.3279
 7643TIP3   OH247123   6.313   6.063   0.443 -0.4286  0.2987 -0.8249
 7643TIP3    H147124   6.320   6.132   0.509 -2.5750 -0.2610  0.0713
 7643TIP3    H247125   6.225   6.073   0.407 -0.9598 -2.1819 -0.3713
 7644TIP3   OH247126   6.098   1.838   2.649 -0.4323 -0.4919  0.1079
 7644TIP3    H147127   6.043   1.881   2.584 -0.4368  1.7524  1.4785
 7644TIP3    H247128   6.037   1.806   2.715 -0.2176  1.6883  1.4536
 7645TIP3   OH247129   2.131   5.031   0.915  0.1622 -0.1815 -0.7341
 7645TIP3    H147130   2.044   5.066   0.936  0.6027 -0.2905  1.5723
 7645TIP3    H247131   2.176   5.104   0.874 -1.3554 -0.4988 -3.1987
 7646TIP3   OH247132   5.051   7.321   1.700  0.0497 -0.3800  0.2208
 7646TIP3    H147133   5.035   7.341   1.792  0.3526 -0.6450  0.3335
 7646TIP3    H247134   5.121   7.380   1.674 -0.6703  0.3457 -0.1004
 7647TIP3   OH247135   4.769   6.524   1.375 -0.6173  0.1402  0.2147
 7647TIP3    H147136   4.732   6.487   1.295 -2.3198 -0.6193  1.2847
 7647TIP3    H247137   4.759   6.453   1.439 -2.6006  1.8801  1.9695
 7648TIP3   OH247138   4.025   6.456   2.394 -0.3075  0.7205  0.3325
 7648TIP3    H147139   4.067   6.468   2.309 -0.4014  0.5064  0.2557
 7648TIP3    H247140   3.996   6.365   2.394 -0.2632  0.7052  0.6137
 7649TIP3   OH247141   0.701   5.649   1.886 -0.5280 -0.0218 -0.1058
 7649TIP3    H147142   0.790   5.626   1.913 -0.8270 -0.5012  0.4928
 7649TIP3    H247143   0.712   5.690   1.800  0.4639  1.6208  0.7425
 7650TIP3   OH247144   5.763   0.953   1.962 -0.3421  0.0398 -0.4783
 7650TIP3    H147145   5.754   0.862   1.933 -1.2648 -0.1047  0.2345
 7650TIP3    H247146   5.682   0.996   1.933  0.7958  1.0838 -2.3162
 7651TIP3   OH247147   3.552   5.428   1.039  0.6966  0.2379  0.0692
 7651TIP3    H147148   3.520   5.390   0.958 -0.3453  0.3579  0.4097
 7651TIP3    H247149   3.625   5.484   1.013  1.0525 -0.5471 -0.6498
 7652TIP3   OH247150   2.049   5.367   0.858  0.0318  0.2034 -0.1302
 7652TIP3    H147151   2.002   5.363   0.775  0.3855  1.1269 -0.3827
 7652TIP3    H247152   1.983   5.394   0.922  0.0004  0.5528 -0.3086
 7653TIP3   OH247153   7.369   3.158   0.892  0.7397 -0.1493  0.9625
 7653TIP3    H147154   7.286   3.206   0.895 -0.1224 -1.3918 -0.8326
 7653TIP3    H247155   7.382   3.138   0.799  2.0540 -1.6370  1.4132
 7654TIP3   OH247156   1.710   7.469   0.419  0.1952 -0.8760 -0.6922
 7654TIP3    H147157   1.784   7.526   0.397 -0.9447  0.7672 -0.4585
 7654TIP3    H247158   1.741   7.417   0.493  0.3063  1.6992  1.2240
 7655TIP3   OH247159   5.718   6.402   1.776 -0.0275  0.1242 -0.3143
 7655TIP3    H147160   5.737   6.309   1.765  0.6525  0.0602  1.2389
 7655TIP3    H247161   5.802   6.442   1.799 -0.4092  1.0506 -0.4769
 7656TIP3   OH247162   2.189   3.910   1.624 -0.8188 -0.2971  0.6333
 7656TIP3    H147163   2.105   3.936   1.586 -1.5461 -0.7172  1.9008
 7656TIP3    H247164   2.209   3.979   1.687 -1.6810 -1.6210  2.4360
 7657TIP3   OH247165   3.670   4.039   2.528 -0.1211 -0.1719 -0.4605
 7657TIP3    H147166   3.757   4.043   2.490 -0.3113 -0.4621 -0.9308
 7657TIP3    H247167   3.632   3.958   2.494 -1.5981  1.2576 -2.4627
 7658TIP3   OH247168   2.181   6.015   1.241 -0.4927 -0.2287 -0.1713
 7658TIP3    H147169   2.225   6.089   1.199  0.2585 -0.5463  0.0574
 7658TIP3    H247170   2.251   5.962   1.278 -0.9327 -1.6815 -1.3354
 7659TIP3   OH247171   7.319   0.182   1.242  0.3018  0.5619  0.1153
 7659TIP3    H147172   7.322   0.223   1.329 -0.9243 -0.6390  0.7496
 7659TIP3    H247173   7.341   0.090   1.258  0.2590  0.3635 -0.8844
 7660TIP3   OH247174   1.932   1.492   2.884 -0.2974  0.0592 -0.4980
 7660TIP3    H147175   1.886   1.566   2.924 -0.8100  0.3917 -1.6741
 7660TIP3    H247176   1.979   1.530   2.810 -0.0084 -0.6792 -0.7010
 7661TIP3   OH247177   3.932   4.993   1.870  0.1379  0.5108  0.0238
 7661TIP3    H147178   3.924   4.974   1.777  0.7571 -0.9042  0.2352
 7661TIP3    H247179   4.016   4.955   1.896  0.0181  0.9600  1.1426
 7662TIP3   OH247180   1.967   3.741   1.500  0.4700 -0.1935  0.2086
 7662TIP3    H147181   1.913   3.758   1.423 -0.2976  0.6409  0.9011
 7662TIP3    H247182   1.938   3.806   1.564  2.3917  0.3648  0.5763
 7663TIP3   OH247183   1.430   4.526   2.599 -0.9703 -0.0162  0.1132
 7663TIP3    H147184   1.525   4.539   2.594 -0.7927 -1.4517 -1.7097
 7663TIP3    H247185   1.393   4.607   2.566 -0.4404  0.9047  1.6794
 7664TIP3   OH247186   5.425   5.146   2.642 -0.0117 -0.2923 -0.2832
 7664TIP3    H147187   5.462   5.108   2.563  0.6155 -1.0225  0.3540
 7664TIP3    H247188   5.445   5.084   2.712 -0.1689  0.5428  0.5384
 7665TIP3   OH247189   5.907   3.755   2.103  0.0940 -0.3229 -0.2654
 7665TIP3    H147190   5.977   3.746   2.168  0.3702  0.4023 -0.4542
 7665TIP3    H247191   5.829   3.775   2.156  0.1840 -0.3646 -0.1152
 7666TIP3   OH247192   4.575   4.275   1.574 -0.0425  0.0050  0.2077
 7666TIP3    H147193   4.512   4.305   1.510 -0.8048  0.1215  0.9924
 7666TIP3    H247194   4.541   4.306   1.658  1.6207  1.0104  0.5489
 7667TIP3   OH247195   0.846   3.575   0.617 -0.2549 -0.1646 -0.2188
 7667TIP3    H147196   0.794   3.496   0.605 -0.5831  0.1954 -1.3926
 7667TIP3    H247197   0.932   3.544   0.642 -0.3346 -0.9111 -0.8406
 7668TIP3   OH247198   2.318   6.659   1.546  0.0468 -0.6472  0.0687
 7668TIP3    H147199   2.318   6.684   1.453 -0.4874 -1.9975 -0.3127
 7668TIP3    H247200   2.407   6.627   1.562  0.1388 -0.4162  0.0305
 7669TIP3   OH247201   4.746   3.650   3.094 -0.4216  0.3347 -0.5408
 7669TIP3    H147202   4.659   3.624   3.063 -0.7042 -2.0811  1.8882
 7669TIP3    H247203   4.795   3.568   3.099  1.9488  1.6030 -1.5587
 7670TIP3   OH247204   3.809   0.270   3.363 -0.4393 -0.7735  1.1720
 7670TIP3    H147205   3.777   0.185   3.391  1.6458 -1.4819  1.5587
 7670TIP3    H247206   3.903   0.260   3.355 -0.3396  0.8706 -1.0267
 7671TIP3   OH247207   5.651   4.853   0.606 -0.1727 -0.3854  0.1377
 7671TIP3    H147208   5.679   4.936   0.567 -1.2080  0.8621  1.8989
 7671TIP3    H247209   5.732   4.802   0.613  0.6039  0.7239 -0.3533
 7672TIP3   OH247210   4.369   5.557   2.976  0.1559  0.0469 -0.0592
 7672TIP3    H147211   4.300   5.594   2.921  0.0422  0.3486  0.2806
 7672TIP3    H247212   4.350   5.591   3.063 -0.4189 -1.4423  0.4270
 7673TIP3   OH247213   1.401   2.936   0.675  0.5403 -0.4141 -0.1437
 7673TIP3    H147214   1.463   2.871   0.641  1.5972  0.3869  0.2037
 7673TIP3    H247215   1.453   3.016   0.684 -0.0393 -0.2203  2.0007
 7674TIP3   OH247216   2.763   5.250   2.280 -0.4730 -0.6848  0.3252
 7674TIP3    H147217   2.786   5.181   2.342 -0.1485 -1.4030 -0.5748
 7674TIP3    H247218   2.780   5.212   2.193 -1.4927  0.0683 -0.2409
 7675TIP3   OH247219   7.211   2.246   2.020 -0.3097 -0.3901 -0.2442
 7675TIP3    H147220   7.296   2.286   2.000  0.5795 -1.1192  1.8115
 7675TIP3    H247221   7.159   2.260   1.941  2.2920 -1.5247 -2.3008
 7676TIP3   OH247222   4.868   6.130   0.599 -0.5002 -0.2348  0.4506
 7676TIP3    H147223   4.856   6.042   0.563  0.2336 -0.8155  1.5829
 7676TIP3    H247224   4.806   6.134   0.673  0.4115 -0.3101  1.2404
 7677TIP3   OH247225   7.203   6.362   0.532  0.1426 -0.3012  0.5763
 7677TIP3    H147226   7.268   6.307   0.487 -2.1625 -2.2577 -0.6010
 7677TIP3    H247227   7.140   6.300   0.568 -1.0486  1.4983  1.7522
 7678TIP3   OH247228   5.699   1.943   1.801  0.9646  0.8401 -0.4571
 7678TIP3    H147229   5.721   2.031   1.830 -2.5011  1.8942 -0.5596
 7678TIP3    H247230   5.647   1.956   1.722  2.0404 -1.4678 -1.6366
 7679TIP3   OH247231   7.428   3.555   0.584 -0.2925  0.3382 -0.2400
 7679TIP3    H147232   7.494   3.581   0.647  0.8461 -1.8345 -0.4308
 7679TIP3    H247233   7.396   3.637   0.546  0.9952  1.5193  1.1418
 7680TIP3   OH247234   6.109   1.325   0.476 -0.0648 -0.0165  0.1230
 7680TIP3    H147235   6.049   1.400   0.468 -0.8838 -0.7409 -0.8078
 7680TIP3    H247236   6.193   1.364   0.501 -0.8714  1.0452  1.3184
 7681TIP3   OH247237   1.449   1.095   0.483 -0.5178 -0.1213  0.2740
 7681TIP3    H147238   1.433   1.146   0.404 -0.1022  0.7694  0.7525
 7681TIP3    H247239   1.534   1.126   0.515 -1.6884  1.1763  2.3222
 7682TIP3   OH247240   1.803   5.596   1.795  0.1973  0.4458  0.1231
 7682TIP3    H147241   1.767   5.556   1.874  1.3641  1.1510  1.0436
 7682TIP3    H247242   1.863   5.530   1.760  0.1349  0.3704  0.1577
 7683TIP3   OH247243   3.106   5.644   1.153 -0.0047  0.1344 -0.2030
 7683TIP3    H147244   3.028   5.698   1.167 -0.5152 -1.1690  2.9945
 7683TIP3    H247245   3.175   5.688   1.202  0.0523 -1.0181  0.8154
 7684TIP3   OH247246   0.124   7.106   1.450  0.5235 -0.9910  0.2463
 7684TIP3    H147247   0.145   7.160   1.374  1.4341  1.2927  2.0211
 7684TIP3    H247248   0.039   7.068   1.429 -1.5262  3.2586 -0.1344
 7685TIP3   OH247249   5.702   4.642   2.045  0.1535  0.3374  0.6345
 7685TIP3    H147250   5.666   4.728   2.066  1.8037  1.3875 -0.6055
 7685TIP3    H247251   5.625   4.584   2.043 -0.8163  1.4375  2.9007
 7686TIP3   OH247252   5.001   0.890   2.747  0.3784 -0.3705 -0.0403
 7686TIP3    H147253   4.971   0.955   2.810  0.5437 -0.6404  0.3241
 7686TIP3    H247254   5.065   0.936   2.693  0.3431 -0.1755  0.0821
 7687TIP3   OH247255   6.160   3.969   1.679 -0.2592 -0.1332 -0.5935
 7687TIP3    H147256   6.198   4.040   1.729  2.4632 -0.2655 -2.2719
 7687TIP3    H247257   6.192   3.889   1.721  1.5224 -0.2472 -2.0382
 7688TIP3   OH247258   2.575   6.670   2.574  0.5627 -0.4020 -0.0893
 7688TIP3    H147259   2.561   6.764   2.562 -2.0080 -0.6799  0.0766
 7688TIP3    H247260   2.497   6.641   2.622  1.2665 -2.6309 -0.2093
 7689TIP3   OH247261   3.213   1.305   1.875 -0.2400  0.5625  0.1356
 7689TIP3    H147262   3.198   1.296   1.969 -2.5654  1.1445 -0.1262
 7689TIP3    H247263   3.157   1.377   1.848  1.6812  1.5617 -1.4518
 7690TIP3   OH247264   2.411   0.824   2.713  0.2111  0.8086  0.4310
 7690TIP3    H147265   2.334   0.821   2.770 -0.2572  1.6118 -0.1464
 7690TIP3    H247266   2.431   0.917   2.705  0.5075  0.6785 -0.3917
 7691TIP3   OH247267   3.191   6.713   1.785  0.1256  0.3974  0.3320
 7691TIP3    H147268   3.206   6.717   1.879  0.1904  0.9347  0.2970
 7691TIP3    H247269   3.271   6.674   1.750 -0.1263 -0.3399  0.5550
 7692TIP3   OH247270   5.813   5.514   1.857 -0.1481  0.4513 -0.2967
 7692TIP3    H147271   5.719   5.534   1.853  0.2502  2.2865 -2.2717
 7692TIP3    H247272   5.832   5.470   1.775  0.5780 -0.8713  0.5398
 7693TIP3   OH247273   7.041   6.287   8.683 -0.0556  0.4341  0.1239
 7693TIP3    H147274   6.969   6.301   8.745 -0.1881  1.5744 -0.2649
 7693TIP3    H247275   7.109   6.347   8.711  0.8575 -0.7869  0.6065
 7694TIP3   OH247276   1.696   7.199   1.557  0.2132  0.1560 -0.7392
 7694TIP3    H147277   1.769   7.256   1.532  0.0119  2.7627  3.6904
 7694TIP3    H247278   1.629   7.258   1.590 -1.0224 -2.4918  1.9428
 7695TIP3   OH247279   7.388   0.801   1.044 -0.2554  0.0158 -0.0709
 7695TIP3    H147280   7.296   0.794   1.072  0.1255  0.4830  1.3585
 7695TIP3    H247281   7.417   0.710   1.036 -0.2119 -0.1586  1.7000
 7696TIP3   OH247282   1.435   3.833   2.082 -0.0217  0.3807 -0.0133
 7696TIP3    H147283   1.439   3.738   2.092  0.5281  0.4832  0.8934
 7696TIP3    H247284   1.419   3.847   1.989  0.1696 -0.5956 -0.2021
 7697TIP3   OH247285   4.563   5.317   1.095 -0.8563  0.1930  0.1196
 7697TIP3    H147286   4.541   5.234   1.052  1.9588 -0.9395  0.5903
 7697TIP3    H247287   4.627   5.357   1.036  0.0105  0.5747  1.2879
 7698TIP3   OH247288   3.071   5.341   0.651  0.3200  0.0657  0.0078
 7698TIP3    H147289   3.088   5.259   0.606  2.9839 -0.2516  1.3493
 7698TIP3    H247290   3.091   5.323   0.743 -2.0611  1.4377  0.9000
 7699TIP3   OH247291   7.235   1.554   1.332 -0.8309 -0.1136  0.0027
 7699TIP3    H147292   7.227   1.575   1.425 -3.1398  3.9081 -0.8523
 7699TIP3    H247293   7.322   1.588   1.308 -1.7628  2.6002  0.0801
 7700TIP3   OH247294   1.707   5.457   1.530 -0.4823  0.0648 -0.1530
 7700TIP3    H147295   1.735   5.410   1.609 -0.3877 -0.0888 -0.2775
 7700TIP3    H247296   1.786   5.498   1.497 -0.4754 -0.0621 -0.2968
 7701TIP3   OH247297   7.151   2.888   1.627 -0.4259  0.4931 -0.1621
 7701TIP3    H147298   7.230   2.834   1.627  0.9141  2.3086  2.1003
 7701TIP3    H247299   7.097   2.852   1.698 -0.3919  0.9494  0.0968
 7702TIP3   OH247300   1.496   5.798   2.209 -0.0595  0.1850 -0.1552
 7702TIP3    H147301   1.419   5.845   2.176  0.5928  0.0188 -2.0137
 7702TIP3    H247302   1.568   5.825   2.153  0.7336 -1.5739 -0.0766
 7703TIP3   OH247303   5.366   5.093   0.850  0.1913 -0.3043 -0.4228
 7703TIP3    H147304   5.435   5.148   0.814 -0.6614  2.6349  1.9872
 7703TIP3    H247305   5.288   5.115   0.799  0.0498  0.0672 -0.0563
 7704TIP3   OH247306   1.344   3.796   1.805 -0.0179  0.1978 -0.2049
 7704TIP3    H147307   1.271   3.756   1.853 -0.5391 -0.3783 -1.4337
 7704TIP3    H247308   1.341   3.756   1.719  2.3215 -0.4944 -0.0258
 7705TIP3   OH247309   6.101   6.596   3.143 -0.1673 -0.2577  0.0291
 7705TIP3    H147310   6.026   6.634   3.096  0.7708  1.3689 -0.2472
 7705TIP3    H247311   6.103   6.505   3.116 -0.6520  0.2447 -1.8204
 7706TIP3   OH247312   0.164   3.422   3.080  0.1531  0.0035  1.0232
 7706TIP3    H147313   0.095   3.357   3.064  1.3658 -0.8179 -1.3060
 7706TIP3    H247314   0.117   3.505   3.089 -1.1415 -0.1327 -2.7665
 7707TIP3   OH247315   6.333   0.455   0.390  0.4471 -0.5990  0.0068
 7707TIP3    H147316   6.424   0.485   0.396  0.7776 -0.7768 -2.8166
 7707TIP3    H247317   6.339   0.361   0.379 -0.0652 -0.6002 -0.2903
 7708TIP3   OH247318   2.026   0.627   1.560 -0.2276 -0.1673  0.2444
 7708TIP3    H147319   2.033   0.713   1.519 -1.3813  0.2341  0.8387
 7708TIP3    H247320   2.074   0.635   1.642 -1.2292  0.2591  0.8049
 7709TIP3   OH247321   7.134   5.022   2.790  0.3651  0.4703 -0.2004
 7709TIP3    H147322   7.202   4.955   2.782 -0.2474  0.0292 -2.1561
 7709TIP3    H247323   7.053   4.977   2.767 -0.6431  1.0097  1.9855
 7710TIP3   OH247324   4.679   6.057   1.066 -0.1225  0.5657 -0.3339
 7710TIP3    H147325   4.658   6.093   0.979 -1.6769  0.8770  0.1303
 7710TIP3    H247326   4.652   6.126   1.127  1.3937  0.5465  0.4020
 7711TIP3   OH247327   4.322   1.061   1.925 -0.3547  0.2099  0.2713
 7711TIP3    H147328   4.306   1.105   2.008 -0.8115  0.0226  0.2873
 7711TIP3    H247329   4.388   1.115   1.882  0.4523 -0.1143  1.0750
 7712TIP3   OH247330   6.143   7.088   0.515 -0.4663  0.3780  0.7705
 7712TIP3    H147331   6.220   7.082   0.573 -0.5164  0.8757  0.8855
 7712TIP3    H247332   6.148   7.008   0.462  0.9787  1.1218 -0.2745
 7713TIP3   OH247333   4.649   1.211   1.499  0.2657  0.0201  0.1642
 7713TIP3    H147334   4.700   1.259   1.565 -0.8786  0.0723  1.0493
 7713TIP3    H247335   4.694   1.228   1.417 -0.1171  2.6595  0.4350
 7714TIP3   OH247336   6.684   6.114   1.428 -0.1694  0.0059  0.1808
 7714TIP3    H147337   6.771   6.107   1.467 -0.2064 -0.5692  0.1631
 7714TIP3    H247338   6.662   6.025   1.400 -0.6878  0.1767  0.0209
 7715TIP3   OH247339   2.714   2.561   2.489  0.0197 -0.1152  0.3777
 7715TIP3    H147340   2.695   2.588   2.578  0.9066  2.1369 -0.0676
 7715TIP3    H247341   2.807   2.580   2.477 -0.2942  0.5118 -1.3118
 7716TIP3   OH247342   3.871   2.557   1.098 -0.1059  0.1150  0.0667
 7716TIP3    H147343   3.885   2.515   1.183 -0.8386  1.7445  1.0355
 7716TIP3    H247344   3.777   2.575   1.096 -0.0289  0.4653 -0.9193
 7717TIP3   OH247345   6.267   4.186   1.819 -0.3484  0.0755  0.2282
 7717TIP3    H147346   6.360   4.184   1.842 -0.3113  1.0203  0.2265
 7717TIP3    H247347   6.233   4.263   1.865 -0.4806  1.4698 -2.0340
 7718TIP3   OH247348   2.597   6.080   1.073 -0.5734 -0.1178  0.0494
 7718TIP3    H147349   2.644   6.156   1.037  1.3810 -1.3428 -0.1081
 7718TIP3    H247350   2.505   6.106   1.069 -0.0127  2.0557 -0.4506
 7719TIP3   OH247351   3.308   6.596   2.344 -0.3726 -0.0274  0.4538
 7719TIP3    H147352   3.233   6.550   2.383  0.8581 -1.0900  1.6413
 7719TIP3    H247353   3.346   6.533   2.283  0.1272  0.1650  0.5661
 7720TIP3   OH247354   6.164   5.645   2.195 -0.0817  0.4016 -0.1813
 7720TIP3    H147355   6.255   5.665   2.170 -0.2627  0.6578 -0.6524
 7720TIP3    H247356   6.112   5.684   2.125 -0.5536  0.2109  0.0663
 7721TIP3   OH247357   1.477   1.236   2.148  0.0948 -0.3069 -0.6104
 7721TIP3    H147358   1.421   1.283   2.086 -1.1468 -2.1220 -0.9422
 7721TIP3    H247359   1.526   1.174   2.094  1.2895  0.1984 -0.1225
 7722TIP3   OH247360   2.017   1.831   1.174 -0.5854  0.0561 -0.1235
 7722TIP3    H147361   2.048   1.921   1.167  0.1175 -0.1039  0.7438
 7722TIP3    H247362   2.036   1.806   1.265 -0.5896 -1.0298 -0.4037
 7723TIP3   OH247363   5.202   3.428   0.807  0.3885  0.7641  0.4471
 7723TIP3    H147364   5.183   3.494   0.874  1.9154  0.7903  0.8753
 7723TIP3    H247365   5.249   3.476   0.739  1.2639  0.1716  0.6344
 7724TIP3   OH247366   2.893   4.295   2.764  0.4158 -0.2237 -0.3476
 7724TIP3    H147367   2.973   4.289   2.815 -0.2783  0.5209  0.8524
 7724TIP3    H247368   2.915   4.353   2.691  1.1391 -0.5412 -0.3911
 7725TIP3   OH247369   2.494   2.590   2.321  0.0901  0.0610 -0.2008
 7725TIP3    H147370   2.423   2.632   2.369  0.6198  1.3115 -0.4729
 7725TIP3    H247371   2.570   2.600   2.377  0.7611  1.7220 -1.3127
 7726TIP3   OH247372   2.792   4.368   0.867 -0.0554  0.0057 -0.2791
 7726TIP3    H147373   2.875   4.385   0.824  0.9746 -1.7654  0.8827
 7726TIP3    H247374   2.732   4.346   0.796  0.8859 -0.2040 -1.0278
 7727TIP3   OH247375   5.855   2.965   1.194  0.1971  0.1853 -0.1626
 7727TIP3    H147376   5.795   2.911   1.143 -0.2885  0.7019 -0.1538
 7727TIP3    H247377   5.935   2.913   1.201 -0.5891 -0.9524  0.6964
 7728TIP3   OH247378   2.312   5.410   0.939 -0.2314 -0.4723 -0.1145
 7728TIP3    H147379   2.357   5.334   0.901 -0.7043 -0.2661 -1.1093
 7728TIP3    H247380   2.220   5.399   0.914 -0.3060  0.4313 -0.2832
 7729TIP3   OH247381   0.029   2.007   1.204 -0.3306 -0.1752  0.2436
 7729TIP3    H147382   0.035   2.080   1.142 -1.2943  0.7629  1.2174
 7729TIP3    H247383  -0.031   2.038   1.272  0.7674 -1.1527  1.7034
 7730TIP3   OH247384   6.503   7.417   0.656  0.2242  0.0437 -0.4950
 7730TIP3    H147385   6.434   7.470   0.617  1.6537  2.1714 -0.2944
 7730TIP3    H247386   6.500   7.437   0.749  0.4400 -0.6818 -0.3189
 7731TIP3   OH247387   1.460   6.786   2.329  0.1647  0.1758  0.0063
 7731TIP3    H147388   1.443   6.698   2.361  0.2946  0.2789  0.3656
 7731TIP3    H247389   1.522   6.823   2.392 -0.0634  0.6015 -0.0178
 7732TIP3   OH247390   5.947   3.094   1.426  0.6170  0.1775  0.4547
 7732TIP3    H147391   5.895   3.055   1.355  0.0647 -1.4291  1.7026
 7732TIP3    H247392   6.024   3.038   1.433  0.4094  0.0149  1.4783
 7733TIP3   OH247393   2.300   4.160   1.436 -0.3727 -0.1293  0.6235
 7733TIP3    H147394   2.226   4.182   1.380  0.7258  0.3993 -0.6817
 7733TIP3    H247395   2.316   4.239   1.488 -1.6784 -0.7709  2.0811
 7734TIP3   OH247396   1.219   0.789   1.486  0.7145  0.2273  0.0930
 7734TIP3    H147397   1.276   0.841   1.429 -0.9434  2.3526  0.2381
 7734TIP3    H247398   1.224   0.833   1.571 -0.1354 -0.3215  0.4300
 7735TIP3   OH247399   2.708   7.180   1.581 -0.1876  0.3029 -0.5361
 7735TIP3    H147400   2.719   7.266   1.540  0.0391  0.2057 -0.6838
 7735TIP3    H247401   2.633   7.190   1.639  1.1005  1.2294  1.0779
 7736TIP3   OH247402   4.949   1.603   0.662 -0.4289  0.0412  0.0545
 7736TIP3    H147403   4.890   1.673   0.691  1.4012  2.0695 -0.7874
 7736TIP3    H247404   4.934   1.532   0.724 -2.2511  1.2306  1.0958
 7737TIP3   OH247405   0.372   1.675   0.519  0.0192 -0.1104  0.4504
 7737TIP3    H147406   0.416   1.604   0.566 -0.7554 -0.9191 -0.0022
 7737TIP3    H247407   0.313   1.630   0.458 -2.8187  0.8484  2.2997
 7738TIP3   OH247408   7.049   4.837   3.086  0.0905 -0.1572 -0.4211
 7738TIP3    H147409   6.980   4.786   3.043 -0.0439  0.2764 -0.7264
 7738TIP3    H247410   7.097   4.773   3.138 -1.2295 -0.2823  0.6882
 7739TIP3   OH247411   2.309   0.800   0.870 -0.7447  0.3398 -0.1777
 7739TIP3    H147412   2.333   0.890   0.849 -0.5456 -0.2452 -2.6939
 7739TIP3    H247413   2.392   0.752   0.868 -1.2468 -0.5872 -2.9719
 7740TIP3   OH247414   4.217   4.141   0.916  0.2205  0.1971 -0.2915
 7740TIP3    H147415   4.248   4.055   0.885 -0.3491  0.0006 -0.3196
 7740TIP3    H247416   4.141   4.121   0.969  1.1030  0.5417  1.1603
 7741TIP3   OH247417   4.626   3.664   0.809 -0.4633  0.1946  0.9451
 7741TIP3    H147418   4.652   3.577   0.839  2.2058  0.5771  0.0440
 7741TIP3    H247419   4.697   3.721   0.838 -0.6259  1.5343 -1.1030
 7742TIP3   OH247420   4.364   4.719   0.978 -0.0401 -0.4076 -0.1919
 7742TIP3    H147421   4.331   4.707   1.067  0.4920 -0.0582  0.0560
 7742TIP3    H247422   4.298   4.774   0.935  0.2027  0.2747  0.2943
 7743TIP3   OH247423   3.630   7.450   2.342  0.2286 -0.2327  0.0918
 7743TIP3    H147424   3.574   7.500   2.282 -4.1821  0.2980  3.9835
 7743TIP3    H247425   3.679   7.517   2.389 -0.4536 -0.0989  0.6397
 7744TIP3   OH247426   7.167   5.093   3.074 -0.2063 -0.0844 -0.0101
 7744TIP3    H147427   7.134   5.004   3.087  0.1965  0.1101  3.0611
 7744TIP3    H247428   7.166   5.105   2.979 -1.1018 -3.0243 -0.4792
 7745TIP3   OH247429   0.275   3.963   2.518 -0.5878  0.5025  0.3771
 7745TIP3    H147430   0.200   3.978   2.461 -0.0774  1.1237 -0.1455
 7745TIP3    H247431   0.346   3.936   2.459 -0.0971  0.9994  0.7255
 7746TIP3   OH247432   4.068   1.313   2.518 -0.1953  0.3150 -0.0617
 7746TIP3    H147433   4.112   1.229   2.504 -1.2718 -0.3315  0.4003
 7746TIP3    H247434   4.085   1.362   2.437 -1.8961 -1.3931 -1.5372
 7747TIP3   OH247435   2.596   3.486   3.523 -0.2954  0.1963  0.3863
 7747TIP3    H147436   2.628   3.490   3.433 -0.2933 -0.2551  0.3649
 7747TIP3    H247437   2.509   3.447   3.516 -0.5615  0.7454  0.5207
 7748TIP3   OH247438   4.644   7.341   1.298  0.5108 -0.1151 -0.1740
 7748TIP3    H147439   4.666   7.278   1.229 -0.5297 -1.3729  0.5735
 7748TIP3    H247440   4.721   7.343   1.355  0.6127 -0.6210 -0.2897
 7749TIP3   OH247441   1.259   0.774   1.061  0.3435 -0.2711 -0.0669
 7749TIP3    H147442   1.232   0.698   1.010  1.7596 -0.3894 -0.7094
 7749TIP3    H247443   1.194   0.841   1.041 -0.8369 -1.2390  0.3833
 7750TIP3   OH247444   1.214   3.303   2.886 -0.4193  0.2163 -0.5553
 7750TIP3    H147445   1.239   3.237   2.951  1.4096  1.2132 -0.1827
 7750TIP3    H247446   1.131   3.337   2.917  0.6215  1.0069  1.5679
 7751TIP3   OH247447   6.891   4.038   2.679  0.2539 -0.4280 -0.7058
 7751TIP3    H147448   6.808   4.008   2.716  0.7218 -0.4268  0.3823
 7751TIP3    H247449   6.955   4.021   2.748  0.9922  0.4950 -1.1456
 7752TIP3   OH247450   6.112   6.935   2.938  0.1560 -0.0402 -0.7953
 7752TIP3    H147451   6.197   6.948   2.981 -0.0020 -0.2859 -0.4118
 7752TIP3    H247452   6.116   6.992   2.861  0.6082  0.0693 -0.6943
 7753TIP3   OH247453   4.453   5.964   2.466  0.2606  0.4680  0.0517
 7753TIP3    H147454   4.402   6.044   2.467  2.1135  1.7108  0.5168
 7753TIP3    H247455   4.532   5.986   2.417  0.1620 -1.5269 -1.0859
 7754TIP3   OH247456   1.776   3.950   2.444  0.4943 -0.1774  0.2374
 7754TIP3    H147457   1.722   3.970   2.367  0.5296 -1.1641 -0.0584
 7754TIP3    H247458   1.802   4.035   2.478 -0.2040  0.2865 -0.3647
 7755TIP3   OH247459   6.048   1.057   2.194  0.4663 -0.0368 -0.0482
 7755TIP3    H147460   6.049   0.997   2.119  0.0658 -0.1801  0.0551
 7755TIP3    H247461   6.047   1.144   2.155  1.2996 -0.0928 -0.1981
 7756TIP3   OH247462   5.387   0.980   2.672 -0.1253 -0.1785  0.1716
 7756TIP3    H147463   5.436   1.001   2.593 -0.5532 -0.1748 -0.0935
 7756TIP3    H247464   5.451   0.988   2.743  0.2624 -0.2018 -0.1743
 7757TIP3   OH247465   1.946   2.917   1.688  0.2081  0.6059 -0.4574
 7757TIP3    H147466   1.965   2.886   1.776  1.8945 -0.6166 -1.1992
 7757TIP3    H247467   1.997   2.860   1.630 -0.5009  1.6443 -2.2076
 7758TIP3   OH247468   3.022   5.458   2.831 -0.0996 -0.3367  0.0754
 7758TIP3    H147469   3.099   5.416   2.869 -0.2163 -0.0312  0.6609
 7758TIP3    H247470   3.013   5.541   2.879  0.1493  0.3821 -1.0901
 7759TIP3   OH247471   5.741   1.514   1.973  0.6107  0.5566 -0.1631
 7759TIP3    H147472   5.810   1.447   1.974  0.4939  0.4436  0.2698
 7759TIP3    H247473   5.684   1.492   2.046 -0.4726  0.0598 -1.1305
 7760TIP3   OH247474   3.937   5.096   2.458  0.1899 -0.2333 -0.2709
 7760TIP3    H147475   3.998   5.045   2.511  1.0054 -1.1791 -2.0313
 7760TIP3    H247476   3.850   5.074   2.494  0.7584  0.0032  1.3212
 7761TIP3   OH247477   0.637   4.653   1.400  0.2174 -0.1222 -0.5340
 7761TIP3    H147478   0.719   4.603   1.401  0.6143  0.5297  0.4705
 7761TIP3    H247479   0.569   4.586   1.398  0.7605 -0.6864 -0.5356
 7762TIP3   OH247480   6.095   3.694   2.326 -0.1809 -0.0031  0.2023
 7762TIP3    H147481   6.180   3.650   2.325 -0.6499 -0.9185  0.1184
 7762TIP3    H247482   6.044   3.646   2.390 -0.6182  0.5945  0.3092
 7763TIP3   OH247483   3.230   5.171   3.077 -0.0927  0.7840 -0.4041
 7763TIP3    H147484   3.179   5.178   2.997 -0.2963  3.0671 -0.1360
 7763TIP3    H247485   3.305   5.117   3.054 -1.8344 -1.4628 -1.1844
 7764TIP3   OH247486   4.242   7.296   0.905 -0.1767 -0.1763 -0.3262
 7764TIP3    H147487   4.272   7.208   0.926  1.4162  0.8450  2.0610
 7764TIP3    H247488   4.175   7.315   0.971 -0.8349  0.2853 -1.0989
 7765TIP3   OH247489   5.611   1.163   1.364  0.0624  0.3375 -0.2530
 7765TIP3    H147490   5.622   1.139   1.456 -0.2480 -0.9719 -0.5317
 7765TIP3    H247491   5.697   1.196   1.337 -0.1362  1.7655  0.7766
 7766TIP3   OH247492   2.977   2.950   2.817  0.6006  0.3215  0.4985
 7766TIP3    H147493   3.068   2.954   2.787  1.2814 -0.1298  2.3324
 7766TIP3    H247494   2.934   2.891   2.755  2.0799 -1.1178  0.7476
 7767TIP3   OH247495   2.337   6.124   2.600  0.0238  0.2641 -1.4250
 7767TIP3    H147496   2.334   6.049   2.541  0.8158  0.4447 -1.6989
 7767TIP3    H247497   2.430   6.144   2.609 -0.0128 -0.1439  0.3595
 7768TIP3   OH247498   4.598   5.206   2.055  0.3649  0.0867 -0.1410
 7768TIP3    H147499   4.519   5.152   2.047  0.2974  0.1525  0.0597
 7768TIP3    H247500   4.568   5.294   2.032  0.3194  0.1580  0.1783
 7769TIP3   OH247501   4.147   7.164   3.221  0.2889  0.1382 -0.9110
 7769TIP3    H147502   4.183   7.176   3.310 -1.0675 -1.6096 -0.0743
 7769TIP3    H247503   4.224   7.171   3.164  1.5325 -0.6938  0.5756
 7770TIP3   OH247504   1.598   1.053   1.997  0.0191 -0.6578 -0.1359
 7770TIP3    H147505   1.605   0.972   1.948 -0.7766 -0.3145 -0.8425
 7770TIP3    H247506   1.628   1.121   1.936  1.2840 -0.4767  0.6564
 7771TIP3   OH247507   6.634   3.204   1.083  0.8360  0.5711 -0.0277
 7771TIP3    H147508   6.605   3.243   1.165  0.5298 -0.3944  0.3294
 7771TIP3    H247509   6.659   3.279   1.028  0.2722  1.2588  0.6467
 7772TIP3   OH247510   1.892   0.548   0.379  0.3061  0.2818 -0.1757
 7772TIP3    H147511   1.970   0.500   0.408 -0.1317 -0.2177  0.2041
 7772TIP3    H247512   1.894   0.542   0.284 -0.4619 -1.7085 -0.1173
 7773TIP3   OH247513   0.835   0.843   2.151 -0.5870  0.2108 -0.1166
 7773TIP3    H147514   0.929   0.826   2.153 -0.5629  0.3016 -0.4125
 7773TIP3    H247515   0.820   0.883   2.066 -1.1131 -1.1601 -0.6982
 7774TIP3   OH247516   0.551   4.452   2.672  0.2994 -0.0149 -0.6592
 7774TIP3    H147517   0.489   4.383   2.651 -0.9488  0.1606  2.0153
 7774TIP3    H247518   0.634   4.423   2.634 -0.8635 -1.4376 -2.2352
 7775TIP3   OH247519   5.940   6.094   0.717 -0.5248 -0.2624 -0.1197
 7775TIP3    H147520   5.982   6.153   0.779 -1.2668 -0.5372  0.6676
 7775TIP3    H247521   5.876   6.149   0.672 -1.0908 -0.4063  0.4878
 7776TIP3   OH247522   4.703   1.688   2.267  0.0750 -0.0871 -0.2247
 7776TIP3    H147523   4.607   1.693   2.272 -0.4343 -3.2693 -3.0539
 7776TIP3    H247524   4.723   1.710   2.176  2.0254  0.2696  0.2549
 7777TIP3   OH247525   5.650   4.885   0.918  0.3386  0.2388 -0.1879
 7777TIP3    H147526   5.616   4.870   0.830 -2.6228 -1.3039  1.0530
 7777TIP3    H247527   5.683   4.799   0.946  2.9325  1.0980 -0.3340
 7778TIP3   OH247528   2.296   2.401   2.293 -0.1301  0.0910  0.2255
 7778TIP3    H147529   2.348   2.481   2.283 -1.5556  1.4572  2.6381
 7778TIP3    H247530   2.356   2.337   2.330  1.2459 -0.3289 -2.4758
 7779TIP3   OH247531   4.491   4.339   2.464 -0.3501  0.1297  0.4102
 7779TIP3    H147532   4.547   4.302   2.533 -0.0400  0.3703  0.2849
 7779TIP3    H247533   4.514   4.431   2.460 -0.5431  0.1690  0.1477
 7780TIP3   OH247534   5.672   2.384   2.762 -0.7254 -0.5961  0.0986
 7780TIP3    H147535   5.744   2.418   2.814  0.1515 -1.4678 -0.5098
 7780TIP3    H247536   5.630   2.461   2.724 -1.2252  0.0300  1.8681
 7781TIP3   OH247537   6.515   2.057   1.567  0.2271 -0.3917 -0.0425
 7781TIP3    H147538   6.432   2.012   1.585  0.8050 -1.5109 -0.1324
 7781TIP3    H247539   6.569   1.991   1.524  0.3554  1.0112 -2.1521
 7782TIP3   OH247540   2.830   0.015   1.938 -0.5869  0.1662  0.2597
 7782TIP3    H147541   2.829   0.003   2.033 -1.2336  0.5418  0.3017
 7782TIP3    H247542   2.760  -0.043   1.906 -0.1528 -0.2112 -0.0213
 7783TIP3   OH247543   3.572   5.559   1.787  0.4833 -0.0043 -0.0361
 7783TIP3    H147544   3.594   5.520   1.872 -1.7499 -0.0029  0.6320
 7783TIP3    H247545   3.526   5.490   1.740  1.3603  0.1235 -1.1202
 7784TIP3   OH247546   6.517   6.431   2.541 -0.1109  0.0487 -0.2311
 7784TIP3    H147547   6.587   6.396   2.595  0.6595  2.6110  0.5763
 7784TIP3    H247548   6.437   6.409   2.589  0.3477 -0.4035  0.3455
 7785TIP3   OH247549   3.790   2.468   3.993  0.0880  0.2312  0.0294
 7785TIP3    H147550   3.752   2.380   3.987 -0.8077  0.6442 -0.5689
 7785TIP3    H247551   3.717   2.523   4.020  0.0972  1.1397 -1.6901
 7786TIP3   OH247552   5.179   1.583   1.665  0.3435 -0.0258  0.0069
 7786TIP3    H147553   5.221   1.646   1.606 -0.6694  1.3004  0.6385
 7786TIP3    H247554   5.176   1.629   1.750 -0.0269 -1.1015  0.5922
 7787TIP3   OH247555   3.286   1.096   1.685  0.5116  0.3371  0.0919
 7787TIP3    H147556   3.218   1.134   1.630  1.8449  0.1874 -1.7421
 7787TIP3    H247557   3.286   1.150   1.764 -0.7300  1.2417 -0.4927
 7788TIP3   OH247558   3.980   0.062   0.638 -0.2477 -0.2516  0.1608
 7788TIP3    H147559   3.907   0.010   0.605 -0.2857 -1.5733  2.1349
 7788TIP3    H247560   3.940   0.119   0.704  0.0066  1.4289 -1.0967
 7789TIP3   OH247561   1.278   6.471   2.223  0.2143 -0.0233  0.0233
 7789TIP3    H147562   1.313   6.490   2.136 -1.3541  1.1884 -0.3933
 7789TIP3    H247563   1.193   6.514   2.225  0.8317  1.3352  2.7240
 7790TIP3   OH247564   4.079   1.702   3.094 -0.0014  0.2659 -0.3579
 7790TIP3    H147565   4.162   1.659   3.110 -0.5323 -0.9952 -0.8943
 7790TIP3    H247566   4.014   1.647   3.137 -0.4406  2.1326  1.5522
 7791TIP3   OH247567   4.778   2.164   1.711 -0.1833  0.4231  0.1988
 7791TIP3    H147568   4.697   2.147   1.662 -1.1522 -0.8068  2.0844
 7791TIP3    H247569   4.818   2.078   1.723  0.9965  0.9251 -0.0198
 7792TIP3   OH247570   3.310   7.207   1.798 -0.0014 -0.1414  0.2551
 7792TIP3    H147571   3.405   7.206   1.785 -0.1339 -0.1315 -0.8119
 7792TIP3    H247572   3.285   7.115   1.801 -0.0094 -0.1444  0.1032
 7793TIP3   OH247573   2.824   2.435   3.482  0.5943 -0.1742  0.2576
 7793TIP3    H147574   2.854   2.473   3.564 -1.7845  0.0056  1.1310
 7793TIP3    H247575   2.836   2.504   3.417  1.2597  0.1540  0.7237
 7794TIP3   OH247576   1.281   4.792   2.414 -0.1049  0.2116 -0.1261
 7794TIP3    H147577   1.372   4.819   2.425 -0.6639  2.2499 -0.0264
 7794TIP3    H247578   1.285   4.712   2.363  1.7339  0.4427 -0.3895
 7795TIP3   OH247579   5.756   4.867   1.800  0.0001 -0.0705 -0.1708
 7795TIP3    H147580   5.705   4.871   1.881 -1.0544 -0.6667 -0.7972
 7795TIP3    H247581   5.718   4.795   1.750  2.2185 -1.3649 -0.1534
 7796TIP3   OH247582   2.751   4.448   1.575  0.9050 -0.2900  0.2367
 7796TIP3    H147583   2.709   4.387   1.636  1.7180 -0.8146  0.2798
 7796TIP3    H247584   2.764   4.397   1.496 -0.8155  0.5925 -0.6794
 7797TIP3   OH247585   5.416   6.035   1.145  0.1522  0.0582  0.0484
 7797TIP3    H147586   5.441   6.047   1.053 -0.9000 -0.1785 -0.2757
 7797TIP3    H247587   5.371   5.951   1.147 -2.0461  1.1803  0.3069
 7798TIP3   OH247588   6.658   0.400   0.961 -0.5839  0.2616 -0.0459
 7798TIP3    H147589   6.743   0.404   1.006 -1.4603  2.1044  1.5531
 7798TIP3    H247590   6.624   0.489   0.966 -2.4994 -0.3797 -0.9282
 7799TIP3   OH247591   0.806   5.161   1.566  0.1345 -0.2067  0.0381
 7799TIP3    H147592   0.794   5.116   1.483  0.1180 -0.5339  0.2164
 7799TIP3    H247593   0.720   5.199   1.585 -0.3235 -1.5170  0.7108
 7800TIP3   OH247594   4.399   0.568   0.765  0.5722 -0.1052  0.0310
 7800TIP3    H147595   4.437   0.548   0.850  0.5064  0.6380  0.2424
 7800TIP3    H247596   4.327   0.506   0.755  0.8826 -0.5114  0.3026
 7801TIP3   OH247597   1.595   0.796   0.676  0.1945 -0.4134  0.0243
 7801TIP3    H147598   1.678   0.750   0.661  0.5629  0.0729  0.5273
 7801TIP3    H247599   1.544   0.781   0.596  1.0512 -0.1173 -0.5867
 7802TIP3   OH247600   2.397   0.291   3.580  0.0812 -1.1045 -0.0513
 7802TIP3    H147601   2.406   0.197   3.564  3.5828 -0.8545 -0.3381
 7802TIP3    H247602   2.385   0.329   3.493 -0.0839 -1.2099 -0.0734
 7803TIP3   OH247603   0.797   6.447   3.322  0.2984  0.3927 -0.0235
 7803TIP3    H147604   0.893   6.445   3.324  0.2985  0.6227  1.0774
 7803TIP3    H247605   0.771   6.379   3.384 -0.2932 -1.0911 -1.8127
 7804TIP3   OH247606   5.426   5.264   1.408  0.4456 -0.1801 -0.2930
 7804TIP3    H147607   5.402   5.173   1.421  1.1741 -0.3405 -0.0158
 7804TIP3    H247608   5.345   5.313   1.423  0.0586 -0.7741 -0.4093
 7805TIP3   OH247609   2.487   4.995   1.631 -0.2014 -0.0730  0.0966
 7805TIP3    H147610   2.566   5.046   1.653  1.1016 -0.3710 -3.2534
 7805TIP3    H247611   2.429   5.058   1.588 -1.6768  0.0410  2.1539
 7806TIP3   OH247612   5.469   5.543   2.499 -0.3817  0.3372  0.1745
 7806TIP3    H147613   5.440   5.509   2.583  0.2419 -3.4631 -0.9569
 7806TIP3    H247614   5.392   5.534   2.442  0.1917 -0.4625 -0.4848
 7807TIP3   OH247615   2.972   1.006   1.616  0.1277  0.2335  0.0010
 7807TIP3    H147616   2.971   1.027   1.522  3.0117  0.1949 -0.1440
 7807TIP3    H247617   3.035   0.934   1.622 -1.8978 -1.4979  1.7164
 7808TIP3   OH247618   3.813   7.511   2.544  0.4015 -0.0863 -0.3546
 7808TIP3    H147619   3.847   7.600   2.545  1.3753 -0.3221 -3.3798
 7808TIP3    H247620   3.869   7.464   2.483 -0.5418 -2.6294  0.5801
 7809TIP3   OH247621   5.590   0.643   2.076  0.1121 -0.3148  0.0029
 7809TIP3    H147622   5.655   0.653   2.007 -0.2532  0.5344 -0.2400
 7809TIP3    H247623   5.600   0.722   2.129 -1.2109  0.1926 -0.4716
 7810TIP3   OH247624   0.770   0.361   2.954 -0.1473  0.4737 -0.0398
 7810TIP3    H147625   0.754   0.269   2.933 -0.4360  0.5842 -0.3119
 7810TIP3    H247626   0.684   0.395   2.978 -0.1933  0.8782 -0.7611
 7811TIP3   OH247627   0.304   1.324   1.339 -0.0651  0.0943  0.3746
 7811TIP3    H147628   0.360   1.374   1.399  2.4531 -0.4795 -1.3128
 7811TIP3    H247629   0.339   1.235   1.343 -0.8678 -0.2846 -0.7512
 7812TIP3   OH247630   2.897   2.506   0.896  0.2270  0.1495 -0.1715
 7812TIP3    H147631   2.849   2.430   0.865  1.3757 -0.9441  0.6370
 7812TIP3    H247632   2.952   2.532   0.821 -1.5578  1.4412 -1.1170
 7813TIP3   OH247633   2.050   5.199   0.504  0.0638  0.4332 -0.3340
 7813TIP3    H147634   2.070   5.279   0.455 -1.1488 -0.0545 -1.6884
 7813TIP3    H247635   1.956   5.189   0.495  0.2137 -1.1927 -0.2362
 7814TIP3   OH247636   0.744   7.399   1.641  0.5185  0.5949 -0.2933
 7814TIP3    H147637   0.663   7.397   1.591  0.5279  3.2085 -0.5665
 7814TIP3    H247638   0.788   7.479   1.613  2.3055  0.2299  1.2151
 7815TIP3   OH247639   4.181   5.813   2.484  0.2526  0.3396  0.0610
 7815TIP3    H147640   4.192   5.810   2.389 -3.2710 -0.2749 -0.4553
 7815TIP3    H247641   4.166   5.905   2.503  1.5191  0.5482  0.1692
 7816TIP3   OH247642   0.887   6.840   2.318  0.2601  0.3277  0.0882
 7816TIP3    H147643   0.963   6.795   2.355 -0.3167 -0.7727 -0.0383
 7816TIP3    H247644   0.921   6.884   2.240  0.8246  0.0462  0.1711
 7817TIP3   OH247645   4.695   4.016   2.386 -0.0148 -0.3158 -0.5793
 7817TIP3    H147646   4.695   3.991   2.478 -1.6409  0.4516 -0.3305
 7817TIP3    H247647   4.640   3.950   2.343 -1.7302  0.9400 -0.4448
 7818TIP3   OH247648   0.693   7.489   1.352  0.5043  0.2851  0.7932
 7818TIP3    H147649   0.607   7.530   1.366  0.1551 -0.4267  0.8039
 7818TIP3    H247650   0.701   7.483   1.257 -1.1510 -2.9935  0.7264
 7819TIP3   OH247651   3.996   5.792   1.966  0.5358 -0.5463 -0.4084
 7819TIP3    H147652   3.907   5.759   1.982  0.8892 -1.2892  0.0513
 7819TIP3    H247653   4.034   5.802   2.054  0.6267  0.5835 -0.5575
 7820TIP3   OH247654   7.460   2.166   1.475  0.0059 -0.4206  0.1984
 7820TIP3    H147655   7.482   2.241   1.420 -0.2427 -0.5382 -0.0684
 7820TIP3    H247656   7.375   2.136   1.441  0.4231 -1.2409 -0.1583
 7821TIP3   OH247657   2.126   3.204   2.531  0.7235  0.0623  0.2992
 7821TIP3    H147658   2.185   3.277   2.550  1.1698 -0.0610 -0.5678
 7821TIP3    H247659   2.055   3.243   2.481  0.4492  0.0706  0.6861
 7822TIP3   OH247660   1.316   4.283   3.021 -0.5307  0.4126  0.0265
 7822TIP3    H147661   1.294   4.227   2.947  0.3254 -0.2399  0.2562
 7822TIP3    H247662   1.238   4.279   3.077 -0.7654  0.0573 -0.3161
 7823TIP3   OH247663   1.349   5.617   1.949  0.2973 -0.2827 -0.0615
 7823TIP3    H147664   1.370   5.589   1.860 -0.0799 -0.6957 -0.0238
 7823TIP3    H247665   1.268   5.570   1.970 -1.5849  2.4135 -0.7753
 7824TIP3   OH247666   0.661   7.344   2.302  0.4126 -0.0873  0.0203
 7824TIP3    H147667   0.738   7.398   2.284  1.5855 -1.4876  0.6337
 7824TIP3    H247668   0.672   7.316   2.393 -0.3723 -1.0348 -0.1581
 7825TIP3   OH247669   4.639   6.461   1.924  0.1562 -0.6680  0.2620
 7825TIP3    H147670   4.648   6.518   2.000 -0.3778  0.0616 -0.2044
 7825TIP3    H247671   4.615   6.520   1.852  0.2746 -1.3890 -0.3888
 7826TIP3   OH247672   3.229   2.976   2.699  0.2379 -0.0859  0.4893
 7826TIP3    H147673   3.183   2.968   2.616 -0.2522 -0.1948  0.7621
 7826TIP3    H247674   3.242   2.886   2.728 -1.2870 -0.0532  1.4223
 7827TIP3   OH247675   0.925   2.678   2.043  0.3766 -0.1202  0.2701
 7827TIP3    H147676   0.899   2.637   1.960  0.2562  0.6881 -0.1070
 7827TIP3    H247677   1.004   2.632   2.069  0.1100 -0.7452 -0.0176
 7828TIP3   OH247678   1.161   4.485   2.027 -0.3513 -0.7413  0.4507
 7828TIP3    H147679   1.112   4.536   1.963 -0.5190  0.2538  1.3440
 7828TIP3    H247680   1.253   4.509   2.013 -0.1924 -1.8311 -0.5389
 7829TIP3   OH247681   3.390   5.355   1.737 -0.0256  0.2201  0.1280
 7829TIP3    H147682   3.361   5.397   1.818 -0.8983  0.0525 -0.0859
 7829TIP3    H247683   3.329   5.283   1.724  1.1473 -0.8055  0.2118
 7830TIP3   OH247684   4.591   0.767   2.006  0.0438  0.6835 -0.3631
 7830TIP3    H147685   4.615   0.728   2.090  0.6568 -3.1544 -2.1043
 7830TIP3    H247686   4.674   0.783   1.962 -0.3119 -0.0861 -1.3427
 7831TIP3   OH247687   6.093   5.230   1.701 -0.0854 -0.1117 -0.0851
 7831TIP3    H147688   6.067   5.170   1.771  1.5384 -0.1351  0.5235
 7831TIP3    H247689   6.188   5.226   1.699 -0.0604  0.6178 -1.6736
 7832TIP3   OH247690   6.000   0.473   1.989 -0.4008  0.3614 -0.2717
 7832TIP3    H147691   6.094   0.471   2.004 -0.4017  0.5551 -0.2287
 7832TIP3    H247692   5.965   0.522   2.063 -0.5249  0.3727 -0.3366
 7833TIP3   OH247693   3.939   5.247   3.315 -0.6288 -1.0890 -0.1997
 7833TIP3    H147694   3.987   5.216   3.238 -0.3457  0.5202 -0.7053
 7833TIP3    H247695   3.860   5.287   3.279 -0.3413 -0.0313  0.2934
 7834TIP3   OH247696   1.447   1.986   0.746 -0.0093 -0.0784  0.0622
 7834TIP3    H147697   1.411   2.027   0.825  1.4757 -0.0207  0.7364
 7834TIP3    H247698   1.496   1.910   0.778  0.1122 -0.4055 -0.8638
 7835TIP3   OH247699   5.077   4.547   2.009 -0.1667 -0.4735 -0.1065
 7835TIP3    H147700   5.020   4.485   2.056 -1.3247  0.8798  0.3591
 7835TIP3    H247701   5.125   4.593   2.078  0.0385 -0.2640 -0.3883
 7836TIP3   OH247702   1.227   5.030   2.686  0.5407 -0.2868 -0.0343
 7836TIP3    H147703   1.319   5.006   2.686  0.3303 -1.1641 -1.1549
 7836TIP3    H247704   1.184   4.963   2.633 -0.6099  0.5722 -0.2373
 7837TIP3   OH247705   1.477   6.724   3.486 -0.0128  0.2906  0.1494
 7837TIP3    H147706   1.400   6.779   3.476 -0.3552 -0.2958 -0.4697
 7837TIP3    H247707   1.443   6.635   3.496  0.5476  0.1271  0.7361
 7838TIP3   OH247708   1.884   2.093   3.047 -0.4813 -0.3677  0.6390
 7838TIP3    H147709   1.800   2.089   3.002 -0.2360  1.7039 -0.1229
 7838TIP3    H247710   1.946   2.119   2.979  0.6658 -1.1541  1.3435
 7839TIP3   OH247711   4.829   1.820   0.773  0.0125  0.6411 -0.1779
 7839TIP3    H147712   4.752   1.875   0.759  0.1684  0.9418  0.1554
 7839TIP3    H247713   4.850   1.830   0.865 -0.1943 -0.2941 -0.0126
 7840TIP3   OH247714   5.183   5.527   1.265  0.3292  0.0122 -0.7174
 7840TIP3    H147715   5.095   5.556   1.240 -0.5976 -2.2973 -0.3515
 7840TIP3    H247716   5.229   5.518   1.181 -0.5762 -1.0817 -1.1209
 7841TIP3   OH247717   3.065   1.101   2.162 -0.0145 -0.1553  0.4381
 7841TIP3    H147718   3.071   1.023   2.217  0.4312  1.3502  2.6233
 7841TIP3    H247719   2.976   1.098   2.125  0.0792 -1.7866  0.2629
 7842TIP3   OH247720   1.466   3.124   1.220  0.0695  0.1874  0.2740
 7842TIP3    H147721   1.551   3.082   1.226  0.0108  0.1803  1.1798
 7842TIP3    H247722   1.447   3.153   1.309 -1.1255 -0.3018  0.1951
 7843TIP3   OH247723   0.704   7.052   3.035  0.2830  0.2710  0.2557
 7843TIP3    H147724   0.722   7.004   2.954 -1.4629 -0.9881  0.5532
 7843TIP3    H247725   0.668   7.136   3.006  0.1032  0.0102 -0.2766
 7844TIP3   OH247726   0.371   4.053   1.684  0.3322  0.3062  0.6623
 7844TIP3    H147727   0.309   3.981   1.690  1.7323 -1.3081 -2.3183
 7844TIP3    H247728   0.457   4.011   1.676  1.7090  2.4224  2.8034
 7845TIP3   OH247729   3.855   1.677   1.693 -0.0150  0.9376  0.1290
 7845TIP3    H147730   3.782   1.705   1.638  0.2241  2.0541  0.3585
 7845TIP3    H247731   3.814   1.630   1.766 -0.5173  1.7623  0.3820
 7846TIP3   OH247732   6.242   3.351   1.314 -0.2789 -0.0153  0.0964
 7846TIP3    H147733   6.258   3.433   1.268 -2.7775  0.3183 -0.3438
 7846TIP3    H247734   6.158   3.364   1.357  0.1657 -1.7088  1.5803
 7847TIP3   OH247735   0.822   6.871   4.023  0.5700  0.3645 -0.5125
 7847TIP3    H147736   0.831   6.808   3.952 -0.2441 -0.3620  0.0002
 7847TIP3    H247737   0.749   6.927   3.997 -0.9025 -0.9886  0.4798
 7848TIP3   OH247738   0.856   4.288   2.283 -0.1331  0.0059  0.1631
 7848TIP3    H147739   0.849   4.237   2.203 -0.3125  0.8292 -0.3600
 7848TIP3    H247740   0.831   4.377   2.257 -1.2514  0.0717  1.3663
 7849TIP3   OH247741   0.521   7.225   1.157 -0.0916  0.2547 -0.5454
 7849TIP3    H147742   0.426   7.221   1.151 -0.1057  0.3902 -0.4262
 7849TIP3    H247743   0.540   7.208   1.249  0.0426 -0.5036 -0.7075
 7850TIP3   OH247744   2.293   2.000   1.502 -0.4981  0.2099 -0.3010
 7850TIP3    H147745   2.352   1.970   1.570 -1.5182  0.8085  0.8757
 7850TIP3    H247746   2.242   1.923   1.478 -1.1851  0.3368  0.7144
 7851TIP3   OH247747   1.175   2.007   0.501 -0.0785  0.2345  0.1018
 7851TIP3    H147748   1.179   2.023   0.406  1.3660 -0.2785  0.0461
 7851TIP3    H247749   1.253   1.955   0.519  0.6682  1.8671  1.8675
 7852TIP3   OH247750   1.207   1.043   2.496 -0.5931 -0.0047 -0.0216
 7852TIP3    H147751   1.299   1.015   2.493 -0.4492  0.4381  0.1807
 7852TIP3    H247752   1.187   1.070   2.407 -0.3016  0.5979  0.0893
 7853TIP3   OH247753   2.774   1.518   0.744 -0.0222  0.1240  0.7858
 7853TIP3    H147754   2.721   1.543   0.820 -2.1446 -0.0089 -0.5606
 7853TIP3    H247755   2.711   1.479   0.683  1.5708  0.3600 -1.1031
 7854TIP3   OH247756   2.362   6.086   1.650 -0.1403  0.1389 -0.3095
 7854TIP3    H147757   2.346   6.052   1.562  0.2861 -0.7426 -0.0579
 7854TIP3    H247758   2.404   6.171   1.636 -0.4455  0.1867 -0.9516
 7855TIP3   OH247759   0.802   2.871   1.368  0.1936 -0.3449  0.3837
 7855TIP3    H147760   0.832   2.816   1.441  0.9312 -0.2085  0.1949
 7855TIP3    H247761   0.878   2.924   1.346 -0.0743 -0.2702 -0.3806
 7856TIP3   OH247762   1.649   4.691   2.035 -0.0787 -0.1917 -0.1405
 7856TIP3    H147763   1.732   4.644   2.022 -0.0122  0.4573 -2.4535
 7856TIP3    H247764   1.646   4.755   1.964 -1.2820  1.7347  1.5214
 7857TIP3   OH247765   1.765   3.812   2.148 -0.3750 -0.2858 -0.4142
 7857TIP3    H147766   1.807   3.839   2.066 -0.1448 -1.1646 -0.5977
 7857TIP3    H247767   1.731   3.894   2.186 -2.5707 -0.1143 -2.5247
 7858TIP3   OH247768   4.435   7.025   2.144 -0.2752  0.4262  0.4434
 7858TIP3    H147769   4.480   6.957   2.193 -1.7327 -0.6664  0.3450
 7858TIP3    H247770   4.505   7.082   2.113  0.8333  0.0676  2.1366
 7859TIP3   OH247771   7.457   1.439   2.109  0.2611 -0.3134  0.7090
 7859TIP3    H147772   7.518   1.391   2.052  0.5708 -0.0611  0.8228
 7859TIP3    H247773   7.371   1.425   2.069  0.3936 -0.6712  0.5434
 7860TIP3   OH247774   0.225   0.497   1.110  0.1870 -0.2301 -0.9472
 7860TIP3    H147775   0.214   0.583   1.151  0.7162  0.0094 -1.2993
 7860TIP3    H247776   0.190   0.435   1.174  0.1022  0.2186 -0.5539
 7861TIP3   OH247777   3.283   6.758   1.099  1.1255 -0.3125 -0.3816
 7861TIP3    H147778   3.357   6.808   1.132  1.8798  0.0234 -2.4908
 7861TIP3    H247779   3.306   6.734   1.010 -0.7910 -1.2663 -0.6912
 7862TIP3   OH247780   0.561   7.503   1.905 -0.3504  0.4444  0.1717
 7862TIP3    H147781   0.529   7.443   1.839  1.3776 -0.9550  0.5368
 7862TIP3    H247782   0.609   7.570   1.856  0.0763 -0.0342 -0.0700
 7863TIP3   OH247783   0.918   0.982   1.592 -0.1839  0.1711  0.0399
 7863TIP3    H147784   0.897   1.074   1.608 -0.8304  0.0852 -0.2787
 7863TIP3    H247785   0.985   0.961   1.657  0.6416  1.1176 -0.4764
 7864TIP3   OH247786   6.129   3.704   0.358 -0.0996 -0.0379  0.2321
 7864TIP3    H147787   6.070   3.770   0.394  1.0842  1.8586 -1.1319
 7864TIP3    H247788   6.214   3.723   0.398 -0.2039 -2.4329  1.8081
 7865TIP3   OH247789   1.102   4.595   0.779 -0.0670  0.2946  0.0028
 7865TIP3    H147790   1.022   4.632   0.816 -0.0760 -1.0583  1.4264
 7865TIP3    H247791   1.160   4.583   0.854  0.8497 -0.2939 -0.7802
 7866TIP3   OH247792   3.054   6.330   2.705 -0.5976  0.3402  0.0661
 7866TIP3    H147793   2.965   6.361   2.723 -1.0948 -0.1487 -1.3791
 7866TIP3    H247794   3.051   6.236   2.720 -0.4085  0.2795 -0.2546
 7867TIP3   OH247795   0.045   1.056   2.475  0.6337 -0.9783 -0.2659
 7867TIP3    H147796   0.112   1.097   2.420  0.8233  0.0819  0.7125
 7867TIP3    H247797  -0.036   1.062   2.423  0.6970  0.4956 -0.2262
 7868TIP3   OH247798   2.951   6.065   2.648  0.5789  0.0710 -0.3569
 7868TIP3    H147799   2.945   6.009   2.725 -0.1289  0.6520  0.0158
 7868TIP3    H247800   2.908   6.014   2.579  0.8714 -0.2838 -0.2825
 7869TIP3   OH247801   0.442   1.904   0.670 -0.2704 -0.4099  0.0804
 7869TIP3    H147802   0.533   1.878   0.684  0.2082  0.3691 -1.3892
 7869TIP3    H247803   0.406   1.836   0.613 -0.2923 -0.1607 -0.2058
 7870TIP3   OH247804   0.214   6.388   1.531  0.3082 -0.4350 -0.2366
 7870TIP3    H147805   0.181   6.304   1.563  0.5016 -0.1211  0.8329
 7870TIP3    H247806   0.149   6.416   1.466 -1.8348  0.3528  2.0911
 7871TIP3   OH247807   4.867   5.102   2.498 -0.4922 -0.6507 -0.0696
 7871TIP3    H147808   4.823   5.160   2.435  1.2061 -0.8617 -1.5179
 7871TIP3    H247809   4.870   5.154   2.578  1.2154  1.5014 -1.3846
 7872TIP3   OH247810   6.961   4.621   1.853 -0.3940 -0.9460  0.2531
 7872TIP3    H147811   6.899   4.565   1.807 -0.3737 -1.4544  0.8302
 7872TIP3    H247812   7.044   4.607   1.809 -0.7367 -0.0060 -0.7411
 7873TIP3   OH247813   5.414   2.298   1.217  0.0393  0.1209  0.0866
 7873TIP3    H147814   5.333   2.344   1.237  1.1197  1.5910  1.4177
 7873TIP3    H247815   5.479   2.368   1.206  1.1086 -0.9985 -1.1172
 7874TIP3   OH247816   2.936   3.455   2.368  0.4128  0.5239  0.2362
 7874TIP3    H147817   2.942   3.548   2.392 -0.5131  0.5603  0.3502
 7874TIP3    H247818   2.889   3.455   2.285  0.0508  0.1380  0.4382
 7875TIP3   OH247819   1.571   6.738   1.307 -0.2483 -0.9083 -0.0637
 7875TIP3    H147820   1.477   6.735   1.290 -0.1804 -1.4252 -0.3821
 7875TIP3    H247821   1.601   6.817   1.263 -0.7316 -0.0704  1.0940
 7876TIP3   OH247822   1.843   1.996   0.987 -0.0680  0.1396  0.3136
 7876TIP3    H147823   1.907   2.003   1.058 -1.3914  2.0254  1.4225
 7876TIP3    H247824   1.890   2.031   0.911  0.8138 -0.2939  0.6326
 7877TIP3   OH247825   0.353   0.121   2.155 -0.6247  0.2500  0.2716
 7877TIP3    H147826   0.336   0.030   2.180 -0.8162 -0.5567 -2.5221
 7877TIP3    H247827   0.437   0.118   2.108 -0.6098  1.5403  0.1747
 7878TIP3   OH247828   3.549   0.339   1.444 -0.5783 -0.1609  0.3778
 7878TIP3    H147829   3.617   0.301   1.499  0.8790  0.7357 -0.7309
 7878TIP3    H247830   3.559   0.294   1.360  0.1302  1.4732 -0.4600
 7879TIP3   OH247831   3.577   1.012   2.153  0.5652 -0.4153 -0.5015
 7879TIP3    H147832   3.598   1.105   2.152  2.7945 -0.8692 -1.3256
 7879TIP3    H247833   3.492   1.006   2.109 -0.0036  1.2618  0.2773
 7880TIP3   OH247834   3.684   7.419   3.061 -0.4224  0.2167 -0.4749
 7880TIP3    H147835   3.613   7.369   3.021 -1.1065 -0.2344  1.2132
 7880TIP3    H247836   3.752   7.354   3.078 -0.1482  0.4007 -0.8507
 7881TIP3   OH247837   4.224   7.438   2.386 -0.1550  0.1337  0.0761
 7881TIP3    H147838   4.280   7.456   2.461  0.0254  0.0207 -0.0300
 7881TIP3    H247839   4.200   7.346   2.396 -0.7388  0.3194  0.3954
 7882TIP3   OH247840   3.134   2.034   2.354 -0.1308  0.0120 -0.1578
 7882TIP3    H147841   3.143   2.024   2.259  0.0219  0.0809 -0.1507
 7882TIP3    H247842   3.046   2.001   2.373 -0.9012  1.6743 -0.5672
 7883TIP3   OH247843   1.730   6.215   1.354  0.3348 -0.4505 -0.0456
 7883TIP3    H147844   1.737   6.211   1.449  1.8687 -1.9931 -0.1779
 7883TIP3    H247845   1.731   6.309   1.334  0.1568 -0.1077  1.4289
 7884TIP3   OH247846   3.578   4.508   3.571  0.2348 -0.4561 -0.0154
 7884TIP3    H147847   3.570   4.427   3.621 -0.6893  0.6962  1.8215
 7884TIP3    H247848   3.491   4.547   3.576  0.4068  0.1947 -1.7104
 7885TIP3   OH247849   4.514   0.738   3.231 -0.1755  0.2818  0.1974
 7885TIP3    H147850   4.435   0.687   3.215  0.6351 -0.3623 -2.0257
 7885TIP3    H247851   4.568   0.726   3.153  1.5593  1.7779  1.0720
 7886TIP3   OH247852   3.842   4.847   2.706 -0.2693  0.0630 -0.1927
 7886TIP3    H147853   3.882   4.833   2.792  0.9255  2.1656 -0.3261
 7886TIP3    H247854   3.764   4.899   2.724  0.5876  1.4808 -0.4184
 7887TIP3   OH247855   3.305   0.480   2.790  0.5182  0.1747  0.4132
 7887TIP3    H147856   3.331   0.537   2.718  1.2643 -2.3355 -1.4745
 7887TIP3    H247857   3.372   0.412   2.791 -1.2125 -1.6192  1.3663
 7888TIP3   OH247858   6.849   4.264   1.043 -0.2427 -0.6407 -0.0080
 7888TIP3    H147859   6.893   4.330   1.097  0.3762 -0.1108 -1.1217
 7888TIP3    H247860   6.899   4.184   1.058 -0.2033 -0.5476  0.3647
 7889TIP3   OH247861   2.296   4.104   3.266 -0.0993 -0.2893 -0.2559
 7889TIP3    H147862   2.273   4.055   3.345 -1.1534 -0.0359 -0.4029
 7889TIP3    H247863   2.379   4.065   3.238 -0.3943 -1.2904  0.2182
 7890TIP3   OH247864   6.599   0.421   3.036  0.0523 -0.1464 -0.3530
 7890TIP3    H147865   6.589   0.331   3.068 -0.9398  0.7218  2.0373
 7890TIP3    H247866   6.524   0.434   2.979  0.3668 -0.9189 -0.9548
 7891TIP3   OH247867   3.898   0.280   0.828  0.0140 -0.5170  0.1614
 7891TIP3    H147868   3.971   0.315   0.878 -1.8096 -0.3416  2.9410
 7891TIP3    H247869   3.859   0.356   0.785  0.3230 -0.3061  0.2519
 7892TIP3   OH247870   1.053   6.809   1.383 -0.4485  0.5860  0.4469
 7892TIP3    H147871   0.983   6.745   1.392 -0.5055  0.2412 -1.7672
 7892TIP3    H247872   1.040   6.871   1.455 -1.7344 -0.6459  1.3047
 7893TIP3   OH247873   1.950   3.521   1.665 -0.2162  0.4124  0.0240
 7893TIP3    H147874   1.932   3.581   1.591 -1.1705 -0.8634 -0.8276
 7893TIP3    H247875   1.875   3.461   1.665 -0.0517  0.1676  1.8387
 7894TIP3   OH247876   7.508   2.838   0.647  0.3247  0.4731 -0.2875
 7894TIP3    H147877   7.570   2.809   0.715  1.5878  0.0974 -1.5369
 7894TIP3    H247878   7.484   2.758   0.601 -0.8066  0.6763 -0.0773
 7895TIP3   OH247879   6.366   3.168   1.889  0.2440 -0.2907  0.2051
 7895TIP3    H147880   6.304   3.203   1.953 -0.4299 -1.1032  0.0071
 7895TIP3    H247881   6.329   3.085   1.861  0.6720 -0.0982 -1.0286
 7896TIP3   OH247882   4.069   2.548   1.482 -0.5491  0.0063 -0.5506
 7896TIP3    H147883   4.074   2.473   1.542 -0.6127  0.0617 -0.4746
 7896TIP3    H247884   4.015   2.517   1.409 -0.1016 -0.2015 -0.7906
 7897TIP3   OH247885   6.289   2.996   2.533  0.2203 -0.5085  0.0455
 7897TIP3    H147886   6.213   2.944   2.557 -0.9643  0.4899 -1.3916
 7897TIP3    H247887   6.332   2.946   2.463  0.1037 -0.4315 -0.0827
 7898TIP3   OH247888   3.240   1.493   2.741 -0.5528 -0.6135  0.2639
 7898TIP3    H147889   3.234   1.485   2.836 -0.1230  0.1695  0.3636
 7898TIP3    H247890   3.324   1.455   2.718 -0.1215  0.2697  0.3389
 7899TIP3   OH247891   0.435   5.602   1.934  0.3804 -0.2249  0.1549
 7899TIP3    H147892   0.414   5.592   1.841 -0.0255  0.5640  0.1562
 7899TIP3    H247893   0.531   5.608   1.937  0.7364 -3.7733  0.1429
 7900TIP3   OH247894   4.560   2.918   2.156  0.1451 -0.0128 -0.8437
 7900TIP3    H147895   4.551   2.935   2.063 -1.0492  2.3086 -0.3800
 7900TIP3    H247896   4.473   2.935   2.193  0.5551 -0.9792  0.6911
 7901TIP3   OH247897   2.657   6.477   1.926  0.4680 -0.2136  0.2121
 7901TIP3    H147898   2.698   6.559   1.900  1.5489 -0.7048  0.2953
 7901TIP3    H247899   2.639   6.487   2.020 -0.2254  0.2458  0.0404
 7902TIP3   OH247900   2.000   4.769   2.982  0.0105  0.0727  0.3263
 7902TIP3    H147901   1.911   4.803   2.995 -0.0591  0.4371 -0.9575
 7902TIP3    H247902   2.039   4.769   3.069 -1.5671 -1.0231  1.0713
 7903TIP3   OH247903   1.756   1.764   2.665  0.1633 -0.5359 -0.0809
 7903TIP3    H147904   1.835   1.711   2.655 -0.7683 -1.7979 -1.0650
 7903TIP3    H247905   1.697   1.710   2.717 -0.7962 -0.4899 -1.0766
 7904TIP3   OH247906   0.256   3.470   2.116 -0.1613 -0.4444  0.2034
 7904TIP3    H147907   0.182   3.409   2.120 -0.1472 -0.4799 -0.0631
 7904TIP3    H247908   0.334   3.414   2.115 -0.0759 -0.3853  1.6264
 7905TIP3   OH247909   4.845   3.171   0.760 -0.2974 -0.0467 -0.1160
 7905TIP3    H147910   4.919   3.149   0.816  0.1508  0.4397 -0.5124
 7905TIP3    H247911   4.791   3.092   0.760  1.6705 -1.4990 -2.1817
 7906TIP3   OH247912   1.394   6.559   2.487 -0.1821 -0.1369 -0.1252
 7906TIP3    H147913   1.351   6.500   2.425  0.3251 -0.9869  0.3175
 7906TIP3    H247914   1.369   6.525   2.573 -1.2766  1.3153  0.1695
 7907TIP3   OH247915   3.267   0.615   8.854  0.7158  0.5884  0.2811
 7907TIP3    H147916   3.224   0.684   8.804  0.3257 -0.3822 -0.7677
 7907TIP3    H247917   3.210   0.600   8.929  0.4538  0.9220  0.1515
 7908TIP3   OH247918   6.414   4.548   1.676  0.2655  0.3746  0.3095
 7908TIP3    H147919   6.406   4.630   1.724 -0.2772  0.2894  0.3729
 7908TIP3    H247920   6.499   4.512   1.703  0.6448  1.0571  0.0508
 7909TIP3   OH247921   7.108   3.817   2.011 -0.4597  0.6423  0.5787
 7909TIP3    H147922   7.152   3.855   2.087 -0.0961  0.7377  0.3242
 7909TIP3    H247923   7.024   3.785   2.045 -1.5124  3.1011  0.4856
 7910TIP3   OH247924   7.401   4.952   2.576 -0.2456 -0.3545  0.3671
 7910TIP3    H147925   7.492   4.930   2.558 -0.3512  0.5633 -1.4775
 7910TIP3    H247926   7.392   4.942   2.671  1.1842 -2.5213  0.3529
 7911TIP3   OH247927   2.103   7.184   2.765 -0.1491 -0.2620  0.3687
 7911TIP3    H147928   2.038   7.248   2.737 -0.1164  0.8341  2.6288
 7911TIP3    H247929   2.066   7.100   2.739 -1.9980  0.4051  0.7141
 7912TIP3   OH247930   1.228   6.634   0.510 -0.0827  0.1290  0.2014
 7912TIP3    H147931   1.252   6.719   0.549 -1.6651 -0.2570  2.1628
 7912TIP3    H247932   1.182   6.657   0.429  0.6356  1.0778  0.0443
 7913TIP3   OH247933   0.216   0.011   2.604 -0.6170 -0.2895 -0.1346
 7913TIP3    H147934   0.305   0.008   2.570 -0.9264  0.7329 -1.1133
 7913TIP3    H247935   0.180   0.094   2.570 -0.8048  1.1310  3.1385
 7914TIP3   OH247936   0.292   2.927   2.142 -0.2733  0.2031  0.4273
 7914TIP3    H147937   0.316   3.004   2.193  0.0957  1.3276 -1.3627
 7914TIP3    H247938   0.308   2.952   2.051 -1.3048 -1.5691 -0.2975
 7915TIP3   OH247939   3.133   4.261   2.915 -0.3163 -0.5369 -0.9722
 7915TIP3    H147940   3.159   4.347   2.949 -0.2238 -0.6741 -0.6969
 7915TIP3    H247941   3.203   4.202   2.941 -0.8759 -0.9031 -0.2490
 7916TIP3   OH247942   6.201   5.576   1.710 -0.1353 -0.3178  0.1342
 7916TIP3    H147943   6.112   5.596   1.681  0.4807  2.1279 -0.3040
 7916TIP3    H247944   6.242   5.534   1.634 -0.9598 -1.7650  0.4506
 7917TIP3   OH247945   1.148   1.133   1.019  1.1640  0.1422 -0.5738
 7917TIP3    H147946   1.094   1.112   1.095  0.0201 -1.9786 -1.8815
 7917TIP3    H247947   1.137   1.227   1.006  1.2063  0.5033  1.7104
 7918TIP3   OH247948   5.353   2.976   2.067  0.2754 -0.0068  0.2030
 7918TIP3    H147949   5.364   2.993   1.973  1.0701  0.1949  0.3223
 7918TIP3    H247950   5.284   3.037   2.094  0.2146  0.1086 -0.1991
 7919TIP3   OH247951   0.555   3.318   2.482 -0.1784 -0.0001 -0.2143
 7919TIP3    H147952   0.607   3.274   2.415  0.1357 -1.5798  1.0146
 7919TIP3    H247953   0.468   3.280   2.473 -0.0981 -0.3260  0.3516
 7920TIP3   OH247954   0.043   5.456   0.704  0.5229 -0.2092 -0.2340
 7920TIP3    H147955   0.096   5.471   0.626  0.3865 -0.1775 -0.3230
 7920TIP3    H247956   0.105   5.431   0.772  0.6015 -0.5896 -0.4466
 7921TIP3   OH247957   7.199   0.085   0.797 -0.0555 -0.3898 -0.8689
 7921TIP3    H147958   7.122   0.039   0.831 -0.0348 -0.2266 -0.5970
 7921TIP3    H247959   7.206   0.056   0.706  0.5769 -1.7505 -0.4113
 7922TIP3   OH247960   2.936   0.847   3.183 -0.5769 -0.0286  0.0462
 7922TIP3    H147961   2.850   0.874   3.151 -0.0849  0.0244 -1.3138
 7922TIP3    H247962   2.953   0.764   3.139 -0.0489 -0.1792  0.5215
 7923TIP3   OH247963   5.141   0.127   0.703  0.1000  0.2981  0.1971
 7923TIP3    H147964   5.232   0.157   0.697  0.4795 -0.9563 -1.1178
 7923TIP3    H247965   5.088   0.203   0.678  0.7998  0.9559  0.6917
 7924TIP3   OH247966   3.024   2.824   3.066  0.1741  0.5584  0.0522
 7924TIP3    H147967   2.986   2.838   2.979  0.4278  2.9705  0.2663
 7924TIP3    H247968   3.111   2.788   3.049 -0.5043 -0.8057 -0.6016
 7925TIP3   OH247969   0.957   6.150   1.302 -0.3066  0.4608 -0.3711
 7925TIP3    H147970   0.934   6.243   1.291  0.3906  0.5762 -0.8855
 7925TIP3    H247971   1.033   6.151   1.360 -1.1952  0.1119  0.8433
 7926TIP3   OH247972   7.097   3.982   2.516  0.5041  0.1610 -0.2574
 7926TIP3    H147973   7.048   3.900   2.510  1.7893 -0.6771  0.5028
 7926TIP3    H247974   7.063   4.025   2.594  0.3289  0.0207 -0.2567
 7927TIP3   OH247975   0.715   3.915   1.965  0.4254 -0.2949  0.1937
 7927TIP3    H147976   0.702   3.889   1.874  0.2789 -0.8606  0.3679
 7927TIP3    H247977   0.671   3.846   2.015  2.1175 -1.0131  0.7485
 7928TIP3   OH247978   2.745   2.525   1.943 -0.0466  0.5732  0.3030
 7928TIP3    H147979   2.745   2.576   1.863  2.1328  1.3593  0.7299
 7928TIP3    H247980   2.822   2.557   1.992 -0.8163 -0.4555  2.3138
 7929TIP3   OH247981   3.726   6.469   1.566 -0.3938  0.0829 -0.4557
 7929TIP3    H147982   3.740   6.564   1.562 -0.5507  0.1828  0.9317
 7929TIP3    H247983   3.637   6.456   1.533 -0.2602  0.3708 -0.9501
 7930TIP3   OH247984   2.296   6.422   2.345  0.0757 -0.0360 -0.4217
 7930TIP3    H147985   2.324   6.505   2.384  0.6787 -0.1392 -0.6343
 7930TIP3    H247986   2.203   6.436   2.325 -0.1892  0.1086  0.8067
 7931TIP3   OH247987   5.005   4.148   1.694 -0.1630  0.2863  0.1444
 7931TIP3    H147988   5.043   4.119   1.610 -1.2450 -0.2205 -0.1870
 7931TIP3    H247989   4.931   4.203   1.669  0.2481  1.1592  0.7887
 7932TIP3   OH247990   3.926   3.593   1.342 -0.4429  0.0659 -0.1895
 7932TIP3    H147991   3.840   3.554   1.357 -0.6761  0.6955  0.1757
 7932TIP3    H247992   3.906   3.676   1.298 -0.0096  0.1285 -0.2690
 7933TIP3   OH247993   0.443   0.010   0.594  0.1922 -0.2920 -0.5026
 7933TIP3    H147994   0.518   0.031   0.650 -0.9574 -1.7157  1.7188
 7933TIP3    H247995   0.373   0.068   0.625 -0.4169 -0.9991 -0.5269
 7934TIP3   OH247996   3.084   5.989   1.568 -0.5065 -0.0666  0.6099
 7934TIP3    H147997   3.162   6.036   1.541 -0.3595 -1.3850 -1.4323
 7934TIP3    H247998   3.014   6.024   1.514 -0.5750 -1.4581 -0.2619
 7935TIP3   OH247999   0.777   5.007   0.737 -0.1390 -0.0534 -0.7588
 7935TIP3    H148000   0.739   4.923   0.713 -0.5129 -0.2090  0.2919
 7935TIP3    H248001   0.817   4.991   0.823 -1.0583  1.0507 -0.0921
 7936TIP3   OH248002   1.725   6.485   1.242  0.7258 -0.1918  0.1221
 7936TIP3    H148003   1.794   6.519   1.299 -0.8813  1.6891  1.0723
 7936TIP3    H248004   1.652   6.546   1.254 -1.1426 -2.1254 -0.7848
 7937TIP3   OH248005   7.350   2.444   0.698 -0.4508  0.0626  0.1340
 7937TIP3    H148006   7.424   2.474   0.751 -0.5250 -0.1255  0.3474
 7937TIP3    H248007   7.278   2.501   0.724  0.1823  1.8910 -1.8362
 7938TIP3   OH248008   2.510   1.430   1.841 -0.2605  0.1388 -0.5012
 7938TIP3    H148009   2.421   1.439   1.877 -0.3285 -0.8580 -0.3997
 7938TIP3    H248010   2.497   1.387   1.757  0.1880 -0.9321 -0.0477
 7939TIP3   OH248011   3.407   6.940   1.740  0.1326 -0.0491 -0.0218
 7939TIP3    H148012   3.394   6.851   1.708  0.3868 -0.4492  0.9358
 7939TIP3    H248013   3.459   6.983   1.672  2.2347 -1.3975  0.6224
 7940TIP3   OH248014   5.421   2.651   2.326 -0.2662  0.0158 -0.2624
 7940TIP3    H148015   5.478   2.576   2.345  0.0415  0.4658  0.6297
 7940TIP3    H248016   5.399   2.686   2.412 -2.3286 -0.4529 -0.5568
 7941TIP3   OH248017   1.265   0.402   0.388 -0.0081 -0.2907 -0.2588
 7941TIP3    H148018   1.252   0.325   0.332  0.4371  0.4603 -1.4479
 7941TIP3    H248019   1.186   0.454   0.374 -1.0577 -1.2177  1.7809
 7942TIP3   OH248020   2.154   1.158   2.816  0.0214 -0.1173  0.4730
 7942TIP3    H148021   2.180   1.245   2.787 -0.3751  0.3195  1.4090
 7942TIP3    H248022   2.227   1.102   2.791 -0.0319  0.3391 -0.8016
 7943TIP3   OH248023   2.108   0.335   0.410  0.5991 -0.3120 -0.4271
 7943TIP3    H148024   2.130   0.414   0.460 -0.5795 -0.7585  0.8668
 7943TIP3    H248025   2.190   0.286   0.405  0.9041  0.0936  0.4571
 7944TIP3   OH248026   2.668   3.142   1.513  0.3898 -0.1160  0.2636
 7944TIP3    H148027   2.634   3.150   1.424 -1.7714 -0.3767  1.0126
 7944TIP3    H248028   2.673   3.232   1.545 -0.8887 -0.1372  0.5738
 7945TIP3   OH248029   4.723   5.815   1.641  0.1564  0.2197  0.2750
 7945TIP3    H148030   4.738   5.789   1.731  1.9027 -0.6408 -0.2203
 7945TIP3    H248031   4.650   5.760   1.612  0.5279 -0.5464  0.7445
 7946TIP3   OH248032   1.541   1.274   1.439  0.2077 -0.3936 -0.3347
 7946TIP3    H148033   1.501   1.312   1.517  2.3933  0.6153  0.3591
 7946TIP3    H248034   1.575   1.348   1.390  2.4741 -1.2485 -0.1496
 7947TIP3   OH248035   5.874   6.304   2.929  0.3890  0.3193  0.9350
 7947TIP3    H148036   5.810   6.265   2.988 -0.6007 -0.2237 -0.4500
 7947TIP3    H248037   5.954   6.309   2.981 -0.3329 -0.5064  2.1809
 7948TIP3   OH248038   0.164   3.171   1.772 -0.0082  0.3412  0.2500
 7948TIP3    H148039   0.168   3.258   1.811  1.4198  0.1266  0.6704
 7948TIP3    H248040   0.217   3.179   1.692 -0.7209  0.1129 -0.2486
 7949TIP3   OH248041   4.994   4.333   1.312  0.3867 -0.1885  0.1180
 7949TIP3    H148042   5.009   4.417   1.354  0.2142 -1.0748  2.0233
 7949TIP3    H248043   4.949   4.280   1.378 -0.2114 -1.5399 -1.2945
 7950TIP3   OH248044   4.663   1.664   1.292 -0.0985  0.2725 -0.3146
 7950TIP3    H148045   4.741   1.721   1.292  0.0667  0.0628  0.5036
 7950TIP3    H248046   4.643   1.652   1.385 -1.5552  0.9244 -0.5246
 7951TIP3   OH248047   2.300   4.383   0.462 -0.2614 -0.4553 -0.2139
 7951TIP3    H148048   2.256   4.464   0.436  1.1341  0.4231  0.0790
 7951TIP3    H248049   2.285   4.376   0.556 -3.7155 -2.6620 -0.7329
 7952TIP3   OH248050   4.486   6.301   0.678 -0.3250  0.3806  0.3787
 7952TIP3    H148051   4.491   6.358   0.601 -2.2010 -0.8876 -0.7745
 7952TIP3    H248052   4.492   6.212   0.643  3.7563 -0.3062  2.2397
 7953TIP3   OH248053   1.574   4.511   0.731  0.0780  0.0840 -0.2132
 7953TIP3    H148054   1.502   4.543   0.786  0.1524 -0.8012  0.4217
 7953TIP3    H248055   1.627   4.588   0.713  1.4855  0.0789  3.1111
 7954TIP3   OH248056   2.224   6.363   1.827 -0.1460 -0.1539 -0.3819
 7954TIP3    H148057   2.241   6.293   1.889 -0.1077  1.3343  1.3713
 7954TIP3    H248058   2.309   6.380   1.786 -0.4619 -2.1295 -2.0221
 7955TIP3   OH248059   7.292   1.755   1.930  0.3039  0.2161  0.3168
 7955TIP3    H148060   7.253   1.836   1.965  0.5389 -0.0980  1.3298
 7955TIP3    H248061   7.386   1.770   1.934  0.4423 -0.8615  2.4672
 7956TIP3   OH248062   0.103   0.266   2.564 -0.3282  0.4201 -0.1646
 7956TIP3    H148063   0.147   0.275   2.479  0.5020  1.4795  0.3587
 7956TIP3    H248064   0.027   0.324   2.557  0.4172  1.4922  0.2193
 7957TIP3   OH248065   0.443   0.039   1.494 -0.1926 -0.0853 -0.0641
 7957TIP3    H148066   0.414  -0.016   1.566 -2.2493 -0.9250 -1.4320
 7957TIP3    H248067   0.391   0.119   1.502 -0.3844 -0.1566 -0.5781
 7958TIP3   OH248068   4.095   6.426   1.686 -0.1764 -0.2532 -0.2696
 7958TIP3    H148069   4.099   6.447   1.592 -2.7576  0.4118 -0.3058
 7958TIP3    H248070   4.118   6.508   1.730 -0.1715 -0.2265 -0.3218
 7959TIP3   OH248071   5.660   1.794   2.956 -0.3539  0.3818  0.2159
 7959TIP3    H148072   5.605   1.840   2.894 -2.5253 -2.1324  0.0823
 7959TIP3    H248073   5.603   1.779   3.032  0.8961 -0.2947  1.0572
 7960TIP3   OH248074   3.840   3.771   2.347  0.4091 -0.3252 -0.4494
 7960TIP3    H148075   3.894   3.754   2.424  1.4999 -2.0636 -1.5065
 7960TIP3    H248076   3.750   3.762   2.379  0.6783  2.1900  1.2556
 7961TIP3   OH248077   2.758   2.842   2.227 -0.3713  0.7140  0.2381
 7961TIP3    H148078   2.675   2.856   2.181  0.1475  0.5673 -0.7558
 7961TIP3    H248079   2.737   2.861   2.319 -1.5669  0.4110  0.0456
 7962TIP3   OH248080   6.973   0.812   0.397 -0.3079  0.3671  0.0144
 7962TIP3    H148081   6.949   0.856   0.315 -1.1221 -0.2625 -0.1135
 7962TIP3    H248082   6.912   0.738   0.402 -0.3087  0.4271  1.2215
 7963TIP3   OH248083   6.108   5.947   2.226  0.5816 -0.4511  0.0075
 7963TIP3    H148084   6.163   5.997   2.286 -0.6905  0.1975  0.6661
 7963TIP3    H248085   6.150   5.958   2.140  0.4663  1.5708  0.1705
 7964TIP3   OH248086   1.422   7.474   0.430  0.1635 -0.5872  0.0160
 7964TIP3    H148087   1.510   7.465   0.394  0.4597 -0.9616  0.8080
 7964TIP3    H248088   1.428   7.550   0.489 -0.3704  0.1537 -0.8613
 7965TIP3   OH248089   3.413   0.175   1.756 -0.1187 -0.0924  0.1462
 7965TIP3    H148090   3.465   0.099   1.781 -1.4354 -0.5350  1.7438
 7965TIP3    H248091   3.335   0.171   1.812 -1.3493  1.1572 -1.3508
 7966TIP3   OH248092   3.687   5.027   0.731 -0.0392 -0.0596  0.6391
 7966TIP3    H148093   3.727   5.051   0.648 -1.8793  0.9907  0.0114
 7966TIP3    H248094   3.700   4.932   0.737  0.2945 -0.1220 -0.7535
 7967TIP3   OH248095   5.242   4.376   1.563  0.7614  0.0366  0.1221
 7967TIP3    H148096   5.217   4.290   1.528 -1.5964  0.0943  1.4942
 7967TIP3    H248097   5.201   4.439   1.503  1.1895  0.2065  0.0007
 7968TIP3   OH248098   3.069   5.014   1.289  0.0385  0.2118 -0.1319
 7968TIP3    H148099   3.161   5.034   1.274  0.3960 -0.1175  1.4344
 7968TIP3    H248100   3.042   5.076   1.356 -0.1498 -1.3425  1.2919
 7969TIP3   OH248101   3.299   5.469   1.978  0.0423  0.5305  0.0064
 7969TIP3    H148102   3.257   5.417   2.046 -0.0053 -0.2927 -0.6435
 7969TIP3    H248103   3.358   5.528   2.025  0.4141 -0.3959  0.7166
 7970TIP3   OH248104   5.634   5.047   2.473 -0.6629  0.4385 -0.3360
 7970TIP3    H148105   5.639   5.141   2.461 -0.4867  0.4027 -0.5496
 7970TIP3    H248106   5.684   5.030   2.553 -2.2238  0.7277  0.7320
 7971TIP3   OH248107   5.313   3.529   0.435 -0.2521 -0.9135 -0.4476
 7971TIP3    H148108   5.223   3.554   0.417  0.0251  1.2196  0.8074
 7971TIP3    H248109   5.331   3.565   0.522  1.3782 -2.5250 -0.0505
 7972TIP3   OH248110   1.367   0.539   0.611 -0.6722 -0.2377 -0.2452
 7972TIP3    H148111   1.342   0.502   0.526  2.4791 -0.5019 -1.1707
 7972TIP3    H248112   1.347   0.632   0.603 -0.7426 -0.3164 -1.1389
 7973TIP3   OH248113   6.104   3.340   1.774  0.3620 -0.4054  0.3478
 7973TIP3    H148114   6.057   3.338   1.691  0.9524 -0.9803  0.0153
 7973TIP3    H248115   6.170   3.409   1.762 -0.2984  0.3149  0.7685
 7974TIP3   OH248116   1.738   5.842   2.091  0.2235  0.1331 -0.3061
 7974TIP3    H148117   1.762   5.755   2.121 -0.6671 -0.2753 -0.7358
 7974TIP3    H248118   1.796   5.859   2.017  0.8609  0.1928  0.2000
 7975TIP3   OH248119   4.408   3.463   1.054  0.3134  0.3534  0.3395
 7975TIP3    H148120   4.336   3.471   1.117 -1.9819 -0.6172 -1.9882
 7975TIP3    H248121   4.458   3.387   1.083  0.6124  1.1911  2.1394
 7976TIP3   OH248122   3.291   2.589   1.402 -0.1745 -0.2207  0.3305
 7976TIP3    H148123   3.287   2.611   1.495  1.2890 -0.8628  0.5746
 7976TIP3    H248124   3.251   2.663   1.357 -1.1652 -0.0342  1.4837
 7977TIP3   OH248125   3.424   0.050   2.197  0.1131  0.6274  0.4195
 7977TIP3    H148126   3.346  -0.003   2.181 -1.1491  2.5911 -0.2543
 7977TIP3    H248127   3.440   0.096   2.114  1.8938  0.4295  0.6013
 7978TIP3   OH248128   7.136   2.589   0.768  0.2794  0.0161 -0.0302
 7978TIP3    H148129   7.104   2.679   0.760 -0.2950  0.0459  1.9606
 7978TIP3    H248130   7.066   2.543   0.815  0.2650 -1.6756 -1.5819
 7979TIP3   OH248131   3.055   3.923   3.460 -0.0277 -0.4902  0.5684
 7979TIP3    H148132   3.109   3.895   3.385  0.7863  0.0143  0.9574
 7979TIP3    H248133   3.115   3.920   3.535 -0.6667 -0.3481  1.0880
 7980TIP3   OH248134   7.308   0.244   3.244  0.1981  0.2539  0.7326
 7980TIP3    H148135   7.314   0.315   3.180 -0.3159  0.2872  0.7202
 7980TIP3    H248136   7.218   0.211   3.236  0.1227  0.2695  1.4420
 7981TIP3   OH248137   7.084   5.612   1.036  0.3804  0.5093 -0.4872
 7981TIP3    H148138   7.024   5.570   0.974  0.0665  1.9155 -1.1761
 7981TIP3    H248139   7.030   5.678   1.080  0.8118  0.0953  0.7045
 7982TIP3   OH248140   1.178   7.199   0.959 -0.3239 -0.0551 -0.0799
 7982TIP3    H148141   1.206   7.257   0.888  0.5697 -0.5007 -0.1021
 7982TIP3    H248142   1.085   7.184   0.942 -0.1075 -0.2084 -1.1995
 7983TIP3   OH248143   2.638   0.012   2.692 -0.1335 -0.1673 -0.0211
 7983TIP3    H148144   2.568   0.060   2.648 -0.9618 -1.3917 -0.0939
 7983TIP3    H248145   2.607   0.001   2.782 -0.8791 -2.1827 -0.4621
 7984TIP3   OH248146   1.333   0.943   1.766 -0.0167 -0.3754 -0.2447
 7984TIP3    H148147   1.290   1.010   1.713 -1.3801 -0.7440  0.3475
 7984TIP3    H248148   1.324   0.975   1.856  0.6963 -0.6130 -0.0868
 7985TIP3   OH248149   5.640   2.799   1.085 -0.2786  0.3736 -0.1647
 7985TIP3    H148150   5.675   2.717   1.051 -0.4536  0.9452 -1.8559
 7985TIP3    H248151   5.562   2.815   1.032  0.0178  1.8582 -0.2046
 7986TIP3   OH248152   6.006   7.368   1.347 -0.2585 -0.0230  0.1990
 7986TIP3    H148153   6.097   7.366   1.318  0.0948  3.0739  0.8024
 7986TIP3    H248154   5.994   7.285   1.393  2.1523 -0.6446 -0.1894
 7987TIP3   OH248155   6.529   5.696   1.836 -0.0716 -0.1973 -0.6123
 7987TIP3    H148156   6.484   5.683   1.920  1.8269 -1.2645  0.3005
 7987TIP3    H248157   6.493   5.628   1.779 -0.6345 -0.1205 -0.3563
 7988TIP3   OH248158   2.206   5.720   1.770  0.0685  0.0931  0.3930
 7988TIP3    H148159   2.173   5.796   1.723 -2.8478 -0.9266  0.5802
 7988TIP3    H248160   2.300   5.735   1.778 -0.3427  3.4459  0.1020
 7989TIP3   OH248161   2.254   0.665   1.697 -0.7167 -0.2063 -0.1163
 7989TIP3    H148162   2.281   0.602   1.631 -0.1508 -0.9300  0.7777
 7989TIP3    H248163   2.301   0.638   1.776 -0.7547  1.1144  0.3783
 7990TIP3   OH248164   0.738   4.852   1.608 -0.0169  0.0254 -0.1059
 7990TIP3    H148165   0.713   4.776   1.555 -0.1033 -0.4804  0.6372
 7990TIP3    H248166   0.753   4.922   1.544 -0.8851 -0.3446 -0.7413
 7991TIP3   OH248167   1.001   1.045   1.221 -0.1339 -0.7330  0.1996
 7991TIP3    H148168   0.959   1.112   1.274  1.6305  1.1232 -0.6379
 7991TIP3    H248169   0.942   0.969   1.227 -1.9315  0.6895  1.5778
 7992TIP3   OH248170   4.809   0.828   0.983  0.0530 -0.2986  0.2169
 7992TIP3    H148171   4.797   0.864   0.896  0.5393 -1.9383 -0.5701
 7992TIP3    H248172   4.721   0.816   1.017 -0.1262  1.0639  0.2989
 7993TIP3   OH248173   6.367   3.355   2.553 -0.2134  0.2623 -0.1514
 7993TIP3    H148174   6.356   3.300   2.631 -0.1025 -0.2214 -0.4734
 7993TIP3    H248175   6.347   3.296   2.479 -1.5876  1.0426 -0.4385
 7994TIP3   OH248176   2.690   6.006   1.871 -0.0506 -0.5721  0.0584
 7994TIP3    H148177   2.751   6.032   1.801  1.1397 -1.2929  0.7915
 7994TIP3    H248178   2.629   6.080   1.878  0.5676  0.0538 -0.8931
 7995TIP3   OH248179   0.192   1.680   0.766  0.2458 -0.2226 -0.0953
 7995TIP3    H148180   0.285   1.666   0.748  0.4704 -0.0186  0.8453
 7995TIP3    H248181   0.184   1.671   0.861 -0.7340 -0.4416 -0.1863
 7996TIP3   OH248182   3.169   1.773   0.672  0.1100  0.3732  0.1928
 7996TIP3    H148183   3.078   1.748   0.656 -0.6192  2.2114  1.2573
 7996TIP3    H248184   3.204   1.701   0.726  0.1137 -1.6120 -2.2660
 7997TIP3   OH248185   1.698   6.563   2.369 -0.1563  0.1542 -0.2754
 7997TIP3    H148186   1.603   6.558   2.379 -0.1467 -0.7091 -0.4792
 7997TIP3    H248187   1.718   6.656   2.370 -0.9857  0.3368 -0.0390
 7998TIP3   OH248188   3.499   1.680   2.815  0.3742  0.3242 -0.4770
 7998TIP3    H148189   3.562   1.752   2.807 -0.0966  0.5785 -2.5357
 7998TIP3    H248190   3.428   1.715   2.868  0.6937  0.9826 -0.4793
 7999TIP3   OH248191   1.492   2.100   1.329  0.3635  0.4849 -0.0576
 7999TIP3    H148192   1.536   2.120   1.247  0.4546 -1.2025 -0.4592
 7999TIP3    H248193   1.410   2.058   1.303  0.0477  0.5966  0.7131
 8000TIP3   OH248194   5.013   3.388   0.629 -0.0653  0.1530  0.3279
 8000TIP3    H148195   4.973   3.303   0.610  2.2094 -0.5290 -1.9705
 8000TIP3    H248196   5.062   3.374   0.710  1.2447 -1.1396 -0.6395
 8001TIP3   OH248197   6.289   2.702   1.464  0.2103 -0.2791 -1.3132
 8001TIP3    H148198   6.367   2.686   1.517 -0.2579  0.3350 -0.4163
 8001TIP3    H248199   6.252   2.615   1.450 -1.3349 -0.3089  2.0066
 8002TIP3   OH248200   0.113   6.853   2.872 -0.0771 -0.1864  0.0009
 8002TIP3    H148201   0.089   6.932   2.824 -1.7096  0.0485  1.1273
 8002TIP3    H248202   0.206   6.863   2.890  0.1021  0.7033 -1.2488
 8003TIP3   OH248203   7.049   3.200   2.236 -0.1613  0.2152 -0.0914
 8003TIP3    H148204   6.969   3.193   2.184  0.3402  1.3184 -1.0871
 8003TIP3    H248205   7.024   3.251   2.313 -0.6715 -0.4888  0.2144
 8004TIP3   OH248206   3.122   7.162   1.520  0.0419 -0.1718  0.1097
 8004TIP3    H148207   3.102   7.236   1.578  0.7878 -0.5283  0.8412
 8004TIP3    H248208   3.104   7.084   1.573 -2.0971 -0.5913 -1.0921
 8005TIP3   OH248209   3.117   7.081   2.046  0.0242 -0.5801  0.1771
 8005TIP3    H148210   3.114   7.129   1.963  1.8669 -1.1152 -0.2479
 8005TIP3    H248211   3.051   7.012   2.036 -0.6092  0.0871 -0.3533
 8006TIP3   OH248212   6.795   6.197   0.766  0.3555  0.4138 -0.2401
 8006TIP3    H148213   6.831   6.156   0.845  0.3729  0.5599 -0.1698
 8006TIP3    H248214   6.767   6.284   0.796  2.9124  1.6026 -0.9405
 8007TIP3   OH248215   2.724   5.117   1.733 -0.4432  0.1766  0.5517
 8007TIP3    H148216   2.789   5.048   1.719  0.8431  1.2278  1.0866
 8007TIP3    H248217   2.776   5.193   1.761 -1.7520  1.5051 -0.4557
 8008TIP3   OH248218   1.108   0.051   2.589  0.1051  0.0830  0.1359
 8008TIP3    H148219   1.103   0.147   2.590  0.3513  0.1005 -0.0668
 8008TIP3    H248220   1.020   0.022   2.614 -0.4700  0.3519 -1.4799
 8009TIP3   OH248221   5.148   4.793   0.729  0.0403 -0.3367  0.6407
 8009TIP3    H148222   5.242   4.795   0.714  0.3056  0.1268  2.2133
 8009TIP3    H248223   5.119   4.883   0.717 -0.5027 -0.7342 -1.3849
 8010TIP3   OH248224   4.100   4.238   0.590  0.3575  0.4077  0.1201
 8010TIP3    H148225   4.168   4.196   0.538 -0.3999 -0.5412 -0.1286
 8010TIP3    H248226   4.133   4.326   0.606  0.1470  1.1451 -2.9145
 8011TIP3   OH248227   2.496   7.161   2.370 -0.1939 -0.5042 -0.6702
 8011TIP3    H148228   2.496   7.196   2.281 -0.6362  0.0579 -0.4529
 8011TIP3    H248229   2.433   7.215   2.417 -1.0750 -1.7345 -0.3838
 8012TIP3   OH248230   6.215   6.046   1.618 -0.2126  0.0430  0.0399
 8012TIP3    H148231   6.224   6.016   1.527  0.5308  1.2404 -0.3033
 8012TIP3    H248232   6.155   5.982   1.658  1.4329 -1.9841 -0.5620
 8013TIP3   OH248233   5.343   7.365   1.189  0.1958 -0.2987  0.0846
 8013TIP3    H148234   5.423   7.415   1.205 -0.3552  0.6207  0.0723
 8013TIP3    H248235   5.284   7.391   1.261 -0.2676 -0.5646 -0.1938
 8014TIP3   OH248236   0.639   0.207   1.572  0.4797 -0.3514  0.1522
 8014TIP3    H148237   0.587   0.165   1.503  0.0327 -0.8595  0.7856
 8014TIP3    H248238   0.687   0.277   1.527 -2.5170  1.7570 -0.1000
 8015TIP3   OH248239   6.697   2.292   2.449 -0.4697 -0.3535 -0.3432
 8015TIP3    H148240   6.612   2.251   2.467  0.7398 -2.2016  1.4842
 8015TIP3    H248241   6.760   2.243   2.502  1.8852  0.5168 -2.1624
 8016TIP3   OH248242   1.749   4.003   1.291  0.0635  0.3030  0.1249
 8016TIP3    H148243   1.737   4.077   1.231 -1.5204 -0.9289 -1.1897
 8016TIP3    H248244   1.786   3.934   1.236  1.3359  0.0213  1.2900
 8017TIP3   OH248245   5.595   2.343   1.704 -0.2881  0.1681  0.2204
 8017TIP3    H148246   5.661   2.412   1.701  0.5254 -0.6405 -0.8167
 8017TIP3    H248247   5.582   2.317   1.613 -1.3994 -0.2995  0.4903
 8018TIP3   OH248248   1.389   2.350   0.616 -0.2087 -0.1686 -0.1862
 8018TIP3    H148249   1.391   2.263   0.575  0.1378  0.6228 -1.9115
 8018TIP3    H248250   1.297   2.372   0.623 -0.2931 -0.6130  0.1236
 8019TIP3   OH248251   5.807   1.225   2.029 -0.5172 -0.2580  0.0873
 8019TIP3    H148252   5.797   1.130   2.041  2.3953 -1.1816 -3.1054
 8019TIP3    H248253   5.892   1.245   2.069  0.6991  0.0805 -2.4141
 8020TIP3   OH248254   1.837   5.934   2.770  0.6035  0.5802 -0.0375
 8020TIP3    H148255   1.754   5.886   2.761  0.0235  1.6243 -0.5181
 8020TIP3    H248256   1.846   5.948   2.864  1.0225 -0.8452  0.1547
 8021TIP3   OH248257   5.145   3.533   2.383 -0.3187 -0.4660 -0.2200
 8021TIP3    H148258   5.173   3.620   2.409  2.3322 -1.5291  0.7674
 8021TIP3    H248259   5.052   3.543   2.363 -0.2312  2.4312  0.4235
 8022TIP3   OH248260   0.334   1.352   2.484 -0.2187 -0.1162 -0.0258
 8022TIP3    H148261   0.280   1.292   2.433 -0.7842 -1.6846  2.2728
 8022TIP3    H248262   0.274   1.423   2.509 -0.7966 -0.9166  0.9616
 8023TIP3   OH248263   1.084   4.966   1.949  0.0250 -0.6847 -0.1643
 8023TIP3    H148264   1.010   5.026   1.942  1.3027  0.7971 -1.2894
 8023TIP3    H248265   1.047   4.880   1.927 -1.3991 -0.0292 -0.4232
 8024TIP3   OH248266   0.992   0.808   1.855 -0.5910 -0.5864  0.5202
 8024TIP3    H148267   0.898   0.814   1.866 -0.5747 -0.6407  0.6839
 8024TIP3    H248268   1.005   0.743   1.786 -0.7504  0.7687 -0.8619
 8025TIP3   OH248269   2.039   6.912   0.772  0.1796 -0.3428  0.5626
 8025TIP3    H148270   1.981   6.933   0.845 -1.0869 -1.2667 -0.1473
 8025TIP3    H248271   1.984   6.918   0.695  1.0640 -1.1109 -0.1518
 8026TIP3   OH248272   5.085   2.107   1.014  0.9158 -0.1625  0.3823
 8026TIP3    H148273   5.045   2.174   0.958 -1.1329 -1.4858  0.1509
 8026TIP3    H248274   5.034   2.110   1.095  0.9305 -1.2540  0.4514
 8027TIP3   OH248275   2.335   7.375   0.539  0.0992 -0.3348  0.3327
 8027TIP3    H148276   2.251   7.405   0.573 -0.2311 -2.8656  1.9779
 8027TIP3    H248277   2.316   7.294   0.493  1.5756 -0.6703  0.2618
 8028TIP3   OH248278   3.635   0.769   1.103 -0.3031  0.1239 -0.9307
 8028TIP3    H148279   3.675   0.740   1.021 -0.3560 -2.2325 -0.1952
 8028TIP3    H248280   3.622   0.688   1.152  0.5464  1.5404  1.7867
 8029TIP3   OH248281   2.694   6.344   0.981 -0.4912 -0.8590  0.0228
 8029TIP3    H148282   2.786   6.316   0.985 -0.0547  0.5976  0.7394
 8029TIP3    H248283   2.691   6.425   1.031 -2.2789 -1.1149  0.3987
 8030TIP3   OH248284   1.052   6.166   2.139  0.5106 -0.2273 -0.2868
 8030TIP3    H148285   1.014   6.086   2.102 -0.2978  0.1522 -0.3055
 8030TIP3    H248286   1.143   6.165   2.109  1.2970 -2.4555  1.8584
 8031TIP3   OH248287   1.209   4.852   0.932  0.3402  0.1405  1.0175
 8031TIP3    H148288   1.230   4.773   0.883 -1.1890  1.2292 -1.6206
 8031TIP3    H248289   1.288   4.871   0.983  1.7352 -1.5822 -0.3888
 8032TIP3   OH248290   5.481   6.828   0.416 -0.4571  0.0944  0.4961
 8032TIP3    H148291   5.428   6.789   0.346  0.8797  1.5893 -1.4506
 8032TIP3    H248292   5.425   6.824   0.493 -2.1046 -1.3909 -0.6839
 8033TIP3   OH248293   5.678   6.050   2.340 -0.4239  0.1090  0.1302
 8033TIP3    H148294   5.740   6.022   2.273  0.4150 -0.1643  0.9957
 8033TIP3    H248295   5.600   5.997   2.324  0.3306 -1.1117  0.3198
 8034TIP3   OH248296   0.056   2.982   2.340  0.3719 -0.6268 -0.3480
 8034TIP3    H148297   0.044   2.918   2.410 -1.3223 -2.2437 -1.9981
 8034TIP3    H248298   0.123   3.042   2.373  0.1907 -1.7512  2.3065
 8035TIP3   OH248299   1.317   5.027   1.839  0.2423 -0.4276 -0.5669
 8035TIP3    H148300   1.251   5.000   1.903 -1.5110  1.8323 -1.2433
 8035TIP3    H248301   1.352   4.945   1.803 -0.2651 -1.7105  1.7158
 8036TIP3   OH248302   5.930   4.641   0.713 -0.0301  0.1824 -0.2210
 8036TIP3    H148303   5.953   4.720   0.762  1.9809 -0.1812 -0.5155
 8036TIP3    H248304   5.921   4.573   0.779  1.3906 -0.0220 -0.2196
 8037TIP3   OH248305   5.267   0.754   2.336 -0.1899 -0.1350  0.3422
 8037TIP3    H148306   5.241   0.796   2.254  2.0141  1.7737  0.5195
 8037TIP3    H248307   5.238   0.663   2.327 -1.4675  0.4273 -1.8404
 8038TIP3   OH248308   6.861   7.377   2.011 -0.0041 -0.0349 -0.5701
 8038TIP3    H148309   6.798   7.372   1.939 -0.0712  1.0593 -0.6005
 8038TIP3    H248310   6.883   7.286   2.030 -0.0113 -0.3497 -1.9497
 8039TIP3   OH248311   0.832   3.266   2.785 -0.2114  0.0879  0.1688
 8039TIP3    H148312   0.753   3.232   2.827  0.2636 -1.0423  0.1706
 8039TIP3    H248313   0.805   3.351   2.750 -1.2444  0.0182  0.7422
 8040TIP3   OH248314   3.215   0.271   2.565  0.5036  0.1847  0.0172
 8040TIP3    H148315   3.206   0.342   2.502 -1.1849  0.5048  0.5511
 8040TIP3    H248316   3.172   0.303   2.645  2.7620 -0.1225  1.4534
 8041TIP3   OH248317   4.171   1.952   2.757  0.1483 -0.1955  0.0208
 8041TIP3    H148318   4.090   1.912   2.790 -1.6054  1.4367 -1.9838
 8041TIP3    H248319   4.220   1.974   2.836 -2.4825  0.8970  1.5060
 8042TIP3   OH248320   5.725   6.237   0.635  0.0626 -0.4142 -0.1831
 8042TIP3    H148321   5.650   6.248   0.576 -0.7337 -1.2876  0.6529
 8042TIP3    H248322   5.758   6.326   0.648 -1.1913  0.0469 -0.0890
 8043TIP3   OH248323   4.156   5.072   0.484  0.0436  0.2072  0.4067
 8043TIP3    H148324   4.222   5.009   0.455  0.9018  0.9746  0.6861
 8043TIP3    H248325   4.152   5.137   0.414 -1.5680 -0.6308 -0.3688
 8044TIP3   OH248326   5.643   3.088   0.495  0.0189 -0.4817  0.3234
 8044TIP3    H148327   5.602   3.160   0.447  2.4899 -0.0192 -1.2798
 8044TIP3    H248328   5.663   3.125   0.581 -0.2191  0.2070  0.0874
 8045TIP3   OH248329   5.315   5.389   0.564  0.0667 -0.1828 -0.0107
 8045TIP3    H148330   5.224   5.363   0.554  0.0035 -0.8140  1.7785
 8045TIP3    H248331   5.317   5.436   0.648  1.0757  1.4072 -0.8643
 8046TIP3   OH248332   0.254   2.877   0.821 -0.0500  0.3365 -0.3971
 8046TIP3    H148333   0.278   2.900   0.731  0.6897  3.8006  0.5071
 8046TIP3    H248334   0.337   2.849   0.861  0.3599  1.9292 -0.0430
 8047TIP3   OH248335   0.077   6.918   2.167 -0.3876  0.2683  0.0903
 8047TIP3    H148336   0.023   6.852   2.123 -0.0993  1.3302 -1.9888
 8047TIP3    H248337   0.054   6.910   2.260  0.7466 -3.7685  0.2192
 8048TIP3   OH248338   6.638   6.865   2.451  0.1647  0.0156  0.1032
 8048TIP3    H148339   6.688   6.851   2.370 -0.4323 -1.4038 -0.0575
 8048TIP3    H248340   6.650   6.957   2.471 -1.0315  0.8423 -2.5242
 8049TIP3   OH248341   3.425   2.514   0.653  0.1207 -0.1681 -0.2067
 8049TIP3    H148342   3.374   2.581   0.607  0.8318  1.3505  1.0863
 8049TIP3    H248343   3.516   2.542   0.640  0.4768 -1.3318 -0.2591
 8050TIP3   OH248344   2.726   4.910   1.440 -0.4443  0.4928  0.2272
 8050TIP3    H148345   2.778   4.918   1.520 -1.3342 -1.1663  1.0208
 8050TIP3    H248346   2.680   4.827   1.450 -0.7608  0.3592 -1.9154
 8051TIP3   OH248347   6.928   4.024   1.821 -0.1477  0.1303  0.2600
 8051TIP3    H148348   6.900   4.009   1.911 -0.9601 -0.7748 -0.1208
 8051TIP3    H248349   6.880   3.959   1.770  0.3623  0.5728 -0.8200
 8052TIP3   OH248350   0.790   0.415   3.267 -0.1925 -0.4144 -0.1899
 8052TIP3    H148351   0.817   0.328   3.240 -1.8828 -0.8448 -0.5934
 8052TIP3    H248352   0.726   0.442   3.202 -0.7293  0.5573  0.7026
 8053TIP3   OH248353   5.104   6.119   1.278  0.2718 -0.3835 -0.2980
 8053TIP3    H148354   5.146   6.087   1.358 -0.4844 -0.9640 -0.1204
 8053TIP3    H248355   5.167   6.102   1.209  0.4735 -0.9276  0.0122
 8054TIP3   OH248356   1.855   3.148   1.422  0.4046  0.5024 -0.0668
 8054TIP3    H148357   1.939   3.122   1.385  0.2601  0.9913 -0.7458
 8054TIP3    H248358   1.878   3.193   1.504  0.9051  1.8451 -0.9166
 8055TIP3   OH248359   4.724   2.068   1.114  0.2997 -0.4995 -0.1336
 8055TIP3    H148360   4.795   2.089   1.174  0.1668 -1.9381  0.5581
 8055TIP3    H248361   4.733   2.132   1.043  1.2898  0.3550  0.7301
 8056TIP3   OH248362   5.827   6.389   2.385 -0.0014 -0.5561 -0.8221
 8056TIP3    H148363   5.878   6.468   2.402 -0.0085 -1.0728  2.0838
 8056TIP3    H248364   5.751   6.395   2.443  0.2777 -2.8896 -0.0821
 8057TIP3   OH248365   6.938   2.203   1.467 -0.6033 -0.5845 -0.3205
 8057TIP3    H148366   6.958   2.240   1.381 -0.1114 -0.4049 -0.1332
 8057TIP3    H248367   6.867   2.258   1.500 -0.9177 -0.7644 -0.6795
 8058TIP3   OH248368   2.275   4.189   2.343  0.2570 -0.0956 -0.3197
 8058TIP3    H148369   2.238   4.101   2.342  0.6165 -0.2675  0.4976
 8058TIP3    H248370   2.248   4.226   2.428  3.0504 -0.7448  0.9713
 8059TIP3   OH248371   2.681   5.014   0.936  0.0901  0.1724  0.3406
 8059TIP3    H148372   2.727   5.004   0.852  0.0912  0.0092  0.3616
 8059TIP3    H248373   2.742   4.978   1.001 -1.0429 -2.3246  0.1174
 8060TIP3   OH248374   1.257   7.263   0.484  0.2575  0.3916  0.3321
 8060TIP3    H148375   1.254   7.212   0.403 -1.0283  0.4359  0.3321
 8060TIP3    H248376   1.312   7.338   0.462  0.3747  0.1159 -0.3420
 8061TIP3   OH248377   2.061   3.153   2.036 -0.0919  0.4398  0.1822
 8061TIP3    H148378   2.119   3.128   2.108  0.7389 -0.2070 -0.6726
 8061TIP3    H248379   2.116   3.208   1.979 -0.5420  0.4359 -0.2608
 8062TIP3   OH248380   3.776   4.877   3.314 -0.3742  0.1384  0.3735
 8062TIP3    H148381   3.694   4.921   3.338  0.0737  0.9528  0.4664
 8062TIP3    H248382   3.844   4.927   3.360  0.4585  1.3123 -1.9785
 8063TIP3   OH248383   2.342   3.276   2.287 -0.0237 -0.3261 -0.4733
 8063TIP3    H148384   2.304   3.295   2.372  1.9156 -0.0155  0.3777
 8063TIP3    H248385   2.316   3.349   2.232  0.8276  0.8239  0.5951
 8064TIP3   OH248386   4.071   7.013   1.080  0.3866  0.0425 -0.1098
 8064TIP3    H148387   4.162   7.038   1.096 -0.2113  1.7297  0.9052
 8064TIP3    H248388   4.032   7.091   1.039 -0.5795 -0.7120 -0.6749
 8065TIP3   OH248389   3.141   5.072   0.610 -0.1533 -0.5483 -0.2251
 8065TIP3    H148390   3.128   4.993   0.663  0.8721 -0.3474  0.3624
 8065TIP3    H248391   3.236   5.083   0.608 -0.3143  2.3934  2.3241
 8066TIP3   OH248392   5.411   1.283   0.411 -0.4116  0.0224  0.0710
 8066TIP3    H148393   5.425   1.378   0.413 -1.3747  0.1675  1.9129
 8066TIP3    H248394   5.324   1.272   0.375 -0.7477 -0.0722  0.8851
 8067TIP3   OH248395   4.957   6.240   0.932 -0.1191  0.3675  0.2536
 8067TIP3    H148396   4.894   6.229   1.004 -1.2112  0.9383 -0.5889
 8067TIP3    H248397   4.904   6.271   0.858  0.7416 -1.5459 -1.2390
 8068TIP3   OH248398   1.166   7.397   1.551  0.2379  0.7212  0.2854
 8068TIP3    H148399   1.078   7.414   1.516 -0.5347  0.1959  1.8522
 8068TIP3    H248400   1.225   7.423   1.480 -1.2023 -0.2193 -1.3455
 8069TIP3   OH248401   0.362   4.179   2.702 -0.2838  0.0630 -0.2861
 8069TIP3    H148402   0.341   4.101   2.650 -0.7710  0.2620 -0.3936
 8069TIP3    H248403   0.449   4.161   2.738  0.4394  0.2582 -1.8389
 8070TIP3   OH248404   0.277   2.323   1.402 -0.6283 -0.1923  0.3297
 8070TIP3    H148405   0.201   2.327   1.343 -1.0783  0.0212  0.9117
 8070TIP3    H248406   0.253   2.257   1.466 -0.7032  0.5041  1.0333
 8071TIP3   OH248407   2.251   1.580   1.060  0.3027 -0.3526 -0.4706
 8071TIP3    H148408   2.326   1.585   1.119 -1.1842  1.0590  1.4463
 8071TIP3    H248409   2.278   1.628   0.982  0.8677  1.5769  0.8570
 8072TIP3   OH248410   5.992   7.315   0.426  0.1073 -0.1456  0.0252
 8072TIP3    H148411   5.905   7.281   0.409 -0.0481  0.1289  0.2624
 8072TIP3    H248412   6.046   7.237   0.440 -0.3042 -0.2968  0.8457
 8073TIP3   OH248413   2.716   4.272   2.500 -0.0791  0.5183 -0.2531
 8073TIP3    H148414   2.632   4.309   2.475 -1.1969 -0.8790  1.1863
 8073TIP3    H248415   2.697   4.223   2.580  2.0860  0.0434  0.0247
 8074TIP3   OH248416   5.765   1.654   1.669  0.1063  0.1240 -0.0832
 8074TIP3    H148417   5.697   1.641   1.603  0.6249 -1.0850 -0.4049
 8074TIP3    H248418   5.844   1.614   1.631  0.1955 -1.4904  1.6369
 8075TIP3   OH248419   5.885   3.520   1.316  0.2969 -0.4244 -0.1833
 8075TIP3    H148420   5.894   3.614   1.305 -0.1007  0.3378  4.3881
 8075TIP3    H248421   5.791   3.503   1.304 -0.0640  0.2581  1.5105
 8076TIP3   OH248422   0.253   5.701   2.421  0.8208  0.8165 -0.2030
 8076TIP3    H148423   0.230   5.703   2.328 -1.6466  0.8213  0.3308
 8076TIP3    H248424   0.349   5.702   2.422  0.9221  1.0310 -2.7208
 8077TIP3   OH248425   2.484   1.053   0.889  0.1013  0.6597 -0.3778
 8077TIP3    H148426   2.483   1.132   0.943 -0.2031 -0.0795  0.7230
 8077TIP3    H248427   2.496   1.086   0.799  2.4906  1.7920  0.2849
 8078TIP3   OH248428   0.286   3.709   1.813  0.5967 -0.5439 -0.0553
 8078TIP3    H148429   0.302   3.728   1.905 -1.6363  2.0297 -0.1057
 8078TIP3    H248430   0.279   3.613   1.809  1.4616 -0.7625  2.2663
 8079TIP3   OH248431   4.266   7.159   1.436  0.1642 -0.4267  0.3618
 8079TIP3    H148432   4.324   7.220   1.392  0.5269 -0.2070  1.1345
 8079TIP3    H248433   4.309   7.074   1.428  0.3125 -0.3586  0.4415
 8080TIP3   OH248434   0.212   4.360   2.190  0.1893 -0.3100  0.3680
 8080TIP3    H148435   0.193   4.402   2.274 -0.6543 -2.6563  1.4652
 8080TIP3    H248436   0.144   4.391   2.131 -0.2253  0.0778  1.0440
 8081TIP3   OH248437   6.907   0.255   2.997  0.0333 -0.0283 -0.1364
 8081TIP3    H148438   6.875   0.181   2.945 -0.5920  0.8146 -0.9862
 8081TIP3    H248439   7.002   0.250   2.990 -0.0321  0.0877 -1.4329
 8082TIP3   OH248440   0.189   2.366   2.288 -0.2312 -0.1637 -0.3906
 8082TIP3    H148441   0.136   2.414   2.352  0.7311 -0.5380  0.7149
 8082TIP3    H248442   0.239   2.434   2.242 -1.2198  0.1431 -1.0663
 8083TIP3   OH248443   3.681   5.325   2.725 -0.3171  0.0003 -0.1270
 8083TIP3    H148444   3.640   5.323   2.811  0.5112 -1.3297  0.2642
 8083TIP3    H248445   3.608   5.332   2.664 -0.9153  0.9214  0.6717
 8084TIP3   OH248446   3.733   6.646   2.834 -0.1311  0.3731 -0.0542
 8084TIP3    H148447   3.642   6.616   2.832 -0.1901  0.5635 -2.2235
 8084TIP3    H248448   3.780   6.578   2.881 -0.8944 -1.2739 -1.5790
 8085TIP3   OH248449   3.519   2.117   3.332  0.1944  0.2967  0.0029
 8085TIP3    H148450   3.434   2.130   3.372 -0.2661 -1.3835 -0.3497
 8085TIP3    H248451   3.502   2.118   3.238  1.0181  2.6116 -0.1810
 8086TIP3   OH248452   4.369   1.139   2.293 -0.0801  0.1808 -0.0180
 8086TIP3    H148453   4.316   1.120   2.370 -0.3012  1.1048  0.0656
 8086TIP3    H248454   4.450   1.175   2.327  0.2150 -0.3188 -0.1844
 8087TIP3   OH248455   2.977   2.389   1.709  0.0520  0.3442  0.0935
 8087TIP3    H148456   2.884   2.380   1.733 -0.0223 -1.5315 -0.7462
 8087TIP3    H248457   3.022   2.324   1.764  1.0099  1.7605  1.0544
 8088TIP3   OH248458   0.615   6.005   1.701  0.3891  0.2371  0.0314
 8088TIP3    H148459   0.702   5.999   1.742 -0.0596  0.1442  0.9926
 8088TIP3    H248460   0.609   6.096   1.672  0.1384  0.7110  1.5106
 8089TIP3   OH248461   6.006   4.974   1.094  0.3892 -0.1727  0.3948
 8089TIP3    H148462   5.925   4.936   1.127  0.3192  1.1373  1.8602
 8089TIP3    H248463   5.983   5.065   1.072  1.3421  0.0827  0.3932
 8090TIP3   OH248464   0.233   7.014   0.894 -0.4095  0.2848  0.0432
 8090TIP3    H148465   0.323   7.044   0.910 -0.1425  0.0522 -0.9643
 8090TIP3    H248466   0.243   6.944   0.829 -1.2538 -0.2556  0.4830
 8091TIP3   OH248467   3.575   1.429   2.747  0.6474  0.1948  0.1687
 8091TIP3    H148468   3.563   1.524   2.757  0.8248  0.0693  1.7722
 8091TIP3    H248469   3.562   1.394   2.835 -2.3220 -1.6288 -0.8488
 8092TIP3   OH248470   3.541   2.614   4.014  0.2577  0.1686 -0.4121
 8092TIP3    H148471   3.491   2.682   3.969  0.4944  0.1636 -0.6933
 8092TIP3    H248472   3.476   2.565   4.064  0.1302  0.8005  0.0572
 8093TIP3   OH248473   3.464   3.127   0.658  0.4469  0.4885  0.1176
 8093TIP3    H148474   3.525   3.056   0.676 -0.9263 -0.5244  0.9428
 8093TIP3    H248475   3.385   3.084   0.625 -0.1816  1.6827  0.0126
 8094TIP3   OH248476   0.956   3.493   2.439  0.4479  0.7190  0.2465
 8094TIP3    H148477   0.868   3.505   2.476  0.3718 -1.8913  1.1209
 8094TIP3    H248478   0.996   3.426   2.494  1.0845 -1.9669 -3.1679
 8095TIP3   OH248479   0.440   2.173   0.708 -0.0347  0.1164  0.4839
 8095TIP3    H148480   0.475   2.158   0.796  0.2126 -0.7407  0.2503
 8095TIP3    H248481   0.419   2.086   0.676  1.4689  0.2382 -0.9729
 8096TIP3   OH248482   5.486   3.318   2.181 -0.3695  0.4629  0.5016
 8096TIP3    H148483   5.403   3.291   2.143 -0.0635 -0.2856  0.3567
 8096TIP3    H248484   5.553   3.272   2.130  0.1449  1.1963  0.5004
 8097TIP3   OH248485   4.555   0.458   2.830 -0.3768  0.1210  0.2483
 8097TIP3    H148486   4.465   0.491   2.829 -0.9059 -1.0468  2.4210
 8097TIP3    H248487   4.546   0.365   2.851  1.3128 -0.2409 -0.4569
 8098TIP3   OH248488   5.769   3.205   1.599 -0.5020  0.6330 -0.0722
 8098TIP3    H148489   5.844   3.171   1.550 -1.5947 -2.0288 -0.0754
 8098TIP3    H248490   5.804   3.223   1.686  0.5365  1.3361 -0.6061
 8099TIP3   OH248491   1.849   1.999   1.574  0.2715 -0.4649  0.3532
 8099TIP3    H148492   1.903   2.057   1.520  0.3755  0.7163  1.6738
 8099TIP3    H248493   1.858   2.034   1.663 -1.8625 -0.8373  0.7687
 8100TIP3   OH248494   1.322   2.982   2.120  0.0669 -0.0332 -0.4697
 8100TIP3    H148495   1.286   3.071   2.121  0.4659  0.1411 -0.9546
 8100TIP3    H248496   1.276   2.939   2.047  0.3071 -0.0361 -0.6207
 8101TIP3   OH248497   5.023   7.407   1.988  0.2794 -0.1768 -0.0013
 8101TIP3    H148498   5.026   7.373   2.077  0.1628 -1.1597 -0.3630
 8101TIP3    H248499   4.930   7.424   1.972  0.1602 -1.1370 -0.3496
 8102TIP3   OH248500   0.237   7.415   1.958  0.2241  0.4054  0.1786
 8102TIP3    H148501   0.191   7.451   2.034 -0.7581 -0.1734 -0.1319
 8102TIP3    H248502   0.330   7.414   1.984 -0.1973 -0.7637  1.7643
 8103TIP3   OH248503   4.183   1.398   1.517 -0.0287 -0.4325  0.0444
 8103TIP3    H148504   4.142   1.349   1.588 -0.1013 -1.8701 -0.9443
 8103TIP3    H248505   4.277   1.383   1.530  0.0659  0.7723  0.8457
 8104TIP3   OH248506   3.402   0.684   2.643  0.4845 -0.2712 -0.1558
 8104TIP3    H148507   3.458   0.673   2.566  0.5199  1.8226 -0.4851
 8104TIP3    H248508   3.459   0.723   2.709  0.0060 -0.3959  0.3406
 8105TIP3   OH248509   2.175   2.383   3.994 -0.0114  0.4643  1.2975
 8105TIP3    H148510   2.205   2.465   4.033  0.7913  1.1054 -0.5448
 8105TIP3    H248511   2.107   2.409   3.932  2.0773  0.1622 -1.3016
 8106TIP3   OH248512   1.516   4.290   2.164  0.0360  0.5087  0.0720
 8106TIP3    H148513   1.439   4.271   2.217  0.7800  0.6573  1.2418
 8106TIP3    H248514   1.482   4.338   2.089 -1.1752 -0.6403 -0.1530
 8107TIP3   OH248515   2.192   5.045   2.612 -0.4893  0.7647  0.4544
 8107TIP3    H148516   2.221   4.969   2.562  2.2758  1.5944  0.6654
 8107TIP3    H248517   2.182   5.114   2.547  1.2718  1.3323  0.7272
 8108TIP3   OH248518   1.621   7.218   2.037 -0.2163 -0.6487 -0.2748
 8108TIP3    H148519   1.702   7.268   2.029  0.2617 -0.8469  2.4743
 8108TIP3    H248520   1.634   7.163   2.114 -1.6053 -3.3789 -1.8255
 8109TIP3   OH248521   2.022   0.173   0.834  0.2905  0.0821 -0.4137
 8109TIP3    H148522   2.090   0.239   0.823  0.6513 -0.1973  0.0896
 8109TIP3    H248523   1.955   0.216   0.888  1.1419 -0.3681  1.0727
 8110TIP3   OH248524   6.403   4.139   1.145  0.8886 -0.4238 -0.5720
 8110TIP3    H148525   6.383   4.055   1.185 -0.7050 -0.0497 -0.4906
 8110TIP3    H248526   6.498   4.146   1.149  0.9307 -1.3489  1.1972
 8111TIP3   OH248527   4.181   0.773   1.502  0.3258 -0.0577 -0.4636
 8111TIP3    H148528   4.144   0.765   1.414  1.0267 -1.0697 -0.6908
 8111TIP3    H248529   4.206   0.683   1.525  1.9831  0.4717 -0.0397
 8112TIP3   OH248530   5.658   3.660   0.629 -0.5307 -0.7480 -0.2572
 8112TIP3    H148531   5.630   3.744   0.591  0.3149  0.4778  1.7102
 8112TIP3    H248532   5.715   3.621   0.562 -1.8747 -0.3604 -1.6975
 8113TIP3   OH248533   0.378   4.688   1.067 -0.1018 -0.1825  0.4700
 8113TIP3    H148534   0.353   4.777   1.092  2.3365  0.3966  1.0500
 8113TIP3    H248535   0.295   4.641   1.061 -1.9217  2.9160 -3.2655
 8114TIP3   OH248536   0.692   4.909   2.313  0.3615 -0.1345 -0.2698
 8114TIP3    H148537   0.783   4.890   2.291  0.1903 -0.7030 -0.4864
 8114TIP3    H248538   0.661   4.831   2.358 -0.2306 -0.2151 -0.8135
 8115TIP3   OH248539   4.978   1.129   2.427  0.3176  0.3193  0.2205
 8115TIP3    H148540   5.034   1.057   2.455 -1.8063 -1.2132  0.7229
 8115TIP3    H248541   4.909   1.133   2.492 -1.1765  0.9694 -1.3236
 8116TIP3   OH248542   1.828   0.242   2.508  0.6743 -0.3505 -0.6063
 8116TIP3    H148543   1.865   0.219   2.593 -0.6490  1.7221  0.6114
 8116TIP3    H248544   1.754   0.181   2.496  0.3341 -0.0847  0.1377
 8117TIP3   OH248545   4.778   5.666   0.493 -0.0965  0.3097 -0.0905
 8117TIP3    H148546   4.810   5.604   0.428  0.5261  0.3507  0.1672
 8117TIP3    H248547   4.857   5.700   0.535 -0.5124 -0.4726  1.3975
 8118TIP3   OH248548   2.450   1.818   2.471 -0.5547 -0.7758  1.0129
 8118TIP3    H148549   2.527   1.790   2.421 -1.6349 -0.7844 -0.7300
 8118TIP3    H248550   2.409   1.885   2.416 -3.3813 -2.8062  0.4501
 8119TIP3   OH248551   4.844   3.980   0.830 -0.0809 -0.6982  0.4393
 8119TIP3    H148552   4.769   3.988   0.889  0.6964 -1.3602  1.5479
 8119TIP3    H248553   4.809   4.006   0.744 -1.5917 -1.0392  0.9094
 8120TIP3   OH248554   4.274   3.599   0.828 -0.5072 -0.5204 -0.3979
 8120TIP3    H148555   4.184   3.565   0.834  0.4652 -3.6455 -1.5420
 8120TIP3    H248556   4.326   3.540   0.883  1.1939 -0.2802 -1.6655
 8121TIP3   OH248557   6.733   6.719   1.096  0.4147 -0.2410  0.2216
 8121TIP3    H148558   6.652   6.710   1.146 -0.9644 -1.9116 -2.1252
 8121TIP3    H248559   6.743   6.813   1.084 -0.9758  0.0127  0.8312
 8122TIP3   OH248560   6.021   4.471   7.216  0.4275  0.5788  0.3054
 8122TIP3    H148561   6.115   4.469   7.199 -0.0272 -0.6267 -2.8449
 8122TIP3    H248562   5.986   4.531   7.150 -1.2098 -0.9941 -0.3643
 8123TIP3   OH248563   2.403   0.012   2.857 -0.0251 -0.1255 -0.2624
 8123TIP3    H148564   2.345   0.044   2.927 -0.9227 -0.0061 -1.0463
 8123TIP3    H248565   2.415   0.088   2.800 -0.9929 -0.7600 -1.3535
 8124TIP3   OH248566   1.015   7.154   2.909 -0.1642  0.4445  0.0454
 8124TIP3    H148567   0.969   7.209   2.973  0.1838  0.0585  0.6460
 8124TIP3    H248568   1.099   7.198   2.896 -0.5761  0.9904 -0.8236
 8125TIP3   OH248569   7.252   0.237   1.495  0.3411 -0.4734  0.1687
 8125TIP3    H148570   7.232   0.172   1.562  1.5220  0.0512  1.0728
 8125TIP3    H248571   7.193   0.310   1.515 -0.7411 -1.1099 -0.6344
 8126TIP3   OH248572   3.973   3.404   2.690  0.5681  0.0444 -0.1605
 8126TIP3    H148573   3.908   3.339   2.714  2.0347 -0.7304  2.0181
 8126TIP3    H248574   4.043   3.394   2.755  2.1440  1.8970 -1.4346
 8127TIP3   OH248575   2.502   6.259   2.984 -0.1202  0.7014  0.0815
 8127TIP3    H148576   2.555   6.191   2.942  2.5257  2.5980  0.1355
 8127TIP3    H248577   2.447   6.293   2.913  1.9182  1.6279 -1.1417
 8128TIP3   OH248578   4.533   6.277   2.423  0.4766 -0.8492 -0.0529
 8128TIP3    H148579   4.477   6.290   2.346 -0.1841  0.1779  0.5797
 8128TIP3    H248580   4.602   6.342   2.413  0.5783 -0.9407  0.0575
 8129TIP3   OH248581   4.658   1.718   1.794  0.2262 -0.1887  0.0858
 8129TIP3    H148582   4.722   1.730   1.864 -1.1763 -0.6427  1.4894
 8129TIP3    H248583   4.580   1.764   1.824 -0.5023 -0.6208 -1.0607
 8130TIP3   OH248584   2.430   4.621   0.813  0.1929  0.0143 -0.2766
 8130TIP3    H148585   2.398   4.534   0.793  0.2576 -0.0031 -0.3047
 8130TIP3    H248586   2.353   4.678   0.807  0.0244 -0.1368  0.3549
 8131TIP3   OH248587   0.038   1.437   1.591 -0.2073  0.4329 -0.1284
 8131TIP3    H148588   0.099   1.410   1.660  0.2618 -0.1662 -0.7627
 8131TIP3    H248589  -0.028   1.368   1.589 -0.3744  0.5897 -0.1020
 8132TIP3   OH248590   3.234   6.305   0.440  0.2998 -0.3719  0.1522
 8132TIP3    H148591   3.320   6.346   0.435  0.9028 -1.4929  0.9088
 8132TIP3    H248592   3.241   6.242   0.511 -1.1850 -0.4245  0.2861
 8133TIP3   OH248593   5.686   3.193   2.064  0.9122 -0.1077 -0.3731
 8133TIP3    H148594   5.780   3.185   2.079  0.9372 -2.3084 -1.2890
 8133TIP3    H248595   5.666   3.123   2.002 -1.7857 -1.5246  1.8572
 8134TIP3   OH248596   3.963   1.179   8.544 -0.3714 -0.0140  0.4390
 8134TIP3    H148597   3.949   1.250   8.608  1.9237  0.9518 -0.0412
 8134TIP3    H248598   4.025   1.120   8.587  1.1689  0.6292 -0.8325
 8135TIP3   OH248599   7.365   0.295   3.497  0.0132  0.4652 -0.4638
 8135TIP3    H148600   7.461   0.295   3.496  0.0397  0.0739 -2.6723
 8135TIP3    H248601   7.340   0.277   3.407 -2.1737 -1.6597  0.4554
 8136TIP3   OH248602   5.411   5.514   0.310  0.1439 -0.3014  0.2689
 8136TIP3    H148603   5.395   5.486   0.400 -0.2466 -0.2656  0.2137
 8136TIP3    H248604   5.506   5.527   0.305  0.0331  0.8832  1.0266
 8137TIP3   OH248605   2.704   0.140   1.485 -0.0284  0.8705 -0.3726
 8137TIP3    H148606   2.626   0.092   1.458 -1.2935  1.5358  1.8665
 8137TIP3    H248607   2.698   0.145   1.580  2.2571  1.7986 -0.2098
 8138TIP3   OH248608   5.468   6.126   0.352 -0.0083  0.0333  0.1625
 8138TIP3    H148609   5.548   6.177   0.338  1.0554 -1.8300 -1.0060
 8138TIP3    H248610   5.397   6.189   0.340  1.2463  1.6501  0.7685
 8139TIP3   OH248611   4.357   6.974   0.447 -0.4340 -0.3540  0.0971
 8139TIP3    H148612   4.367   7.061   0.486 -0.3533  0.1374 -0.9828
 8139TIP3    H248613   4.420   6.919   0.493 -1.1796 -0.0961  1.4875
 8140TIP3   OH248614   3.772   7.225   2.268  0.4125 -0.2747  0.3620
 8140TIP3    H148615   3.709   7.286   2.308 -0.4845 -0.9706  0.0314
 8140TIP3    H248616   3.858   7.261   2.292 -0.0913  1.1154  0.1818
 8141TIP3   OH248617   6.592   6.899   0.666  0.0723 -0.6090 -0.3162
 8141TIP3    H148618   6.564   6.808   0.659 -0.8439 -0.5893  2.0470
 8141TIP3    H248619   6.674   6.896   0.715 -0.0827 -0.1555 -0.0161
 8142TIP3   OH248620   7.185   5.168   1.419 -0.1445 -0.2835 -0.5478
 8142TIP3    H148621   7.129   5.145   1.345 -0.9836 -1.6594  0.4470
 8142TIP3    H248622   7.214   5.083   1.454 -1.0841  0.2173  1.6328
 8143TIP3   OH248623   2.036   1.808   3.418  0.1764  0.2474  0.5141
 8143TIP3    H148624   2.055   1.839   3.506 -1.3696 -0.9089  1.2958
 8143TIP3    H248625   1.958   1.754   3.427 -0.9270  1.2595 -1.7925
 8144TIP3   OH248626   0.701   5.773   1.049  0.4940  0.4018  0.3636
 8144TIP3    H148627   0.667   5.700   0.997 -0.1098  0.1792  1.0613
 8144TIP3    H248628   0.664   5.851   1.007 -1.2487  0.1514  1.3258
 8145TIP3   OH248629   0.144   2.219   2.044 -0.0067  0.1290  0.5080
 8145TIP3    H148630   0.158   2.260   2.130 -1.5335 -2.0048  1.8847
 8145TIP3    H248631   0.195   2.138   2.048 -1.0260 -0.5665 -0.1013
 8146TIP3   OH248632   7.479   6.680   2.105 -0.0538 -0.5745 -0.1816
 8146TIP3    H148633   7.389   6.676   2.136  0.4051  1.8977  1.7701
 8146TIP3    H248634   7.472   6.669   2.010 -2.4844  0.1067 -0.1428
 8147TIP3   OH248635   5.495   6.815   2.326 -0.5277 -0.3331  0.2243
 8147TIP3    H148636   5.530   6.818   2.415  0.9615  1.8172 -0.3386
 8147TIP3    H248637   5.567   6.782   2.273 -0.6151  0.4861 -0.4386
 8148TIP3   OH248638   1.752   3.293   2.974 -0.2919  0.1594 -0.1878
 8148TIP3    H148639   1.824   3.356   2.975  0.7015 -0.9327 -0.3130
 8148TIP3    H248640   1.678   3.340   3.012  1.0131  0.7040  1.8315
 8149TIP3   OH248641   3.198   2.836   1.601  0.1610 -0.4289  0.1909
 8149TIP3    H148642   3.191   2.829   1.697  0.9844  0.7494  0.3494
 8149TIP3    H248643   3.112   2.868   1.573  0.6040  1.4142  0.7959
 8150TIP3   OH248644   3.678   5.079   2.544  0.0647  0.4471 -0.1548
 8150TIP3    H148645   3.636   5.149   2.594 -0.4892  0.1780 -0.2358
 8150TIP3    H248646   3.630   5.000   2.568  0.8593  0.0420  0.1382
 8151TIP3   OH248647   5.572   6.209   0.932  0.3052  0.1230 -0.1163
 8151TIP3    H148648   5.528   6.275   0.986 -0.4838  1.4766 -2.3177
 8151TIP3    H248649   5.666   6.225   0.948  0.1028  0.1766  1.1580
 8152TIP3   OH248650   2.694   2.023   1.532  0.2723  0.2422 -0.4278
 8152TIP3    H148651   2.751   2.027   1.609 -0.4462  0.7610  0.1053
 8152TIP3    H248652   2.709   2.106   1.486  1.0472 -0.2701 -1.1145
 8153TIP3   OH248653   7.285   6.904   1.964  0.0311 -0.0296  0.1190
 8153TIP3    H148654   7.268   6.957   2.042 -1.8478  0.8845 -0.8313
 8153TIP3    H248655   7.311   6.967   1.897 -0.6739 -0.4955 -0.6089
 8154TIP3   OH248656   3.976   3.369   0.599  0.2425  0.4144  0.0387
 8154TIP3    H148657   3.906   3.357   0.663 -0.3442 -2.1959 -0.9543
 8154TIP3    H248658   3.943   3.434   0.537 -0.8544  0.0054  0.1821
 8155TIP3   OH248659   6.654   0.054   1.657 -0.1302 -0.2914  0.6435
 8155TIP3    H148660   6.649  -0.035   1.692  0.4733 -0.3953  0.4714
 8155TIP3    H248661   6.734   0.054   1.604  0.0696  0.4647  0.9413
 8156TIP3   OH248662   0.380   5.642   1.481  0.7108  0.0804  0.0427
 8156TIP3    H148663   0.355   5.625   1.390  0.1922 -1.1663  0.3929
 8156TIP3    H248664   0.455   5.700   1.475 -0.9529  2.2811 -1.1241
 8157TIP3   OH248665   4.293   5.166   0.712  0.7132 -0.2456 -0.0755
 8157TIP3    H148666   4.379   5.164   0.670  0.6412 -0.2154 -0.2250
 8157TIP3    H248667   4.235   5.122   0.650  0.1056  1.8883 -1.1478
 8158TIP3   OH248668   7.045   2.867   1.347  0.3156  0.3170  0.4055
 8158TIP3    H148669   7.000   2.786   1.369 -0.6461  1.1443  1.6186
 8158TIP3    H248670   7.079   2.899   1.430  1.5527  0.6720 -0.2082
 8159TIP3   OH248671   3.142   7.494   0.885  0.4966 -0.0212 -0.0273
 8159TIP3    H148672   3.107   7.429   0.946  0.5898 -0.0033  0.0463
 8159TIP3    H248673   3.173   7.565   0.942  1.2989 -0.3419 -0.0445
 8160TIP3   OH248674   4.865   6.434   0.746 -0.4137 -0.0235  0.3195
 8160TIP3    H148675   4.915   6.494   0.800  0.6085 -1.5538  1.1278
 8160TIP3    H248676   4.841   6.486   0.668 -0.0559  1.5553  1.2274
 8161TIP3   OH248677   5.961   3.368   1.081  0.4455  0.1366 -0.1851
 8161TIP3    H148678   5.973   3.440   1.143  1.3817  0.9009 -1.2016
 8161TIP3    H248679   6.035   3.309   1.098 -1.4458 -1.7905  2.1035
 8162TIP3   OH248680   2.688   0.869   0.976 -0.3924  0.0576  0.0536
 8162TIP3    H148681   2.763   0.849   0.921 -1.1455 -1.1489 -0.5755
 8162TIP3    H248682   2.626   0.912   0.918 -0.2182  1.0334  0.5662
 8163TIP3   OH248683   1.977   5.474   0.365 -0.0989 -0.2156  0.7856
 8163TIP3    H148684   1.953   5.471   0.457  1.7566  0.6857  1.3569
 8163TIP3    H248685   2.005   5.564   0.350 -2.2358  0.2287 -1.2194
 8164TIP3   OH248686   0.715   0.302   2.069  0.0705  0.1308 -0.6153
 8164TIP3    H148687   0.663   0.295   1.989  0.4222 -0.4486 -0.7923
 8164TIP3    H248688   0.728   0.397   2.080  1.8768  0.1585 -2.4487
 8165TIP3   OH248689   3.228   7.266   2.566 -0.3773  0.1377  0.6538
 8165TIP3    H148690   3.182   7.215   2.499  0.9038 -0.2539  0.0335
 8165TIP3    H248691   3.240   7.352   2.526 -0.2037  0.1091  0.6431
 8166TIP3   OH248692   2.879   3.640   0.917  0.0070 -0.1752 -0.0984
 8166TIP3    H148693   2.792   3.660   0.951  0.3820 -1.5181  1.7688
 8166TIP3    H248694   2.894   3.707   0.851 -1.7847  1.0645  0.6700
 8167TIP3   OH248695   1.369   1.291   0.313  0.0916  0.2674  0.1792
 8167TIP3    H148696   1.373   1.359   0.246  0.3760  0.1880  0.1173
 8167TIP3    H248697   1.289   1.311   0.362 -0.5612 -0.1415 -0.6895
 8168TIP3   OH248698   6.678   0.789   0.568  0.3127 -0.0134 -0.3948
 8168TIP3    H148699   6.702   0.877   0.541  0.7407  0.5383  1.6063
 8168TIP3    H248700   6.643   0.800   0.657 -2.0413 -1.5294 -1.0299
 8169TIP3   OH248701   5.741   6.753   2.053  0.1693  0.0857 -0.0918
 8169TIP3    H148702   5.822   6.780   2.097  0.7877  1.2069 -1.7935
 8169TIP3    H248703   5.685   6.830   2.057  0.2675  0.2448 -1.2505
 8170TIP3   OH248704   0.096   3.081   0.538  0.2192 -0.0153 -0.1375
 8170TIP3    H148705   0.185   3.053   0.517  0.0646  0.2484 -1.1774
 8170TIP3    H248706   0.050   3.000   0.558 -0.8041 -0.9879 -5.1735
 8171TIP3   OH248707   3.525   1.694   1.064  0.1605 -0.1958  0.4716
 8171TIP3    H148708   3.574   1.620   1.030 -0.8517 -0.3785 -0.6625
 8171TIP3    H248709   3.471   1.658   1.135 -0.8480 -0.7178 -0.5339
 8172TIP3   OH248710   1.244   0.513   1.455 -0.6525  0.5049  0.6684
 8172TIP3    H148711   1.280   0.601   1.440 -1.9410  0.9981  0.2485
 8172TIP3    H248712   1.257   0.497   1.548  2.1347 -0.0826  0.2513
 8173TIP3   OH248713   2.440   5.541   2.452 -0.5835 -0.7951 -0.2188
 8173TIP3    H148714   2.408   5.575   2.369  0.9754 -0.7266 -0.8383
 8173TIP3    H248715   2.412   5.606   2.517 -0.3612  0.0563 -0.9504
 8174TIP3   OH248716   0.523   0.903   1.304 -0.0336  0.2666 -0.4175
 8174TIP3    H148717   0.443   0.861   1.270 -0.7680  1.4889 -0.2694
 8174TIP3    H248718   0.500   0.927   1.394  0.4083  0.8809 -0.4683
 8175TIP3   OH248719   1.551   6.059   2.872 -0.1702 -0.7117  0.0440
 8175TIP3    H148720   1.563   5.979   2.821  0.9154  0.5290 -1.7722
 8175TIP3    H248721   1.603   6.125   2.826  0.3178  0.6874  2.4032
 8176TIP3   OH248722   7.207   1.234   2.592  0.2432 -0.1142  0.4162
 8176TIP3    H148723   7.249   1.241   2.678  0.8367  0.1517  0.1059
 8176TIP3    H248724   7.114   1.228   2.612  0.3548  0.2275  1.0678
 8177TIP3   OH248725   6.104   3.244   2.378  0.6877 -0.0605  0.0730
 8177TIP3    H148726   6.040   3.269   2.446 -0.7781  0.2555 -1.3537
 8177TIP3    H248727   6.140   3.161   2.409  0.4816  0.3487  1.5087
 8178TIP3   OH248728   5.239   2.690   2.121 -0.3424 -0.3125 -0.6989
 8178TIP3    H148729   5.269   2.660   2.036  0.5873  1.2057 -0.9548
 8178TIP3    H248730   5.318   2.689   2.176 -0.9077 -1.1776  0.1303
 8179TIP3   OH248731   6.533   6.011   2.600 -0.1840 -0.6296 -0.1566
 8179TIP3    H148732   6.577   5.931   2.629  0.2130 -0.1613  0.5531
 8179TIP3    H248733   6.585   6.082   2.638 -2.1997 -0.0568  1.7437
 8180TIP3   OH248734   6.786   6.997   1.778 -0.5001  0.5334 -0.5147
 8180TIP3    H148735   6.730   6.994   1.700  0.0698 -1.8392 -0.9224
 8180TIP3    H248736   6.765   6.916   1.826 -0.4756  1.6919  1.5578
 8181TIP3   OH248737   5.915   3.109   0.502 -0.3010  0.1050  0.5004
 8181TIP3    H148738   5.951   3.109   0.413 -0.3774  1.4927  0.4396
 8181TIP3    H248739   5.828   3.068   0.493  0.9434 -2.7659  0.5561
 8182TIP3   OH248740   1.955   2.396   3.169 -0.3834  0.0455 -0.6498
 8182TIP3    H148741   2.051   2.391   3.173 -0.4474 -0.6909  0.5695
 8182TIP3    H248742   1.931   2.338   3.097  0.0754 -0.0611 -0.7233
 8183TIP3   OH248743   4.671   6.883   1.950  0.0835 -0.3254 -0.3552
 8183TIP3    H148744   4.743   6.830   1.984  0.0292 -2.0572 -2.7432
 8183TIP3    H248745   4.710   6.936   1.881 -0.4654  0.6813  0.0729
 8184TIP3   OH248746   4.479   2.338   2.709  0.3758 -0.0147 -0.2840
 8184TIP3    H148747   4.480   2.421   2.757  0.3545 -0.5727  0.7115
 8184TIP3    H248748   4.571   2.318   2.693  0.4083 -0.0868 -0.0085
 8185TIP3   OH248749   2.578   3.382   0.736 -0.4159  0.0286 -0.6482
 8185TIP3    H148750   2.627   3.463   0.718  0.0816  0.1681  1.1913
 8185TIP3    H248751   2.492   3.399   0.699 -0.6513  1.8468  0.5900
 8186TIP3   OH248752   0.658   6.578   2.368  0.0533 -0.6628 -0.2090
 8186TIP3    H148753   0.626   6.655   2.416 -0.5050 -0.3190 -1.0975
 8186TIP3    H248754   0.684   6.516   2.436 -0.8636 -0.2567  0.5401
 8187TIP3   OH248755   7.407   6.876   2.400  0.7731  0.2429 -0.6576
 8187TIP3    H148756   7.430   6.922   2.481 -1.9819  1.6033 -0.5185
 8187TIP3    H248757   7.407   6.783   2.424  1.9389  0.4644  0.3126
 8188TIP3   OH248758   7.193   0.671   1.986 -0.0188  0.5197  0.0310
 8188TIP3    H148759   7.198   0.752   2.037  1.6836  0.8501 -0.5587
 8188TIP3    H248760   7.236   0.605   2.040  0.0966  0.4197 -0.1788
 8189TIP3   OH248761   3.605   4.973   1.101 -0.4007 -0.1437  0.3978
 8189TIP3    H148762   3.668   4.902   1.099 -1.1253 -0.7909  0.2464
 8189TIP3    H248763   3.528   4.939   1.056 -0.6641  0.8315  0.0674
 8190TIP3   OH248764   4.409   4.373   1.391 -0.1698  0.1328  0.4227
 8190TIP3    H148765   4.332   4.427   1.412 -1.0585 -1.0659  0.3573
 8190TIP3    H248766   4.402   4.358   1.297 -0.6028 -1.0729  0.6320
 8191TIP3   OH248767   5.590   6.107   1.966 -0.0248 -0.1428 -0.9647
 8191TIP3    H148768   5.554   6.022   1.990 -0.3558 -0.0109 -0.9885
 8191TIP3    H248769   5.518   6.169   1.979 -0.0382  0.0131 -1.7522
 8192TIP3   OH248770   3.781   6.744   1.493 -0.1570  0.1887  0.1222
 8192TIP3    H148771   3.772   6.699   1.408  0.7401 -0.0821  0.1607
 8192TIP3    H248772   3.717   6.815   1.489  0.5811  0.8296 -1.2107
 8193TIP3   OH248773   2.810   4.040   2.147 -0.2912 -0.0431 -0.2435
 8193TIP3    H148774   2.743   4.033   2.079 -2.3142  0.1610  1.6423
 8193TIP3    H248775   2.762   4.062   2.226  2.0744  0.4629  1.1350
 8194TIP3   OH248776   4.077   4.194   2.252 -0.1109 -0.0052  0.1383
 8194TIP3    H148777   4.125   4.176   2.171  0.2409 -1.4493  0.6393
 8194TIP3    H248778   4.127   4.263   2.295 -0.2985  0.7737 -0.8625
 8195TIP3   OH248779   4.585   2.341   2.151  0.1442  0.3539 -0.1901
 8195TIP3    H148780   4.599   2.301   2.065  0.3832 -1.9779  0.8426
 8195TIP3    H248781   4.513   2.291   2.189  1.1863  0.1309  1.6182
 8196TIP3   OH248782   1.233   5.613   3.206 -0.3643 -0.3391 -0.0470
 8196TIP3    H148783   1.215   5.694   3.159  0.4296  0.5360  1.0944
 8196TIP3    H248784   1.328   5.601   3.198  0.0710  0.7029  2.5813
 8197TIP3   OH248785   2.682   6.549   1.194  0.2020 -0.0544 -0.4625
 8197TIP3    H148786   2.674   6.640   1.168  2.6604  0.2126 -0.5106
 8197TIP3    H248787   2.775   6.538   1.215  0.1193 -2.7204 -1.1467
 8198TIP3   OH248788   5.551   4.460   2.191 -0.2025 -1.2822 -0.3416
 8198TIP3    H148789   5.511   4.494   2.272 -0.3374 -1.6987 -0.2344
 8198TIP3    H248790   5.477   4.446   2.132 -0.0823 -0.7468 -0.6294
 8199TIP3   OH248791   0.536   4.693   2.420  0.5574  1.1618  0.5334
 8199TIP3    H148792   0.453   4.666   2.460  1.2135 -0.7139  0.7517
 8199TIP3    H248793   0.581   4.741   2.490  0.8153 -0.2865  1.4195
 8200TIP3   OH248794   2.131   7.279   1.720 -0.0142 -0.0673 -0.8589
 8200TIP3    H148795   2.055   7.332   1.696 -0.1905 -0.2710 -0.7634
 8200TIP3    H248796   2.136   7.212   1.651  0.2279  0.0950 -0.9986
 8201TIP3   OH248797   4.718   0.683   1.595  0.2841  0.3709  0.3484
 8201TIP3    H148798   4.639   0.734   1.608 -1.3373 -1.5639 -1.2107
 8201TIP3    H248799   4.778   0.742   1.550 -1.2720  1.1357 -0.8138
 8202TIP3   OH248800   1.735   0.468   2.834 -0.4829  0.1574  0.2885
 8202TIP3    H148801   1.731   0.373   2.823 -1.4480 -0.4094  4.1063
 8202TIP3    H248802   1.658   0.501   2.788 -0.2112 -0.8826 -0.9753
 8203TIP3   OH248803   6.717   1.923   1.378 -0.1976 -0.1860 -0.1197
 8203TIP3    H148804   6.745   1.837   1.347  1.0569  0.3013 -0.3807
 8203TIP3    H248805   6.790   1.981   1.358 -0.4511  0.6794  1.3251
 8204TIP3   OH248806   2.789   5.903   1.027  0.3900  0.2570  0.1792
 8204TIP3    H148807   2.824   5.958   0.957  0.4704  0.0121  0.0244
 8204TIP3    H248808   2.705   5.943   1.049  0.3033  0.2615 -0.1475
 8205TIP3   OH248809   1.907   4.559   1.979 -0.3618  0.1602 -0.0465
 8205TIP3    H148810   1.956   4.531   1.902 -1.3567 -0.9893 -0.2901
 8205TIP3    H248811   1.948   4.512   2.052 -0.7034 -0.3254 -0.1645
 8206TIP3   OH248812   3.778   2.042   1.218 -0.4772  0.3814 -0.5260
 8206TIP3    H148813   3.845   2.098   1.257 -0.7281 -0.7062  1.5740
 8206TIP3    H248814   3.765   2.079   1.131  2.8151  0.6529 -1.0491
 8207TIP3   OH248815   1.512   0.376   1.265  0.1152  0.0633 -1.0815
 8207TIP3    H148816   1.440   0.337   1.215 -1.5973  2.6501 -0.7987
 8207TIP3    H248817   1.576   0.401   1.199  0.2419 -1.1307 -1.4462
 8208TIP3   OH248818   4.775   4.825   2.508 -0.2423 -0.1681  0.4564
 8208TIP3    H148819   4.704   4.803   2.449 -1.1662  0.2461  1.3851
 8208TIP3    H248820   4.798   4.915   2.484 -0.7578  0.0744  0.8493
 8209TIP3   OH248821   0.296   3.581   1.261  0.4805  0.8887  0.2288
 8209TIP3    H148822   0.270   3.516   1.326  1.3099  1.0480  0.7353
 8209TIP3    H248823   0.215   3.604   1.216 -0.4893  2.1353  2.4270
 8210TIP3   OH248824   3.918   2.885   3.046 -0.0328 -0.2545  0.0712
 8210TIP3    H148825   3.917   2.807   3.101 -0.0452 -0.1897  0.1629
 8210TIP3    H248826   3.852   2.943   3.084  0.2273 -0.0519  0.2175
 8211TIP3   OH248827   0.253   5.397   0.924 -0.0451  0.2428  0.0250
 8211TIP3    H148828   0.189   5.446   0.975 -0.4723  0.6463 -0.8838
 8211TIP3    H248829   0.335   5.444   0.935  0.0617 -0.1525  1.0167
 8212TIP3   OH248830   2.586   6.350   0.732  0.1547 -0.0463 -0.1191
 8212TIP3    H148831   2.634   6.349   0.815  0.3572 -2.4371 -0.1992
 8212TIP3    H248832   2.583   6.443   0.707 -0.1190  0.7942  2.6541
 8213TIP3   OH248833   1.786   2.003   2.795 -0.6015 -0.3229  0.0444
 8213TIP3    H148834   1.788   1.919   2.748 -0.9731 -0.7026  0.6872
 8213TIP3    H248835   1.839   2.062   2.742 -0.3666 -0.9594 -0.4386
 8214TIP3   OH248836   5.799   0.377   2.373 -0.4372 -0.0518 -0.7678
 8214TIP3    H148837   5.837   0.299   2.332 -0.8168 -1.3842  1.2647
 8214TIP3    H248838   5.709   0.352   2.392 -0.6668  1.0227 -0.4044
 8215TIP3   OH248839   3.305   7.477   3.563 -0.1048 -0.0093  0.0456
 8215TIP3    H148840   3.297   7.525   3.645 -0.1751 -1.1048  0.7126
 8215TIP3    H248841   3.357   7.534   3.506 -2.7255  2.1784 -0.3284
 8216TIP3   OH248842   3.771   0.503   2.200 -0.4139  1.3181  0.0813
 8216TIP3    H148843   3.764   0.598   2.205  0.1514  1.4272 -0.9530
 8216TIP3    H248844   3.813   0.486   2.115 -2.0582  0.0712 -0.5307
 8217TIP3   OH248845   0.258   6.167   0.542  0.7047  0.1514 -0.4136
 8217TIP3    H148846   0.272   6.260   0.522  1.1302  0.0072 -0.8087
 8217TIP3    H248847   0.309   6.121   0.475  1.7152 -0.3590  0.6780
 8218TIP3   OH248848   5.729   3.775   2.609 -0.3846 -0.0526 -0.1563
 8218TIP3    H148849   5.734   3.842   2.541  0.1866 -0.1130 -0.1719
 8218TIP3    H248850   5.737   3.824   2.691  1.7076 -0.2450 -0.1962
 8219TIP3   OH248851   6.549   5.574   1.312 -0.2783  0.0654  0.0266
 8219TIP3    H148852   6.559   5.482   1.334  0.0411  0.4011  1.3373
 8219TIP3    H248853   6.463   5.598   1.346 -0.6662  0.0849 -0.9397
 8220TIP3   OH248854   5.587   2.418   2.344  0.4699  0.3711  0.0411
 8220TIP3    H148855   5.669   2.430   2.392  1.2914 -1.0857 -0.9109
 8220TIP3    H248856   5.602   2.340   2.290 -1.6793 -0.1319  0.0908
 8221TIP3   OH248857   0.592   5.474   3.090 -0.0371 -0.7229  0.1274
 8221TIP3    H148858   0.526   5.533   3.054  1.2230 -0.0027 -1.1332
 8221TIP3    H248859   0.544   5.415   3.147 -1.3797  1.4997  1.4245
 8222TIP3   OH248860   0.922   7.358   1.874  0.1525 -0.0011 -0.2685
 8222TIP3    H148861   0.952   7.446   1.897  1.6304  0.3859 -3.2009
 8222TIP3    H248862   0.849   7.373   1.814  1.0196 -0.6911 -1.5358
 8223TIP3   OH248863   1.480   6.906   3.123 -0.6577 -0.2439 -0.6444
 8223TIP3    H148864   1.551   6.894   3.187 -1.0238  1.4360  0.1515
 8223TIP3    H248865   1.439   6.989   3.149 -3.0589 -1.2550 -0.9609
 8224TIP3   OH248866   3.653   2.126   2.230  0.1361  0.5098 -0.2576
 8224TIP3    H148867   3.698   2.166   2.155 -2.2894  4.2322  0.0110
 8224TIP3    H248868   3.588   2.069   2.190  1.1118 -0.2379 -0.8239
 8225TIP3   OH248869   4.488   3.030   1.706 -0.6459  0.0461 -0.3897
 8225TIP3    H148870   4.427   3.104   1.717 -0.9113 -0.1925 -0.2239
 8225TIP3    H248871   4.521   3.039   1.617  1.0912  1.6887  0.3617
 8226TIP3   OH248872   4.357   6.286   2.926  0.1621 -0.1477  0.1768
 8226TIP3    H148873   4.405   6.273   2.845  1.0330  0.7074  0.5307
 8226TIP3    H248874   4.401   6.360   2.969 -2.0976  1.3959  0.0407
 8227TIP3   OH248875   0.167   2.680   1.626 -0.0240  0.0588  0.0433
 8227TIP3    H148876   0.107   2.609   1.651  0.2957 -0.4116 -0.4946
 8227TIP3    H248877   0.125   2.760   1.658 -1.6350 -0.0931 -1.5654
 8228TIP3   OH248878   0.364   1.004   3.208  0.6337 -0.1275  0.1800
 8228TIP3    H148879   0.428   1.057   3.256  0.3517 -0.5527  1.0585
 8228TIP3    H248880   0.391   1.009   3.117  0.8974  1.1131  0.3162
 8229TIP3   OH248881   2.422   2.027   2.107  0.0947 -0.3937 -0.4193
 8229TIP3    H148882   2.388   2.090   2.043 -1.7666  0.2403  1.0872
 8229TIP3    H248883   2.507   2.062   2.134 -0.7619  1.3601  0.1566
 8230TIP3   OH248884   6.348   2.606   1.974 -0.3471 -0.2277 -0.0102
 8230TIP3    H148885   6.376   2.600   2.065  2.0734  1.5921 -0.5262
 8230TIP3    H248886   6.290   2.681   1.971 -0.6730 -0.4758  0.0825
 8231TIP3   OH248887   5.481   0.515   2.311  0.0180  0.1280 -0.0132
 8231TIP3    H148888   5.483   0.549   2.222  0.9875  0.5750  0.1700
 8231TIP3    H248889   5.389   0.494   2.326 -0.2639  0.6853 -0.8796
 8232TIP3   OH248890   2.146   3.271   3.474  0.3089  0.3039 -0.2246
 8232TIP3    H148891   2.107   3.347   3.430 -1.2081 -0.2163  0.1533
 8232TIP3    H248892   2.097   3.196   3.440  0.3342 -0.2892  1.0087
 8233TIP3   OH248893   0.146   1.429   1.117 -0.5563  0.1681 -0.3541
 8233TIP3    H148894   0.219   1.404   1.174 -1.2602 -0.1874  0.3962
 8233TIP3    H248895   0.131   1.352   1.062  0.6484  0.7817 -1.6233
 8234TIP3   OH248896   2.322   5.881   3.460 -0.1553 -0.2266 -0.0437
 8234TIP3    H148897   2.255   5.916   3.519  1.7621  2.6853  0.6549
 8234TIP3    H248898   2.286   5.799   3.427 -2.9510 -0.0255  2.1842
 8235TIP3   OH248899   5.474   6.560   1.374  0.8169  0.3095  0.4285
 8235TIP3    H148900   5.527   6.492   1.416  0.0910  0.4103  1.5309
 8235TIP3    H248901   5.387   6.520   1.365  0.3771  1.0827  1.1070
 8236TIP3   OH248902   1.049   0.371   1.881  0.0152 -0.0078  0.2297
 8236TIP3    H148903   1.086   0.428   1.813  1.0003 -0.5309  0.3018
 8236TIP3    H248904   0.957   0.396   1.886  0.4241  1.6146  0.3093
 8237TIP3   OH248905   5.803   6.855   2.419  0.0203 -0.2038  0.0342
 8237TIP3    H148906   5.810   6.942   2.379 -0.3600 -0.4376 -0.5428
 8237TIP3    H248907   5.717   6.855   2.460  0.3493 -0.0181  0.7478
 8238TIP3   OH248908   1.936   3.992   1.626 -1.0028 -0.2229 -0.2201
 8238TIP3    H148909   1.948   4.032   1.712 -0.8018 -0.7412 -0.0004
 8238TIP3    H248910   1.907   4.064   1.570 -0.3221  0.3045  0.0821
 8239TIP3   OH248911   3.121   0.795   0.639  0.1561 -0.0753 -0.9045
 8239TIP3    H148912   3.118   0.777   0.734 -0.7244  1.6860 -0.5736
 8239TIP3    H248913   3.149   0.886   0.633  0.9980 -0.4054 -2.3984
 8240TIP3   OH248914   0.371   6.696   1.904 -0.3649 -0.0946 -0.2177
 8240TIP3    H148915   0.347   6.605   1.887  0.0400 -0.2221 -0.1025
 8240TIP3    H248916   0.435   6.692   1.974 -1.0122  0.3455  0.4186
 8241TIP3   OH248917   2.096   1.133   1.976  0.9938  0.3340  0.4306
 8241TIP3    H148918   2.136   1.082   2.046 -0.4517 -0.4708  0.7243
 8241TIP3    H248919   2.090   1.072   1.902 -0.8834 -0.0603  0.8312
 8242TIP3   OH248920   6.129   5.221   1.274 -0.8454 -0.5294 -0.3262
 8242TIP3    H148921   6.096   5.232   1.185 -2.1914  1.2313  0.3235
 8242TIP3    H248922   6.053   5.238   1.330  0.4057  0.4184  1.1708
 8243TIP3   OH248923   4.695   4.203   1.213  0.1558 -0.2658  0.4303
 8243TIP3    H148924   4.647   4.189   1.132  0.8718 -1.7820  0.2345
 8243TIP3    H248925   4.774   4.249   1.186  0.2284 -0.4541  0.3239
 8244TIP3   OH248926   5.105   5.088   0.722  0.1381  0.0736 -0.0299
 8244TIP3    H148927   5.035   5.091   0.787  0.6320  0.4381  0.4818
 8244TIP3    H248928   5.070   5.136   0.647  0.3124  1.3607  0.6900
 8245TIP3   OH248929   0.438   1.467   0.816 -0.2289  0.7517  0.1538
 8245TIP3    H148930   0.396   1.478   0.901 -0.9870 -0.8472  0.0289
 8245TIP3    H248931   0.406   1.382   0.785  0.9818  0.7513 -1.1782
 8246TIP3   OH248932   0.214   0.435   3.047  0.2184 -0.2419 -0.2670
 8246TIP3    H148933   0.248   0.406   2.963  0.6316  0.0281 -0.1997
 8246TIP3    H248934   0.186   0.526   3.031  0.8534  0.0091  0.0336
 8247TIP3   OH248935   1.092   3.070   2.366  0.0223 -0.3036  1.0369
 8247TIP3    H148936   1.004   3.102   2.385  0.1670  0.1379  0.9624
 8247TIP3    H248937   1.142   3.087   2.446  0.8759  2.4071  0.0122
 8248TIP3   OH248938   0.441   6.697   2.543 -0.5601 -0.1665  0.2243
 8248TIP3    H148939   0.358   6.665   2.508 -0.1174 -1.5406  0.3690
 8248TIP3    H248940   0.454   6.647   2.623  0.6150 -0.2903 -0.0240
 8249TIP3   OH248941   6.111   2.427   2.146  0.0314  0.2123  0.3105
 8249TIP3    H148942   6.199   2.393   2.138 -0.0207  0.4248 -1.7129
 8249TIP3    H248943   6.100   2.445   2.240  1.7719 -0.6941  0.7193
 8250TIP3   OH248944   4.077   3.451   1.631  0.3309 -0.1757 -0.3150
 8250TIP3    H148945   3.995   3.414   1.665  0.5869 -1.5228 -1.1012
 8250TIP3    H248946   4.097   3.399   1.553  1.9782  0.0667 -0.0986
 8251TIP3   OH248947   2.501   6.897   2.441  0.7302 -0.0998  0.5464
 8251TIP3    H148948   2.551   6.979   2.434  2.1912 -0.9920  0.0551
 8251TIP3    H248949   2.432   6.905   2.375 -0.2322  1.4269  1.6649
 8252TIP3   OH248950   6.028   2.879   0.662  0.0465  0.3876 -0.1076
 8252TIP3    H148951   6.008   2.957   0.611 -0.8189  0.1833 -0.1070
 8252TIP3    H248952   6.044   2.912   0.751  2.8843  0.8902 -0.7147
 8253TIP3   OH248953   2.744   3.386   1.099 -0.6467 -0.3893 -0.3653
 8253TIP3    H148954   2.682   3.333   1.048 -3.9980  1.5917  1.2875
 8253TIP3    H248955   2.777   3.450   1.037 -0.8921 -0.9762 -1.1224
 8254TIP3   OH248956   2.352   4.396   1.039 -0.1030 -0.3170 -0.5365
 8254TIP3    H148957   2.438   4.361   1.064 -0.4821  0.1509  1.5394
 8254TIP3    H248958   2.359   4.490   1.053 -1.1100 -0.3345  0.2045
 8255TIP3   OH248959   6.306   7.462   2.086  0.0971 -0.0289  0.2036
 8255TIP3    H148960   6.260   7.411   2.152  0.1318  1.6133  1.5419
 8255TIP3    H248961   6.241   7.524   2.053  0.3426 -0.2053 -0.6587
 8256TIP3   OH248962   5.046   6.169   1.991 -0.0764 -0.2400  0.2334
 8256TIP3    H148963   5.069   6.233   2.058 -0.6680 -0.2318  0.4319
 8256TIP3    H248964   4.974   6.210   1.942  0.5487 -0.1109 -0.6021
 8257TIP3   OH248965   2.604   3.172   2.350  0.0211 -0.2748 -0.1068
 8257TIP3    H148966   2.540   3.126   2.296 -0.2671  1.5666 -1.4198
 8257TIP3    H248967   2.561   3.255   2.374  1.4085  0.4231  0.0990
 8258TIP3   OH248968   6.651   6.271   2.352 -0.3867 -0.5671  0.0869
 8258TIP3    H148969   6.559   6.297   2.363  0.2612  2.1036 -0.1591
 8258TIP3    H248970   6.699   6.328   2.412  1.2803 -0.6088 -1.1367
 8259TIP3   OH248971   6.571   3.379   0.452  0.6397 -0.1211 -0.4849
 8259TIP3    H148972   6.662   3.399   0.435  1.3254 -1.1229  1.6075
 8259TIP3    H248973   6.570   3.285   0.470 -1.0082 -0.3619 -1.6171
 8260TIP3   OH248974   5.956   1.076   1.362  0.4921  0.0877  0.0624
 8260TIP3    H148975   6.037   1.098   1.316 -0.9149  0.9677 -2.1405
 8260TIP3    H248976   5.953   0.980   1.359  1.9457 -0.0283  1.1593
 8261TIP3   OH248977   3.307   0.376   1.595 -0.2171 -0.7066 -0.4920
 8261TIP3    H148978   3.357   0.356   1.516 -1.3318 -3.4079 -0.6520
 8261TIP3    H248979   3.336   0.311   1.659  0.0469  0.8864  1.0711
 8262TIP3   OH248980   2.905   4.861   2.799 -0.5772  0.1394  0.2360
 8262TIP3    H148981   2.842   4.788   2.799 -1.1154  0.5989 -0.1313
 8262TIP3    H248982   2.851   4.939   2.793 -0.0144  0.5914  0.8407
 8263TIP3   OH248983   3.745   4.776   0.475  0.3877 -0.1105  0.1462
 8263TIP3    H148984   3.682   4.711   0.442  1.7556 -0.8347 -1.1819
 8263TIP3    H248985   3.762   4.749   0.565  0.2710 -1.0811 -0.1088
 8264TIP3   OH248986   3.157   0.805   1.664  0.1108 -0.3642  0.3446
 8264TIP3    H148987   3.251   0.790   1.655  0.1800  0.1660  0.1563
 8264TIP3    H248988   3.125   0.729   1.714  1.0566  0.7749  2.8066
 8265TIP3   OH248989   3.782   7.442   1.569  0.1206 -1.0744 -0.6226
 8265TIP3    H148990   3.738   7.397   1.497  0.6940  0.8768 -2.2616
 8265TIP3    H248991   3.873   7.413   1.563 -0.2401 -2.6909  0.8294
 8266TIP3   OH248992   2.085   1.803   1.461 -0.2728 -0.5113  0.0713
 8266TIP3    H148993   1.997   1.807   1.497 -0.0422 -1.8525  0.8666
 8266TIP3    H248994   2.134   1.750   1.524  0.8741 -0.5244 -0.7958
 8267TIP3   OH248995   4.863   2.442   1.937  0.3775  0.6491 -0.5958
 8267TIP3    H148996   4.770   2.447   1.916 -0.3679 -1.3503  1.6802
 8267TIP3    H248997   4.891   2.357   1.902  0.6250  0.0465  0.9668
 8268TIP3   OH248998   5.573   7.505   1.184  0.0391 -0.3550 -0.1189
 8268TIP3    H148999   5.550   7.580   1.130  0.5762 -0.0538  0.0557
 8268TIP3    H249000   5.668   7.494   1.171  0.3810  0.3514  1.5174
 8269TIP3   OH249001   6.497   1.157   3.170  0.3194  0.3427 -0.4667
 8269TIP3    H149002   6.581   1.155   3.217 -0.9342  0.5503  1.9143
 8269TIP3    H249003   6.513   1.214   3.095  2.3809  0.1360 -0.2449
 8270TIP3   OH249004   0.728   6.732   3.331 -0.3359  0.2078 -0.1590
 8270TIP3    H149005   0.736   6.637   3.342 -0.1598  0.0095 -1.8342
 8270TIP3    H249006   0.794   6.768   3.391 -1.9538 -0.5760  2.2669
 8271TIP3   OH249007   7.243   7.307   2.023 -0.4058 -0.4024 -0.1066
 8271TIP3    H149008   7.303   7.381   2.022 -0.4276 -0.3777  0.1824
 8271TIP3    H249009   7.276   7.248   1.955 -1.0020  0.3528 -1.0713
 8272TIP3   OH249010   1.192   3.137   2.611 -0.2982 -0.1496  0.5446
 8272TIP3    H149011   1.272   3.150   2.561 -0.9461  0.2803 -0.4271
 8272TIP3    H249012   1.204   3.189   2.690  0.6905 -0.7229  0.7781
 8273TIP3   OH249013   1.015   6.131   1.621 -0.5844  0.0559 -0.0041
 8273TIP3    H149014   1.076   6.173   1.682 -0.5073 -0.3489  0.2057
 8273TIP3    H249015   1.069   6.110   1.545 -0.6227  0.3327 -0.1080
 8274TIP3   OH249016   3.466   3.836   2.168  0.4421 -0.4932  0.2855
 8274TIP3    H149017   3.502   3.891   2.098 -2.8574  0.5387 -0.7830
 8274TIP3    H249018   3.439   3.756   2.125 -0.4236 -0.3859  0.6024
 8275TIP3   OH249019   6.096   5.837   2.570 -0.2780  0.2563 -0.4157
 8275TIP3    H149020   6.128   5.912   2.619  0.8823 -1.7489  2.1648
 8275TIP3    H249021   6.003   5.854   2.557 -0.2124  1.7572  0.8549
 8276TIP3   OH249022   6.305   3.723   0.751 -0.0609  0.0781  0.2649
 8276TIP3    H149023   6.387   3.675   0.763 -0.9533 -1.3155  1.0904
 8276TIP3    H249024   6.325   3.813   0.776  1.3451 -0.1238 -0.0750
 8277TIP3   OH249025   6.759   5.536   1.967 -0.6038 -0.3724  0.4565
 8277TIP3    H149026   6.698   5.569   1.901  0.5461 -1.3479 -1.1584
 8277TIP3    H249027   6.815   5.612   1.987 -1.2305  0.0463  0.6702
 8278TIP3   OH249028   2.505   0.439   2.526 -0.0817 -0.2194 -0.0811
 8278TIP3    H149029   2.454   0.517   2.504 -2.8776 -1.7443  0.4021
 8278TIP3    H249030   2.581   0.443   2.469  0.2938  3.1817  0.4236
 8279TIP3   OH249031   0.973   4.940   0.909  0.2311 -0.0757  0.3847
 8279TIP3    H149032   0.962   4.999   0.984 -1.5164 -0.0566  0.1539
 8279TIP3    H249033   1.060   4.903   0.921 -0.0875 -0.2805  2.5977
 8280TIP3   OH249034   7.205   4.646   2.702 -0.1680 -0.3124 -0.3493
 8280TIP3    H149035   7.259   4.653   2.623  2.2326  0.7050  1.2573
 8280TIP3    H249036   7.134   4.708   2.687 -0.9162 -1.5523 -2.4651
 8281TIP3   OH249037   1.951   5.415   2.338 -0.0144  1.1997  0.5944
 8281TIP3    H149038   2.039   5.388   2.362  0.0869  1.0922  0.1092
 8281TIP3    H249039   1.893   5.360   2.391  0.1854  0.1370 -0.2736
 8282TIP3   OH249040   4.502   3.029   1.262 -0.1906 -0.2050 -0.0953
 8282TIP3    H149041   4.520   2.948   1.214 -1.0802 -0.1756 -0.5033
 8282TIP3    H249042   4.409   3.022   1.286  0.1199  0.0006  1.2157
 8283TIP3   OH249043   2.233   0.063   3.342  0.1995  0.7313 -0.9001
 8283TIP3    H149044   2.319   0.094   3.369 -0.4764  2.2077 -0.3922
 8283TIP3    H249045   2.173   0.097   3.407 -0.4964 -2.9484  0.6692
 8284TIP3   OH249046   5.579   5.916   0.491 -0.2336  0.3786 -0.7042
 8284TIP3    H149047   5.622   5.946   0.571  0.9242  0.2542 -1.2584
 8284TIP3    H249048   5.517   5.985   0.469 -1.1918  0.0228  0.7611
 8285TIP3   OH249049   2.386   0.650   2.242 -0.4113 -0.1069  0.4271
 8285TIP3    H149050   2.328   0.709   2.196  0.8441  0.0683 -0.9999
 8285TIP3    H249051   2.366   0.664   2.335  0.5120  3.3100  0.2380
 8286TIP3   OH249052   1.545   0.162   2.411 -0.4022  0.3179 -0.3916
 8286TIP3    H149053   1.506   0.117   2.487  1.4167 -0.8613 -0.0990
 8286TIP3    H249054   1.529   0.255   2.428 -2.6818 -0.0616 -0.1074
 8287TIP3   OH249055   1.232   5.686   2.640  0.0451  0.3396 -0.0839
 8287TIP3    H149056   1.248   5.780   2.645 -2.5331  0.8117  0.8633
 8287TIP3    H249057   1.187   5.673   2.557 -0.7403  0.1520  0.3640
 8288TIP3   OH249058   0.863   4.894   2.706  0.0915 -0.3465  0.2188
 8288TIP3    H149059   0.915   4.899   2.626 -0.2934  0.6324  0.0096
 8288TIP3    H249060   0.792   4.834   2.685 -0.0026 -0.0973 -0.1712
 8289TIP3   OH249061   4.860   5.279   2.124 -0.9986  0.0734  0.5662
 8289TIP3    H149062   4.920   5.213   2.088 -0.2352  0.5235  0.9755
 8289TIP3    H249063   4.773   5.247   2.101 -0.6720 -1.3507  1.2052
 8290TIP3   OH249064   4.649   0.656   2.998  0.3983 -0.0982  0.6567
 8290TIP3    H149065   4.685   0.704   2.924 -1.6961  0.7839  0.1501
 8290TIP3    H249066   4.632   0.569   2.965 -1.1112  0.4674 -0.1228
 8291TIP3   OH249067   6.979   5.716   1.790  0.5496  0.3934  0.0852
 8291TIP3    H149068   7.045   5.653   1.763 -0.1302 -0.4917  0.4366
 8291TIP3    H249069   7.000   5.737   1.881  1.5617  1.7169 -0.4295
 8292TIP3   OH249070   7.058   7.421   1.409 -0.2719 -0.5763 -0.4507
 8292TIP3    H149071   7.016   7.507   1.417  1.7713  0.5199 -0.7398
 8292TIP3    H249072   7.142   7.431   1.454  0.6517 -1.9476 -1.7681
 8293TIP3   OH249073   6.651   3.862   1.082  0.1451  0.2193  0.2481
 8293TIP3    H149074   6.573   3.850   1.136  0.5103 -1.7751  0.4322
 8293TIP3    H249075   6.623   3.836   0.994  0.2405  0.8986  0.0111
 8294TIP3   OH249076   4.216   5.848   1.518 -0.1388  0.8046  0.0303
 8294TIP3    H149077   4.181   5.927   1.478 -0.9229 -0.1305 -1.2099
 8294TIP3    H249078   4.139   5.793   1.535  0.4426  0.0350  0.2722
 8295TIP3   OH249079   5.027   0.420   2.875  0.3257 -0.3383 -0.3514
 8295TIP3    H149080   5.043   0.509   2.842  1.0458  0.1926  1.3163
 8295TIP3    H249081   4.933   0.408   2.866 -0.2332  1.6730  1.7972
 8296TIP3   OH249082   0.439   3.142   0.417 -0.2243  0.3513 -0.0747
 8296TIP3    H149083   0.381   3.148   0.341 -1.3088  0.1700  0.7152
 8296TIP3    H249084   0.458   3.233   0.439 -0.1585  0.4110 -0.3653
 8297TIP3   OH249085   1.418   4.747   1.791 -0.0961 -0.2001 -0.1942
 8297TIP3    H149086   1.504   4.710   1.773  0.6835  1.4193  0.0009
 8297TIP3    H249087   1.358   4.673   1.786  1.4690 -1.6395  1.0419
 8298TIP3   OH249088   2.889   3.760   2.327  0.5683 -0.3031  0.5694
 8298TIP3    H149089   2.962   3.743   2.266  0.2731  0.6892 -0.0873
 8298TIP3    H249090   2.811   3.750   2.273  0.1642 -1.7880  1.3718
 8299TIP3   OH249091   5.154   5.257   2.539  0.8118  0.7363  0.3500
 8299TIP3    H149092   5.241   5.230   2.568  0.3890  0.0975  1.0694
 8299TIP3    H249093   5.105   5.175   2.533  0.2205  1.1065  0.0856
 8300TIP3   OH249094   0.073   5.831   0.937  0.0567 -0.1886  0.5523
 8300TIP3    H149095   0.015   5.760   0.963 -2.0656  1.3221  0.1526
 8300TIP3    H249096   0.066   5.836   0.842  0.4308  0.3504  0.5429
 8301TIP3   OH249097   2.464   5.505   1.585 -0.2656 -0.1810 -0.3363
 8301TIP3    H149098   2.395   5.533   1.524 -0.2651 -0.1608 -0.3276
 8301TIP3    H249099   2.541   5.492   1.530 -0.2103  0.0356 -0.3110
 8302TIP3   OH249100   4.447   4.026   2.770  0.0752  0.0573 -0.0641
 8302TIP3    H149101   4.364   4.005   2.811  0.0050  1.0374  0.3215
 8302TIP3    H249102   4.512   3.975   2.819 -0.1407  0.3316  0.5130
 8303TIP3   OH249103   1.187   6.782   2.391  0.2057  0.6211  0.0411
 8303TIP3    H149104   1.282   6.784   2.397  0.3904 -2.3764 -0.2225
 8303TIP3    H249105   1.169   6.739   2.308 -1.2421 -1.4520  1.3071
 8304TIP3   OH249106   3.791   2.590   2.380  0.7066  0.3980 -0.3868
 8304TIP3    H149107   3.720   2.532   2.354  1.4446 -1.1926  0.9897
 8304TIP3    H249108   3.779   2.668   2.326 -1.4634 -0.2344 -0.9177
 8305TIP3   OH249109   5.107   0.714   2.105 -0.1804  0.3206 -0.1072
 8305TIP3    H149110   5.062   0.678   2.029 -0.5099  0.8881 -0.1844
 8305TIP3    H249111   5.200   0.704   2.086 -0.2608 -0.7220 -0.0161
 8306TIP3   OH249112   3.381   2.584   2.997 -0.4729  0.1030  0.1173
 8306TIP3    H149113   3.475   2.595   3.009 -0.3628 -0.5676 -0.0696
 8306TIP3    H249114   3.342   2.622   3.076 -0.1480  1.8680 -0.5344
 8307TIP3   OH249115   3.433   2.189   1.322 -0.1234  0.3142 -0.2986
 8307TIP3    H149116   3.346   2.229   1.314 -0.2092 -0.1074 -1.7079
 8307TIP3    H249117   3.431   2.116   1.260  1.0425 -0.0729  0.1006
 8308TIP3   OH249118   4.683   5.760   0.856  0.3440 -0.0012  0.1876
 8308TIP3    H149119   4.749   5.692   0.844  0.1452 -0.1329 -0.1689
 8308TIP3    H249120   4.638   5.735   0.936 -0.2448 -0.7223 -0.3606
 8309TIP3   OH249121   1.682   2.561   1.186 -0.0530  0.3598  0.0143
 8309TIP3    H149122   1.683   2.475   1.228 -1.8944 -0.1572 -0.8795
 8309TIP3    H249123   1.611   2.608   1.230 -0.5364  0.6025 -0.9981
 8310TIP3   OH249124   3.844   5.966   1.400  0.5852 -0.1753  0.2825
 8310TIP3    H149125   3.782   6.039   1.407 -0.6667 -1.0597 -0.9909
 8310TIP3    H249126   3.843   5.925   1.487 -0.4393 -0.0271  0.3509
 8311TIP3   OH249127   5.967   6.191   0.419 -0.2365  0.3241  0.4753
 8311TIP3    H149128   5.883   6.216   0.458 -0.7480  0.8804 -0.8942
 8311TIP3    H249129   6.016   6.273   0.414  0.3552  0.0191  1.1668
 8312TIP3   OH249130   0.452   3.569   1.023 -0.8241 -0.1853 -0.9477
 8312TIP3    H149131   0.428   3.605   1.108  3.2788 -1.7895  1.2236
 8312TIP3    H249132   0.399   3.490   1.014  0.3582 -1.4012  1.5526
 8313TIP3   OH249133   2.020   6.828   1.159 -0.2818  0.1407 -0.5988
 8313TIP3    H149134   1.993   6.758   1.217  1.7934  1.6268  2.4387
 8313TIP3    H249135   1.957   6.898   1.175  0.5378  0.7054  0.2789
 8314TIP3   OH249136   3.959   0.192   2.269  0.1985 -0.4688 -0.0238
 8314TIP3    H149137   3.973   0.181   2.175 -3.2568 -2.7622 -0.4474
 8314TIP3    H249138   3.910   0.274   2.276  1.0383  0.0525 -0.1115
 8315TIP3   OH249139   1.383   1.269   1.718 -0.1280  0.0437  1.0700
 8315TIP3    H149140   1.455   1.206   1.724 -0.5267 -0.4734  0.5641
 8315TIP3    H249141   1.414   1.345   1.767  0.1008 -0.7940  2.2939
 8316TIP3   OH249142   6.992   1.167   2.405  0.3185  0.3172  0.1033
 8316TIP3    H149143   6.990   1.143   2.497  2.7079 -1.3499 -0.2036
 8316TIP3    H249144   6.995   1.263   2.406 -2.0291  0.4591  1.6104
 8317TIP3   OH249145   7.245   4.659   3.190 -0.4472 -0.0130 -0.1934
 8317TIP3    H149146   7.307   4.729   3.169  0.2511 -0.9233 -1.2428
 8317TIP3    H249147   7.300   4.583   3.207 -1.2060 -0.3360  0.9272
 8318TIP3   OH249148   1.935   4.693   1.149 -0.0173  0.1766 -0.5418
 8318TIP3    H149149   1.975   4.725   1.230 -1.7689  0.2229  0.3417
 8318TIP3    H249150   1.925   4.599   1.163 -0.2942  0.1782 -0.7202
 8319TIP3   OH249151   1.192   5.734   0.846  0.1276  0.6423  0.0372
 8319TIP3    H149152   1.159   5.644   0.854 -0.4111  0.8592  0.3012
 8319TIP3    H249153   1.153   5.766   0.765 -1.2472  1.2750  0.9126
 8320TIP3   OH249154   1.418   7.329   1.885 -0.1215 -0.4131 -0.5886
 8320TIP3    H149155   1.408   7.246   1.840 -1.1783 -0.2717 -0.6429
 8320TIP3    H249156   1.458   7.307   1.969  0.3088 -0.8765 -0.9108
 8321TIP3   OH249157   4.749   4.557   1.751 -0.2484  0.3987 -0.5456
 8321TIP3    H149158   4.771   4.621   1.820  1.2899  1.0102 -1.5388
 8321TIP3    H249159   4.665   4.586   1.717 -1.1304 -0.0229  1.1799
 8322TIP3   OH249160   3.068   2.252   2.062  0.1614  0.1504  0.1317
 8322TIP3    H149161   3.073   2.157   2.050 -1.5421 -0.1722  1.6184
 8322TIP3    H249162   3.159   2.281   2.061  0.8067 -1.7195  1.2110
 8323TIP3   OH249163   3.724   5.243   1.168 -0.7508  0.0876 -0.1067
 8323TIP3    H149164   3.705   5.171   1.108 -2.5411 -0.6986  1.2917
 8323TIP3    H249165   3.639   5.287   1.180 -0.0811  1.2692  0.5334
 8324TIP3   OH249166   2.815   2.822   2.659  0.2506  0.2265  0.1434
 8324TIP3    H149167   2.760   2.782   2.726  0.7105 -0.2076  0.2688
 8324TIP3    H249168   2.754   2.851   2.592 -0.4318  2.5985  1.6834
 8325TIP3   OH249169   3.128   4.539   2.305  0.0125 -0.2635  0.4983
 8325TIP3    H149170   3.178   4.530   2.387 -0.3249  0.4437  0.7940
 8325TIP3    H249171   3.041   4.506   2.326 -0.5674  1.4569  0.9333
 8326TIP3   OH249172   3.450   4.417   1.187  0.7124 -0.0501  0.2391
 8326TIP3    H149173   3.374   4.372   1.149 -0.3856  1.4076  0.6093
 8326TIP3    H249174   3.451   4.387   1.278  0.1979  0.3888  0.3942
 8327TIP3   OH249175   5.615   3.392   0.789  0.2742  0.6289  0.0462
 8327TIP3    H149176   5.709   3.408   0.790  0.6854 -1.3770 -1.1913
 8327TIP3    H249177   5.595   3.370   0.698 -1.1922 -0.0972  0.5070
 8328TIP3   OH249178   5.821   0.431   3.244  0.0401 -0.2541 -0.4134
 8328TIP3    H149179   5.791   0.507   3.194 -0.8282 -1.0884 -1.1917
 8328TIP3    H249180   5.869   0.378   3.180  0.8350 -0.2757  0.1778
 8329TIP3   OH249181   7.252   6.564   1.257 -0.0683  0.7333 -0.1146
 8329TIP3    H149182   7.280   6.474   1.275  0.2575  0.7438 -0.5651
 8329TIP3    H249183   7.158   6.564   1.277 -1.2282 -0.9350 -4.4047
 8330TIP3   OH249184   4.887   0.868   1.967 -0.1997 -0.0392 -0.3193
 8330TIP3    H149185   4.893   0.950   1.917  0.7076  0.0096 -0.1523
 8330TIP3    H249186   4.952   0.811   1.926  1.5831  0.4681  1.6133
 8331TIP3   OH249187   1.688   1.306   0.837  0.1494  0.2272 -0.4195
 8331TIP3    H149188   1.624   1.368   0.802 -0.9703 -1.8621 -2.3696
 8331TIP3    H249189   1.651   1.220   0.817  3.0549 -1.0955 -0.6476
 8332TIP3   OH249190   5.542   6.827   2.588  0.2312 -0.1279 -0.0372
 8332TIP3    H149191   5.524   6.742   2.629  0.2097  0.3213  0.9167
 8332TIP3    H249192   5.465   6.880   2.608  0.1025  0.0285 -0.9038
 8333TIP3   OH249193   0.798   5.817   2.561  0.4164 -0.0621  0.2821
 8333TIP3    H149194   0.734   5.796   2.629  0.4362 -1.5603 -0.1357
 8333TIP3    H249195   0.855   5.882   2.601 -0.7588  0.5728  1.0043
 8334TIP3   OH249196   3.236   0.886   1.909  0.4976 -0.2654 -0.2425
 8334TIP3    H149197   3.197   0.886   1.821 -0.0982  0.9593  0.0109
 8334TIP3    H249198   3.175   0.835   1.962 -1.0176  1.9460  0.2365
 8335TIP3   OH249199   4.534   0.968   1.562 -0.3159 -0.0289  0.8776
 8335TIP3    H149200   4.442   0.990   1.580 -0.0039  1.9396  0.3502
 8335TIP3    H249201   4.572   1.051   1.532  1.7906 -0.6596  1.6607
 8336TIP3   OH249202   2.118   4.373   9.691  0.2658 -0.1142 -0.3998
 8336TIP3    H149203   2.201   4.364   9.739  1.2261  2.4147 -1.4154
 8336TIP3    H249204   2.116   4.297   9.633  0.5741 -1.5805  1.3889
 8337TIP3   OH249205   5.691   3.015   2.539  0.1568 -0.0491 -0.4115
 8337TIP3    H149206   5.624   3.030   2.605 -0.6776 -4.5932  0.0598
 8337TIP3    H249207   5.644   2.979   2.464  1.8159 -1.8004 -0.7058
 8338TIP3   OH249208   3.342   4.474   0.453  0.2695 -0.0536 -0.0570
 8338TIP3    H149209   3.276   4.409   0.428 -0.4032  0.6280 -0.0666
 8338TIP3    H249210   3.375   4.442   0.538  0.3382 -0.6927 -0.3139
 8339TIP3   OH249211   3.374   4.124   2.616  0.5024  0.4410 -0.1093
 8339TIP3    H149212   3.459   4.105   2.576 -0.6990 -1.2120 -2.0082
 8339TIP3    H249213   3.333   4.187   2.556 -0.0406  0.4425  0.2578
 8340TIP3   OH249214   0.231   5.394   2.273  0.1930 -0.3376  0.3750
 8340TIP3    H149215   0.182   5.386   2.354  1.0736 -0.8973  0.8769
 8340TIP3    H249216   0.210   5.481   2.239 -0.3726 -0.1976  1.0753
 8341TIP3   OH249217   7.222   0.329   1.814 -0.0236  0.5207 -0.4092
 8341TIP3    H149218   7.192   0.365   1.730  3.7237 -0.4675 -2.4024
 8341TIP3    H249219   7.248   0.405   1.865 -0.6837  1.0548 -0.8456
 8342TIP3   OH249220   0.913   7.359   1.077 -0.2219 -0.2906  0.2801
 8342TIP3    H149221   0.920   7.266   1.055 -0.4314 -0.4553  0.8966
 8342TIP3    H249222   0.826   7.385   1.048  0.8246  0.4261 -2.4695
 8343TIP3   OH249223   5.311   3.842   0.788  0.1193 -0.4879 -0.0338
 8343TIP3    H149224   5.228   3.820   0.746  0.2389  0.0725 -0.5897
 8343TIP3    H249225   5.306   3.936   0.803  0.1613 -0.6459  1.0612
 8344TIP3   OH249226   4.364   5.030   2.069  0.1241 -0.2478 -0.2092
 8344TIP3    H149227   4.313   5.076   2.136  1.8980  0.5797  0.6316
 8344TIP3    H249228   4.300   4.973   2.026 -1.1516 -0.5507  1.9375
 8345TIP3   OH249229   7.299   0.625   0.573 -0.2516 -0.1978 -0.6514
 8345TIP3    H149230   7.286   0.592   0.484 -0.5207  0.9873 -1.0743
 8345TIP3    H249231   7.226   0.686   0.587 -0.7443 -1.0348  0.7399
 8346TIP3   OH249232   6.361   0.351   1.753 -0.3324 -0.5645  0.4948
 8346TIP3    H149233   6.445   0.358   1.707 -1.3670  1.3440 -1.2164
 8346TIP3    H249234   6.366   0.266   1.797  1.5442 -1.5914 -1.4940
 8347TIP3   OH249235   3.225   0.796   3.674  0.1442 -0.3526 -0.4568
 8347TIP3    H149236   3.254   0.763   3.589  0.7714 -0.8248 -0.0639
 8347TIP3    H249237   3.131   0.777   3.676  0.0447  0.0229 -1.2022
 8348TIP3   OH249238   4.670   4.132   7.942  0.2765 -0.2228  0.5591
 8348TIP3    H149239   4.757   4.106   7.911 -0.1391 -0.5107 -0.3914
 8348TIP3    H249240   4.667   4.100   8.033  1.9995  1.7716  1.4162
 8349TIP3   OH249241   5.352   0.717   0.554 -0.6513  0.2221  0.0256
 8349TIP3    H149242   5.309   0.803   0.556 -2.2889 -0.5419  2.9784
 8349TIP3    H249243   5.305   0.668   0.487 -1.3512  0.8826  0.0190
 8350TIP3   OH249244   3.922   4.356   3.306  0.9867  0.1619  0.1675
 8350TIP3    H149245   3.876   4.434   3.336  2.2549 -0.4419  4.3905
 8350TIP3    H249246   3.973   4.385   3.231 -2.1312  2.0746 -1.4347
 8351TIP3   OH249247   6.205   5.133   2.251  0.0247  0.2825  0.3487
 8351TIP3    H149248   6.229   5.192   2.180  0.1908  1.1207  1.0915
 8351TIP3    H249249   6.122   5.095   2.222  0.9666 -0.7653 -1.1006
 8352TIP3   OH249250   1.543   6.372   1.569 -0.0124  0.3852  0.2771
 8352TIP3    H149251   1.635   6.397   1.564 -0.0208  0.2074 -1.4647
 8352TIP3    H249252   1.497   6.453   1.589  0.2103  1.3904 -2.6971
 8353TIP3   OH249253   4.673   6.328   0.920  0.4862 -0.6079 -0.0152
 8353TIP3    H149254   4.582   6.313   0.895  0.0559  1.1641  0.3525
 8353TIP3    H249255   4.713   6.367   0.842  1.3371 -2.6374 -0.6553
 8354TIP3   OH249256   3.148   5.218   2.109  0.2844  0.1654  0.3156
 8354TIP3    H149257   3.212   5.215   2.180  1.0108 -1.6699 -0.3665
 8354TIP3    H249258   3.163   5.138   2.059  0.2657  1.6974 -2.3344
 8355TIP3   OH249259   4.593   2.508   2.484 -0.0583  0.2257  0.0162
 8355TIP3    H149260   4.498   2.508   2.495 -0.1398 -1.8060 -0.4062
 8355TIP3    H249261   4.627   2.494   2.573 -0.1752 -0.0363  0.0183
 8356TIP3   OH249262   2.349   6.799   1.304  0.0374 -0.2604  0.1626
 8356TIP3    H149263   2.329   6.889   1.328 -2.4377 -0.5207 -0.7142
 8356TIP3    H249264   2.389   6.805   1.218  0.3655  0.0162  0.3310
 8357TIP3   OH249265   3.008   1.414   1.660  0.7813 -0.0878  0.1324
 8357TIP3    H149266   3.066   1.347   1.622 -2.0506 -1.8452 -1.4188
 8357TIP3    H249267   2.937   1.364   1.700  0.0028  1.9811  1.4988
 8358TIP3   OH249268   2.863   2.158   2.975  0.0319  0.0235 -0.2567
 8358TIP3    H149269   2.890   2.220   3.043 -0.6765  0.6836 -0.5520
 8358TIP3    H249270   2.907   2.189   2.896 -0.9404  0.6361 -0.5725
 8359TIP3   OH249271   0.263   2.950   1.203  0.1978 -0.5194 -0.2494
 8359TIP3    H149272   0.298   2.871   1.244 -0.5724 -0.9311 -0.3720
 8359TIP3    H249273   0.291   2.944   1.112  0.6293 -0.3579 -0.1301
 8360TIP3   OH249274   6.758   2.781   2.732  0.0868  0.1153 -0.3526
 8360TIP3    H149275   6.739   2.687   2.725  0.2114  0.1198 -0.8357
 8360TIP3    H249276   6.688   2.824   2.682  0.9882  0.1647 -1.6258
 8361TIP3   OH249277   0.091   0.162   3.452  0.3496  0.0061 -0.0413
 8361TIP3    H149278   0.125   0.241   3.410 -0.6453 -0.1603 -1.1916
 8361TIP3    H249279   0.159   0.138   3.516  0.8058  1.6022  0.1063
 8362TIP3   OH249280   6.986   6.374   0.995  0.4135  0.1754  0.0604
 8362TIP3    H149281   7.050   6.343   0.932  0.1762 -1.0895  0.4080
 8362TIP3    H249282   6.923   6.425   0.944  0.8449  0.1186 -0.5280
 8363TIP3   OH249283   2.309   6.657   2.481  0.1244  0.6565  0.1406
 8363TIP3    H149284   2.270   6.610   2.554 -2.3765  0.4051 -1.2505
 8363TIP3    H249285   2.358   6.729   2.522 -0.7202  0.1891  2.0647
 8364TIP3   OH249286   6.833   7.291   1.597  0.2517  0.1492 -0.0122
 8364TIP3    H149287   6.875   7.217   1.641 -1.0462  0.3059  1.5792
 8364TIP3    H249288   6.886   7.367   1.623  0.4998  0.0159 -0.1300
 8365TIP3   OH249289   3.576   1.934   1.854 -0.2563 -0.5680  0.5022
 8365TIP3    H149290   3.528   2.010   1.820 -0.9977 -2.4045 -2.9628
 8365TIP3    H249291   3.667   1.964   1.861 -0.6804  0.8892  0.1348
 8366TIP3   OH249292   4.926   1.262   1.346 -0.4644 -0.7471 -0.1172
 8366TIP3    H149293   5.015   1.228   1.335 -0.7863 -1.1964 -1.5604
 8366TIP3    H249294   4.937   1.356   1.357  0.0493 -0.1564 -4.2659
 8367TIP3   OH249295   3.783   0.438   1.101 -0.2450 -0.0126 -0.1784
 8367TIP3    H149296   3.751   0.369   1.160  1.5580 -1.9126 -1.2801
 8367TIP3    H249297   3.872   0.457   1.133 -0.6333  1.6943 -0.0337
 8368TIP3   OH249298   6.452   6.165   2.007 -0.2087 -0.1739  0.3308
 8368TIP3    H149299   6.459   6.207   2.092 -0.3764  1.0688 -0.2522
 8368TIP3    H249300   6.501   6.222   1.947 -1.5509 -0.0718 -0.7234
 8369TIP3   OH249301   3.672   1.292   2.493 -0.0115 -0.0908  0.0371
 8369TIP3    H149302   3.650   1.355   2.561 -0.3441  0.9919 -1.0368
 8369TIP3    H249303   3.615   1.316   2.419  1.4515 -0.2214 -1.1679
 8370TIP3   OH249304   6.542   4.907   2.644 -0.1471 -0.1621  1.2446
 8370TIP3    H149305   6.602   4.852   2.694  0.7987  1.1792  1.6344
 8370TIP3    H249306   6.516   4.976   2.706 -0.0669  0.7255  0.3073
 8371TIP3   OH249307   1.580   1.548   2.756  0.4628  0.4923 -0.0723
 8371TIP3    H149308   1.631   1.487   2.704  1.0429 -0.4509  1.5323
 8371TIP3    H249309   1.501   1.566   2.704  1.2092 -0.0714 -1.4188
 8372TIP3   OH249310   1.267   2.108   2.496 -0.0902  0.0446 -0.5737
 8372TIP3    H149311   1.313   2.128   2.578  0.4106  0.1728 -0.8848
 8372TIP3    H249312   1.255   2.013   2.498 -1.2102  0.1852  0.2405
 8373TIP3   OH249313   6.606   6.582   2.116  0.2513  0.0417 -0.1426
 8373TIP3    H149314   6.562   6.620   2.192 -0.6450 -2.9221  0.9693
 8373TIP3    H249315   6.694   6.560   2.147  0.5503  0.6120 -0.5754
 8374TIP3   OH249316   3.351   2.277   2.382  0.3658 -0.1759 -0.2212
 8374TIP3    H149317   3.348   2.182   2.397  1.9996 -0.1908  0.1914
 8374TIP3    H249318   3.314   2.314   2.462 -0.1685 -0.4447 -0.3344
 8375TIP3   OH249319   0.578   1.158   3.296  0.2197 -0.6634  0.3680
 8375TIP3    H149320   0.662   1.122   3.265  0.7280 -0.4656  1.4653
 8375TIP3    H249321   0.594   1.178   3.389 -1.4499 -1.8924  0.9569
 8376TIP3   OH249322   1.712   5.641   0.747 -0.4783  0.2167 -0.6105
 8376TIP3    H149323   1.620   5.618   0.759 -0.2038 -1.3753 -1.3665
 8376TIP3    H249324   1.711   5.735   0.731 -1.8615  0.4139  0.4442
 8377TIP3   OH249325   7.057   5.219   2.116 -0.3979 -0.5909 -0.1140
 8377TIP3    H149326   6.999   5.146   2.136 -2.3259  0.7140 -0.6846
 8377TIP3    H249327   7.052   5.229   2.021 -0.2430  0.3477 -0.0356
 8378TIP3   OH249328   0.197   0.392   0.832  0.4430  0.5272  0.2246
 8378TIP3    H149329   0.117   0.418   0.787 -0.3657  1.8102  2.2650
 8378TIP3    H249330   0.192   0.434   0.917  2.7136 -0.3893  0.9053
 8379TIP3   OH249331   0.718   5.641   0.727  0.6360 -0.7323  0.2362
 8379TIP3    H149332   0.671   5.675   0.651  0.7258  0.2942  0.6341
 8379TIP3    H249333   0.773   5.713   0.756  0.7977 -1.1988  1.1170
 8380TIP3   OH249334   0.093   6.054   1.337 -0.5440 -0.3691  0.3191
 8380TIP3    H149335   0.097   6.015   1.250  0.7389 -0.2796  0.3288
 8380TIP3    H249336   0.119   6.145   1.324  0.9793 -0.6770  0.9666
 8381TIP3   OH249337   5.841   4.305   1.326 -0.5269 -0.1160 -0.4659
 8381TIP3    H149338   5.836   4.346   1.239 -0.3363 -0.3523 -0.5920
 8381TIP3    H249339   5.898   4.229   1.312  0.0034  0.1902 -0.0021
 8382TIP3   OH249340   6.229   3.827   1.445  0.4682 -0.2713  0.3515
 8382TIP3    H149341   6.188   3.864   1.522  1.4577  0.8412  0.3759
 8382TIP3    H249342   6.208   3.734   1.448  0.7012 -0.2900  2.1021
 8383TIP3   OH249343   3.396   1.965   0.484 -0.3794  0.3421 -0.3147
 8383TIP3    H149344   3.335   1.895   0.509  0.3179 -0.4455 -0.7425
 8383TIP3    H249345   3.352   2.046   0.508 -0.6124 -0.2907  1.5263
 8384TIP3   OH249346   7.414   2.269   1.041  0.4201 -0.4231  0.3297
 8384TIP3    H149347   7.347   2.333   1.066  1.1023  0.2000  0.6292
 8384TIP3    H249348   7.488   2.323   1.010  0.2170 -1.1273 -1.5004
 8385TIP3   OH249349   0.184   0.949   1.648 -0.3919 -0.0840  0.0485
 8385TIP3    H149350   0.138   0.984   1.724  0.4179  1.5555 -0.1545
 8385TIP3    H249351   0.200   1.026   1.593  2.1253 -0.6248 -0.1097
 8386TIP3   OH249352   7.254   4.328   2.367 -0.3429 -0.5562  0.1871
 8386TIP3    H149353   7.343   4.302   2.390 -0.6859 -1.7104  0.2823
 8386TIP3    H249354   7.245   4.304   2.275 -1.0184 -1.8486  0.5619
 8387TIP3   OH249355   4.113   1.120   1.066 -0.2162  0.2388  0.0297
 8387TIP3    H149356   4.096   1.210   1.038 -0.9419  0.4639  1.0949
 8387TIP3    H249357   4.048   1.105   1.136  0.8234 -0.6188  0.8457
 8388TIP3   OH249358   5.474   1.831   1.321  0.6217 -0.3983 -0.4138
 8388TIP3    H149359   5.433   1.892   1.261  0.2979 -1.4141 -1.2566
 8388TIP3    H249360   5.554   1.803   1.275  1.7746  0.7815  0.7645
 8389TIP3   OH249361   5.259   6.774   0.917  0.0062  0.1328 -0.2506
 8389TIP3    H149362   5.256   6.786   1.012  0.9463  1.5116 -0.3695
 8389TIP3    H249363   5.294   6.857   0.884 -0.2241 -0.3661 -1.7984
 8390TIP3   OH249364   0.644   4.686   1.103 -0.2354  0.1542  0.2315
 8390TIP3    H149365   0.553   4.692   1.075 -0.5155  0.2284  1.1500
 8390TIP3    H249366   0.642   4.696   1.198  0.6099 -1.0480  0.4035
 8391TIP3   OH249367   6.499   6.810   1.402 -0.4230  0.5983  0.1799
 8391TIP3    H149368   6.562   6.835   1.336  1.2144 -0.0669  1.4054
 8391TIP3    H249369   6.427   6.770   1.353  1.0385 -0.5078 -1.1716
 8392TIP3   OH249370   5.848   2.670   0.689 -0.2654  0.3219 -0.0803
 8392TIP3    H149371   5.820   2.652   0.599 -0.4096  1.6370 -0.3311
 8392TIP3    H249372   5.897   2.752   0.682  0.3163  0.0776  0.9493
 8393TIP3   OH249373   0.836   7.351   0.654  0.2958  0.0328  0.0782
 8393TIP3    H149374   0.825   7.315   0.742 -0.6367  1.2479  0.4863
 8393TIP3    H249375   0.837   7.274   0.596 -1.0462 -0.6846  0.9611
 8394TIP3   OH249376   4.365   2.491   1.083 -0.1203  0.1338  0.4948
 8394TIP3    H149377   4.460   2.488   1.093 -0.0316 -2.2875 -0.4143
 8394TIP3    H249378   4.349   2.564   1.024  1.3951 -0.6413 -0.9478
 8395TIP3   OH249379   4.204   6.575   2.659  0.4148  0.0030 -0.1962
 8395TIP3    H149380   4.184   6.639   2.728  0.0340  0.4569 -0.7174
 8395TIP3    H249381   4.195   6.624   2.577 -2.8854 -1.3522 -0.8297
 8396TIP3   OH249382   2.605   5.299   1.099 -0.8235  0.0898  0.2498
 8396TIP3    H149383   2.689   5.300   1.145 -0.4346  0.1949 -0.4428
 8396TIP3    H249384   2.546   5.348   1.155 -0.2312  0.6273  0.4107
 8397TIP3   OH249385   7.031   7.163   1.350  0.5860  0.3731 -0.6890
 8397TIP3    H149386   7.107   7.160   1.408 -0.7041 -0.5070  1.0880
 8397TIP3    H249387   6.985   7.243   1.375 -1.2973 -1.2325  1.4378
 8398TIP3   OH249388   1.033   5.169   0.684 -0.0400  0.0299  0.0344
 8398TIP3    H149389   1.011   5.175   0.591  2.6000 -0.3993 -0.6806
 8398TIP3    H249390   0.950   5.145   0.726 -1.3675  0.5183 -2.1344
 8399TIP3   OH249391   3.131   1.384   2.179 -0.0577  0.4281  0.3406
 8399TIP3    H149392   3.139   1.291   2.158 -0.8895  0.6637 -1.1988
 8399TIP3    H249393   3.152   1.428   2.096 -1.8371  1.5098  0.4181
 8400TIP3   OH249394   4.586   1.797   3.386  0.0024 -0.0945 -0.0251
 8400TIP3    H149395   4.678   1.787   3.363  0.3303 -2.0060  1.8545
 8400TIP3    H249396   4.586   1.852   3.465 -0.4280 -0.3575  0.1666
 8401TIP3   OH249397   5.393   1.257   2.870  0.0316  0.1207 -0.0558
 8401TIP3    H149398   5.411   1.171   2.907  2.7410  0.5189 -0.2485
 8401TIP3    H249399   5.479   1.298   2.861 -1.1517  2.9293  0.1970
 8402TIP3   OH249400   6.547   6.575   3.107  0.2017 -0.0194  0.7448
 8402TIP3    H149401   6.474   6.635   3.122  1.1001  0.8124  2.0649
 8402TIP3    H249402   6.536   6.507   3.174 -0.0460 -0.6095  0.1249
 8403TIP3   OH249403   4.907   5.604   0.911 -0.1720  0.2944  0.0142
 8403TIP3    H149404   4.915   5.624   1.005  4.8122  1.4174 -0.3797
 8403TIP3    H249405   4.967   5.530   0.897  0.6101  1.3197 -2.5388
 8404TIP3   OH249406   1.160   3.825   1.566  0.7204  0.0719 -0.2479
 8404TIP3    H149407   1.076   3.831   1.521  0.5569 -0.8254 -0.0896
 8404TIP3    H249408   1.145   3.871   1.649  0.8993  1.3636 -0.9036
 8405TIP3   OH249409   4.239   0.523   1.621  0.0103  0.3938 -0.0782
 8405TIP3    H149410   4.165   0.463   1.633 -0.4129  1.1973  1.7262
 8405TIP3    H249411   4.293   0.509   1.698  0.7676  1.1512 -0.4599
 8406TIP3   OH249412   4.957   7.431   0.799  0.2504  0.1928  0.1384
 8406TIP3    H149413   4.996   7.344   0.791 -2.3279 -0.8991 -1.8928
 8406TIP3    H249414   5.026   7.492   0.771  1.1383 -1.4391 -1.3483
 8407TIP3   OH249415   1.485   1.341   3.692 -0.3853 -0.6196 -0.4695
 8407TIP3    H149416   1.454   1.303   3.610 -0.2084 -0.7638 -0.4700
 8407TIP3    H249417   1.540   1.415   3.664 -0.6443 -0.4276 -0.4710
 8408TIP3   OH249418   3.097   7.430   1.625 -0.3920  0.0011  0.2639
 8408TIP3    H149419   3.192   7.432   1.634 -0.4855  1.7412  1.2836
 8408TIP3    H249420   3.063   7.460   1.709 -1.9110 -1.6642  0.3193
 8409TIP3   OH249421   5.296   6.376   1.261  0.3873 -0.6136  0.0601
 8409TIP3    H149422   5.204   6.397   1.244  0.5230  0.0376  0.1062
 8409TIP3    H249423   5.293   6.316   1.335  0.0704  0.6343  1.1034
 8410TIP3   OH249424   7.221   1.165   0.782  0.3318  0.5364  0.0421
 8410TIP3    H149425   7.200   1.167   0.688  0.4390  0.1547  0.0096
 8410TIP3    H249426   7.297   1.222   0.790 -0.7130  1.9620  0.1645
 8411TIP3   OH249427   5.469   4.596   1.367 -0.2588 -0.3377 -0.7815
 8411TIP3    H149428   5.473   4.543   1.447 -2.8238 -2.0023 -1.6004
 8411TIP3    H249429   5.375   4.611   1.354 -0.0479 -1.0597 -3.9993
 8412TIP3   OH249430   0.121   4.173   0.685 -0.3484  0.2059  0.4784
 8412TIP3    H149431   0.116   4.113   0.760 -0.4094  0.0700  0.3661
 8412TIP3    H249432   0.098   4.258   0.721 -0.4268  0.1317  0.6056
 8413TIP3   OH249433   1.816   3.654   1.283  0.0501  0.3978  0.0648
 8413TIP3    H149434   1.795   3.706   1.205 -0.7453 -0.2168 -0.1415
 8413TIP3    H249435   1.750   3.584   1.284  1.9216 -1.4846 -0.4792
 8414TIP3   OH249436   0.115   6.434   0.461 -0.2230 -0.7411  0.6272
 8414TIP3    H149437   0.040   6.492   0.477 -1.0514 -0.9085 -2.1670
 8414TIP3    H249438   0.119   6.378   0.539 -0.8117  1.4951  2.3751
 8415TIP3   OH249439   7.140   4.409   1.533 -0.2530 -0.2436 -0.2278
 8415TIP3    H149440   7.081   4.364   1.594 -0.7859  0.2032 -0.4069
 8415TIP3    H249441   7.094   4.490   1.510  0.8089  0.5268  0.2836
 8416TIP3   OH249442   1.231   1.772   1.213  0.0624  0.6418 -0.3595
 8416TIP3    H149443   1.291   1.699   1.200 -0.3817  0.4298 -1.2609
 8416TIP3    H249444   1.286   1.850   1.204  0.2338  0.4469 -1.0179
 8417TIP3   OH249445   4.423   1.333   2.805 -0.5347 -0.1678 -0.5650
 8417TIP3    H149446   4.408   1.336   2.900 -0.6317  1.5003 -0.5970
 8417TIP3    H249447   4.369   1.260   2.775  0.6391 -1.6946  0.8229
 8418TIP3   OH249448   3.355   2.271   2.093  0.5726 -0.6336 -0.1085
 8418TIP3    H149449   3.358   2.309   2.182 -0.7040 -1.0503  0.1267
 8418TIP3    H249450   3.380   2.180   2.105  0.6093 -0.6379 -0.2158
 8419TIP3   OH249451   1.222   5.839   2.933 -0.8508  0.2143  0.2749
 8419TIP3    H149452   1.299   5.784   2.937  1.2028  2.9234  1.0711
 8419TIP3    H249453   1.219   5.871   2.843  0.7229  2.2910  0.8855
 8420TIP3   OH249454   0.906   6.424   1.723  0.7138  0.3874 -0.5294
 8420TIP3    H149455   0.943   6.358   1.782  0.4813  1.5900  1.0244
 8420TIP3    H249456   0.973   6.435   1.655  1.3225 -0.5035 -0.1025
 8421TIP3   OH249457   5.060   1.302   3.206  0.3848 -0.2907  0.2947
 8421TIP3    H149458   5.119   1.239   3.247  0.4149 -0.5855 -0.1849
 8421TIP3    H249459   4.992   1.248   3.165  1.3422 -0.1454 -1.5879
 8422TIP3   OH249460   7.193   3.910   2.254 -0.5685 -0.3313 -0.3135
 8422TIP3    H149461   7.254   3.846   2.291 -0.1155  0.4532  0.3405
 8422TIP3    H249462   7.156   3.955   2.330  0.0642  1.0257 -0.7705
 8423TIP3   OH249463   0.455   5.593   0.909 -0.0380 -0.0403  0.3238
 8423TIP3    H149464   0.530   5.617   0.854 -1.3830  1.2448 -1.0213
 8423TIP3    H249465   0.412   5.676   0.928 -1.1706 -0.7717  1.0355
 8424TIP3   OH249466   3.342   0.741   2.147  0.0547 -0.0490  0.7382
 8424TIP3    H149467   3.376   0.719   2.060 -1.6777 -0.2625  0.0723
 8424TIP3    H249468   3.411   0.714   2.207  0.7363 -1.1709 -0.4932
 8425TIP3   OH249469   5.035   3.386   3.131  0.2682 -0.0704  0.0893
 8425TIP3    H149470   4.968   3.368   3.197 -0.5407  2.3408  0.0031
 8425TIP3    H249471   4.985   3.405   3.052  1.0440  1.5210 -0.0376
 8426TIP3   OH249472   1.408   3.390   1.763  0.0900  0.0182 -0.5801
 8426TIP3    H149473   1.392   3.300   1.790 -0.8836  0.8356  1.8430
 8426TIP3    H249474   1.342   3.408   1.697 -1.5605 -0.2584  0.9216
 8427TIP3   OH249475   0.800   2.037   2.033 -0.0666 -0.2702 -0.0491
 8427TIP3    H149476   0.887   2.024   2.070 -0.4125  2.6196  2.1699
 8427TIP3    H249477   0.799   2.128   2.005 -2.3737 -0.2265 -0.0139
 8428TIP3   OH249478   7.145   7.268   2.311  0.0658  0.2464 -0.2570
 8428TIP3    H149479   7.125   7.353   2.271  2.4083  1.6544  1.3172
 8428TIP3    H249480   7.199   7.224   2.246 -0.9711  0.0157 -0.9914
 8429TIP3   OH249481   3.666   4.298   1.947 -0.0856 -0.3082  0.5028
 8429TIP3    H149482   3.717   4.269   2.023 -0.4080 -2.0765  0.1082
 8429TIP3    H249483   3.626   4.380   1.974  0.3215 -0.5789  2.0108
 8430TIP3   OH249484   6.134   2.220   1.367  0.4156  1.0061  0.0083
 8430TIP3    H149485   6.217   2.194   1.405  0.9698  1.3920 -0.8886
 8430TIP3    H249486   6.117   2.156   1.298  1.1176  2.1750 -1.3085
 8431TIP3   OH249487   1.222   7.315   2.887 -0.3481 -0.4232 -0.3666
 8431TIP3    H149488   1.265   7.324   2.802  1.7267  0.4498  0.7068
 8431TIP3    H249489   1.197   7.404   2.911  0.8073 -0.3666  0.7447
 8432TIP3   OH249490   1.635   6.971   1.151  0.0155  0.2066 -0.1319
 8432TIP3    H149491   1.690   6.954   1.075  0.9146 -1.4866  0.8295
 8432TIP3    H249492   1.554   7.007   1.114 -0.2161 -2.0379 -2.0707
 8433TIP3   OH249493   6.481   0.845   1.383  0.1896  0.1678  0.4663
 8433TIP3    H149494   6.537   0.920   1.361 -0.2058  0.0720 -0.9079
 8433TIP3    H249495   6.409   0.884   1.433  0.4242  0.5715  0.5027
 8434TIP3   OH249496   0.322   3.237   2.918  0.1898 -0.0642 -0.1290
 8434TIP3    H149497   0.278   3.265   2.998  0.0337 -0.7773  0.0478
 8434TIP3    H249498   0.260   3.259   2.848 -0.6137 -1.3222  0.1404
 8435TIP3   OH249499   5.556   4.243   1.392 -0.1183 -0.4088  0.1146
 8435TIP3    H149500   5.591   4.221   1.478 -1.9846 -0.2979  0.9648
 8435TIP3    H249501   5.632   4.271   1.341  1.1097 -0.9793  1.5475
 8436TIP3   OH249502   4.739   2.752   0.929  0.2489 -0.0576 -0.0736
 8436TIP3    H149503   4.775   2.753   1.018 -0.3257 -1.0744  0.1892
 8436TIP3    H249504   4.804   2.799   0.877  1.3436 -0.7300  0.6170
 8437TIP3   OH249505   1.700   5.939   1.291  0.4515  0.3016  0.0911
 8437TIP3    H149506   1.689   6.031   1.315  1.9701  0.4676  0.2449
 8437TIP3    H249507   1.665   5.890   1.366 -2.7069  0.6380 -0.9937
 8438TIP3   OH249508   3.203   3.042   0.783 -0.2295  0.0078 -0.6181
 8438TIP3    H149509   3.266   3.058   0.854 -0.8336  0.1015 -0.0911
 8438TIP3    H249510   3.175   3.129   0.756  0.2471 -0.0137 -1.2167
 8439TIP3   OH249511   0.941   3.164   3.008 -0.2118 -0.2305  0.1436
 8439TIP3    H149512   1.034   3.149   3.022  0.0780  2.0085  0.8888
 8439TIP3    H249513   0.935   3.197   2.918 -0.3896 -0.8796 -0.0959
 8440TIP3   OH249514   3.328   1.226   3.216  0.0859  0.1524  0.1840
 8440TIP3    H149515   3.248   1.176   3.198 -1.1879  0.9298  3.0962
 8440TIP3    H249516   3.398   1.162   3.208 -1.2816 -1.6665  1.6351
 8441TIP3   OH249517   6.183   1.126   0.939 -0.5668 -0.0857 -0.0343
 8441TIP3    H149518   6.245   1.054   0.934 -0.8293 -0.2815 -0.5839
 8441TIP3    H249519   6.137   1.125   0.855  0.1716  1.3919 -0.4994
 8442TIP3   OH249520   4.936   3.855   0.379  0.3936  0.4878 -0.1778
 8442TIP3    H149521   4.907   3.764   0.391 -2.4902  1.4041  0.5354
 8442TIP3    H249522   5.002   3.850   0.310  0.8288 -2.2093  0.3103
 8443TIP3   OH249523   5.298   1.252   0.877 -0.2103  0.4035 -0.0103
 8443TIP3    H149524   5.326   1.164   0.901 -0.7248 -0.2020 -1.4885
 8443TIP3    H249525   5.207   1.258   0.906  0.6226  1.4946  2.6013
 8444TIP3   OH249526   4.345   0.021   1.707 -0.3695 -0.3391  0.5291
 8444TIP3    H149527   4.301   0.058   1.630  0.5198 -0.4428 -0.0574
 8444TIP3    H249528   4.414   0.084   1.727  0.3751 -1.0515  0.2816
 8445TIP3   OH249529   0.468   2.957   0.986 -1.1742  0.0200 -0.1843
 8445TIP3    H149530   0.513   2.882   0.947  0.1753  1.0249 -0.6545
 8445TIP3    H249531   0.491   2.953   1.078  0.3205  0.7625 -0.4862
 8446TIP3   OH249532   0.554   3.382   2.155 -0.0386 -0.6023 -0.7136
 8446TIP3    H149533   0.605   3.456   2.122  1.5226 -1.0021  0.6843
 8446TIP3    H249534   0.620   3.321   2.189 -1.4057 -0.1071  3.3846
 8447TIP3   OH249535   4.917   6.729   1.548 -0.1527  0.0819 -0.4625
 8447TIP3    H149536   4.862   6.682   1.485  1.2141 -0.9573 -0.9208
 8447TIP3    H249537   4.993   6.757   1.497  1.3820 -1.4795  0.8488
 8448TIP3   OH249538   2.072   3.211   1.054  0.6044  0.2999 -0.6766
 8448TIP3    H149539   2.073   3.135   1.113  0.7633 -0.1418 -1.2433
 8448TIP3    H249540   1.982   3.242   1.057  0.3326 -0.4266 -1.0875
 8449TIP3   OH249541   2.623   1.015   1.183 -0.2850  0.1328  0.2099
 8449TIP3    H149542   2.528   1.025   1.180 -0.5699 -2.1940 -1.9923
 8449TIP3    H249543   2.644   0.960   1.108  2.7908  0.1916  0.8770
 8450TIP3   OH249544   3.501   7.240   3.745 -0.1875 -0.0895 -0.5437
 8450TIP3    H149545   3.457   7.162   3.714  0.7790 -0.5399 -0.8222
 8450TIP3    H249546   3.518   7.292   3.666  0.7174 -0.4193 -0.5738
 8451TIP3   OH249547   3.990   4.048   2.453 -0.6053 -0.2287 -0.2842
 8451TIP3    H149548   4.018   3.957   2.467 -1.0224 -0.2635  0.4020
 8451TIP3    H249549   4.034   4.075   2.373 -0.0860 -0.8799 -0.2281
 8452TIP3   OH249550   1.138   3.685   1.943 -0.3743  0.1103  0.0328
 8452TIP3    H149551   1.073   3.673   1.874 -0.7714 -4.4104  0.9412
 8452TIP3    H249552   1.086   3.710   2.020 -0.4196  0.9523 -0.2549
 8453TIP3   OH249553   7.018   1.437   2.377  0.1161 -0.3687 -0.4658
 8453TIP3    H149554   6.977   1.424   2.463  0.4067 -0.4586 -0.3412
 8453TIP3    H249555   7.062   1.522   2.384 -1.0682  0.3108 -1.0013
 8454TIP3   OH249556   2.506   4.340   2.326 -0.1430 -0.3656  0.5850
 8454TIP3    H149557   2.431   4.283   2.312  0.5824 -1.6393  1.5378
 8454TIP3    H249558   2.562   4.326   2.249 -0.8826  0.6125 -0.1414
 8455TIP3   OH249559   0.753   3.219   2.277  0.5556  0.1793 -0.3535
 8455TIP3    H149560   0.777   3.201   2.368 -0.3585  2.5955  0.4524
 8455TIP3    H249561   0.811   3.291   2.251  0.8276 -0.5063 -1.7156
 8456TIP3   OH249562   1.808   3.128   0.871  0.0316 -0.6779 -0.3585
 8456TIP3    H149563   1.788   3.160   0.959  0.9659 -1.2557  0.0846
 8456TIP3    H249564   1.732   3.153   0.818 -1.4491 -2.0022  1.0251
 8457TIP3   OH249565   3.791   3.231   2.799  0.2143 -0.6235 -0.1033
 8457TIP3    H149566   3.705   3.260   2.827  0.2279 -1.1512  0.5111
 8457TIP3    H249567   3.821   3.172   2.868  0.2048 -2.0549 -1.2629
 8458TIP3   OH249568   1.924   2.351   2.767  0.2312  0.6718 -0.3243
 8458TIP3    H149569   1.904   2.440   2.797  1.3379  0.4963  1.0668
 8458TIP3    H249570   1.900   2.351   2.675 -3.0015  1.3850  0.3693
 8459TIP3   OH249571   2.911   6.204   2.417 -0.1412  0.0075 -0.5126
 8459TIP3    H149572   2.944   6.160   2.495 -0.6520 -0.6175 -0.6379
 8459TIP3    H249573   2.817   6.191   2.420 -0.1288 -0.3757 -1.4354
 8460TIP3   OH249574   6.416   3.270   2.252 -0.2177  0.1765 -0.3499
 8460TIP3    H149575   6.348   3.263   2.185  0.1483  0.3747 -0.7437
 8460TIP3    H249576   6.497   3.246   2.208 -0.1033 -0.5719  0.2534
 8461TIP3   OH249577   5.968   5.500   2.995 -0.0401 -0.0975  0.2464
 8461TIP3    H149578   5.907   5.433   2.964 -1.7773  1.5302 -0.0824
 8461TIP3    H249579   5.919   5.547   3.062  0.9857  1.0687  0.2134
 8462TIP3   OH249580   2.413   4.593   2.379  0.2095 -0.0392 -0.0405
 8462TIP3    H149581   2.441   4.504   2.354  0.9691 -0.0816  0.9107
 8462TIP3    H249582   2.416   4.643   2.297  0.1968 -0.7824 -0.5057
 8463TIP3   OH249583   6.303   6.837   0.729 -0.4104  0.1793 -0.5921
 8463TIP3    H149584   6.314   6.829   0.823  2.1361 -1.5458 -0.9364
 8463TIP3    H249585   6.362   6.908   0.703  0.6276 -0.8224 -1.0835
 8464TIP3   OH249586   2.841   3.417   3.116  0.0549  0.0717 -0.4955
 8464TIP3    H149587   2.928   3.455   3.104  0.0024  0.8016  1.1796
 8464TIP3    H249588   2.854   3.323   3.110  0.7186  0.2164 -1.6057
 8465TIP3   OH249589   3.463   5.679   2.673 -0.2721 -0.1532  0.9580
 8465TIP3    H149590   3.382   5.703   2.717 -0.8450  3.2883 -1.5446
 8465TIP3    H249591   3.450   5.708   2.582  3.4047 -0.3196  0.2403
 8466TIP3   OH249592   3.815   3.085   2.572 -0.6602  0.4896 -1.3028
 8466TIP3    H149593   3.795   3.167   2.618 -0.6701  0.4182 -1.1792
 8466TIP3    H249594   3.809   3.018   2.640  0.0963  0.4801 -1.2313
 8467TIP3   OH249595   0.396   5.576   0.508 -0.3214  0.1437 -0.2304
 8467TIP3    H149596   0.302   5.593   0.510 -0.4315 -0.4753  0.2607
 8467TIP3    H249597   0.403   5.481   0.516  0.3502  0.1894 -0.2223
 8468TIP3   OH249598   0.905   4.758   1.201 -0.2298  0.2536 -0.0559
 8468TIP3    H149599   0.843   4.739   1.131  0.2259 -0.0121 -0.3947
 8468TIP3    H249600   0.965   4.683   1.201 -0.1834  0.2814  0.5742
 8469TIP3   OH249601   6.637   5.721   2.656 -0.3150 -0.3043 -0.5096
 8469TIP3    H149602   6.551   5.718   2.615 -0.2255 -2.2693 -0.6429
 8469TIP3    H249603   6.699   5.698   2.586  0.1281 -0.6574 -0.0181
 8470TIP3   OH249604   3.486   2.473   1.148  0.2492 -0.0861 -0.4352
 8470TIP3    H149605   3.502   2.384   1.118  0.0527  0.1608 -1.3087
 8470TIP3    H249606   3.516   2.474   1.238  2.5886 -0.3611 -1.1422
 8471TIP3   OH249607   6.840   4.000   2.088 -0.2998  0.6031 -0.2506
 8471TIP3    H149608   6.747   3.987   2.065 -0.9636  0.5064  2.1993
 8471TIP3    H249609   6.854   3.941   2.161  1.6871  0.7686 -0.4612
 8472TIP3   OH249610   0.614   4.004   1.529  0.1150 -0.1177 -0.0226
 8472TIP3    H149611   0.698   3.981   1.568  0.4567 -0.3540 -0.8809
 8472TIP3    H249612   0.608   3.951   1.450 -0.2620  0.8322 -0.6533
 8473TIP3   OH249613   3.070   7.361   3.485 -0.6684 -0.2836 -0.2064
 8473TIP3    H149614   3.113   7.293   3.434  1.2993 -0.3745  1.4396
 8473TIP3    H249615   3.140   7.420   3.512 -1.5143 -0.3365  2.4790
 8474TIP3   OH249616   5.312   1.781   2.924  0.2535  0.9473  0.0996
 8474TIP3    H149617   5.371   1.843   2.880  0.4084  0.3570 -0.5426
 8474TIP3    H249618   5.226   1.801   2.889  0.1200  1.5253  0.7216
 8475TIP3   OH249619   1.689   6.179   0.541  0.1918  0.0573 -0.3490
 8475TIP3    H149620   1.702   6.151   0.450  1.2597 -0.8098  0.0487
 8475TIP3    H249621   1.775   6.166   0.582 -0.7801 -1.5370  1.3052
 8476TIP3   OH249622   0.645   3.010   0.555  0.2021  0.9261  0.5306
 8476TIP3    H149623   0.622   3.062   0.478  0.1238 -1.6331 -1.3199
 8476TIP3    H249624   0.627   3.067   0.629  0.2519  3.5121 -1.3306
 8477TIP3   OH249625   1.389   4.403   1.429 -0.4392  0.5776 -0.2396
 8477TIP3    H149626   1.356   4.484   1.389 -0.2621 -0.3933 -2.4946
 8477TIP3    H249627   1.477   4.393   1.394 -1.1897 -1.6336 -1.7022
 8478TIP3   OH249628   1.416   7.484   2.242 -0.2342 -0.0079  0.0582
 8478TIP3    H149629   1.441   7.575   2.259  1.3117 -0.6505  1.5911
 8478TIP3    H249630   1.487   7.433   2.281 -1.2105 -1.8858 -0.5242
 8479TIP3   OH249631   4.110   4.943   2.611  0.0704  0.0049  0.0393
 8479TIP3    H149632   4.059   4.920   2.688 -1.0818  1.9722 -0.0485
 8479TIP3    H249633   4.185   4.993   2.644 -0.4416  0.8785 -0.0751
 8480TIP3   OH249634   1.600   1.464   3.371 -0.1829 -0.0961  0.1506
 8480TIP3    H149635   1.520   1.438   3.324 -0.8821 -1.9131  2.1661
 8480TIP3    H249636   1.568   1.521   3.441  0.1790 -1.1013  1.1729
 8481TIP3   OH249637   5.334   0.652   1.990 -0.5463 -0.1569  0.2166
 8481TIP3    H149638   5.322   0.640   1.896 -1.2123  1.5259  0.0583
 8481TIP3    H249639   5.426   0.628   2.006  0.1349  1.3079 -1.2184
 8482TIP3   OH249640   5.510   4.919   2.778  0.1657  0.1584  0.2414
 8482TIP3    H149641   5.602   4.946   2.781  0.2531 -0.2297  1.6991
 8482TIP3    H249642   5.506   4.839   2.830 -1.0336  0.2556  0.3327
 8483TIP3   OH249643   4.578   5.398   2.918 -0.2574 -0.0976 -0.5011
 8483TIP3    H149644   4.505   5.450   2.953 -0.1582  0.5899 -1.2924
 8483TIP3    H249645   4.652   5.458   2.919  0.6296 -1.1395  1.4082
 8484TIP3   OH249646   7.083   4.544   1.125  0.5745 -0.0286 -0.4407
 8484TIP3    H149647   7.010   4.587   1.080  0.7163  0.5287 -0.1411
 8484TIP3    H249648   7.042   4.487   1.190  0.4100  0.4483 -0.1251
 8485TIP3   OH249649   1.795   4.460   0.883 -0.1125 -0.2923  0.7234
 8485TIP3    H149650   1.781   4.537   0.937 -2.4508 -0.5871  0.6491
 8485TIP3    H249651   1.715   4.453   0.830  1.1609 -1.2610 -1.1910
 8486TIP3   OH249652   5.700   4.230   2.250  0.3855  0.7972 -0.1119
 8486TIP3    H149653   5.639   4.304   2.249  0.4906  0.8886  0.1748
 8486TIP3    H249654   5.773   4.258   2.195  1.4421  1.7753  1.7196
 8487TIP3   OH249655   5.363   4.811   1.045  0.1832  0.0112  0.7148
 8487TIP3    H149656   5.445   4.785   1.086  0.1083 -0.2504  0.6962
 8487TIP3    H249657   5.390   4.874   0.977  0.2832  0.6398  1.3233
 8488TIP3   OH249658   6.976   7.512   1.726 -0.4084 -0.0728 -0.0491
 8488TIP3    H149659   7.071   7.522   1.730 -0.4340  0.7236 -0.9688
 8488TIP3    H249660   6.949   7.507   1.817  0.8043 -3.8197  0.2631
 8489TIP3   OH249661   6.614   1.330   1.803 -0.2433 -0.1068 -0.3793
 8489TIP3    H149662   6.530   1.328   1.850 -0.4714 -0.0442 -0.7793
 8489TIP3    H249663   6.608   1.408   1.748  0.2227  0.0939 -0.1449
 8490TIP3   OH249664   4.228   6.049   0.444  0.5225  0.1729  0.1547
 8490TIP3    H149665   4.134   6.059   0.456  0.4877  1.2206 -0.7707
 8490TIP3    H249666   4.249   6.107   0.370  1.6895 -0.9898 -0.4767
 8491TIP3   OH249667   4.910   0.363   1.103  0.4342 -0.2047  0.3431
 8491TIP3    H149668   4.954   0.290   1.060 -0.5272 -0.2303 -0.6533
 8491TIP3    H249669   4.960   0.440   1.078  0.8134 -0.4027  0.4928
 8492TIP3   OH249670   7.503   0.216   1.933  0.7247 -0.1048 -0.3110
 8492TIP3    H149671   7.483   0.308   1.950  2.0038  0.0047  0.8864
 8492TIP3    H249672   7.501   0.175   2.020  0.4405 -1.1534 -0.7975
 8493TIP3   OH249673   1.395   1.681   1.848  1.0007 -0.6408 -0.1899
 8493TIP3    H149674   1.383   1.680   1.753  0.1515  1.4189 -0.1511
 8493TIP3    H249675   1.488   1.659   1.860  1.7642  1.4767 -1.6717
 8494TIP3   OH249676   4.056   6.892   1.432  0.3820 -0.0767 -0.0978
 8494TIP3    H149677   4.111   6.845   1.369 -1.9377  1.0246 -3.1937
 8494TIP3    H249678   3.971   6.850   1.426  0.0370  0.1457  2.3263
 8495TIP3   OH249679   2.153   1.351   1.709  0.0097 -0.0537  0.1218
 8495TIP3    H149680   2.146   1.300   1.629 -0.2824  0.1893 -0.0086
 8495TIP3    H249681   2.063   1.357   1.742  0.2361 -0.8951  0.9399
 8496TIP3   OH249682   5.741   5.675   1.439 -0.2966 -0.0376  0.5246
 8496TIP3    H149683   5.667   5.632   1.395 -1.3963 -1.1077  3.1816
 8496TIP3    H249684   5.713   5.681   1.530  1.5601  2.6910  1.0038
 8497TIP3   OH249685   3.079   5.129   2.863 -0.0228  0.0735 -0.0384
 8497TIP3    H149686   3.030   5.192   2.809  1.1725  0.1866 -1.0186
 8497TIP3    H249687   3.103   5.060   2.802  0.8553 -0.0851  0.4844
 8498TIP3   OH249688   1.771   1.335   2.292 -0.1795  0.2490 -0.8358
 8498TIP3    H149689   1.790   1.244   2.268  1.6321  0.6882 -1.1781
 8498TIP3    H249690   1.827   1.352   2.368 -0.8073  0.9740 -0.5228
 8499TIP3   OH249691   2.968   7.514   0.372 -0.7267  0.9474  0.7328
 8499TIP3    H149692   2.886   7.562   0.362 -1.2998 -0.0285  0.5580
 8499TIP3    H249693   2.942   7.422   0.371  0.3134  0.6294  1.2607
 8500TIP3   OH249694   7.412   6.203   0.458 -0.6242 -0.1224 -0.7301
 8500TIP3    H149695   7.402   6.117   0.417 -1.0179  1.1223 -3.4076
 8500TIP3    H249696   7.503   6.228   0.440 -0.8236  0.4704 -0.9565
 8501TIP3   OH249697   1.704   1.199   0.547 -0.1479 -0.3151  0.0709
 8501TIP3    H149698   1.759   1.233   0.618  1.5105  0.4541 -1.5158
 8501TIP3    H249699   1.653   1.275   0.519 -1.7974 -0.9235  1.2393
 8502TIP3   OH249700   5.833   7.506   2.399  0.2379  0.4123  0.5912
 8502TIP3    H149701   5.863   7.572   2.337 -2.8671  0.7599 -0.7183
 8502TIP3    H249702   5.821   7.427   2.346  0.2015 -0.0925  1.3363
 8503TIP3   OH249703   5.222   5.438   1.777 -0.1203  0.2672  0.9863
 8503TIP3    H149704   5.214   5.348   1.808 -0.4071 -0.9571 -2.1768
 8503TIP3    H249705   5.148   5.483   1.817 -1.7629 -1.7182  0.4097
 8504TIP3   OH249706   2.819   1.888   2.936  0.3791 -0.2929  0.9440
 8504TIP3    H149707   2.841   1.981   2.941  1.1350 -0.5174  2.3372
 8504TIP3    H249708   2.820   1.858   3.027  0.2323 -1.6920  0.5115
 8505TIP3   OH249709   6.675   7.230   0.940 -0.3150  0.3989 -0.3863
 8505TIP3    H149710   6.611   7.300   0.929 -1.0300  0.2066  1.9634
 8505TIP3    H249711   6.736   7.263   1.005 -0.0150 -0.7087 -0.0775
 8506TIP3   OH249712   2.132   6.699   3.071 -0.2405  0.2671  0.1325
 8506TIP3    H149713   2.150   6.631   3.006 -1.5750  0.3257 -0.3383
 8506TIP3    H249714   2.177   6.777   3.038 -0.9535  0.3146 -0.7712
 8507TIP3   OH249715   1.745   6.664   2.695 -0.4867  0.1536  0.2860
 8507TIP3    H149716   1.711   6.732   2.637  0.0297  0.2463  0.0902
 8507TIP3    H249717   1.797   6.608   2.637 -0.1013  0.1536  0.6366
 8508TIP3   OH249718   6.554   3.029   1.520  0.2353 -0.2602  0.4797
 8508TIP3    H149719   6.503   3.040   1.440 -1.2966 -2.6996  1.0271
 8508TIP3    H249720   6.635   2.986   1.491  0.9548  1.3486 -0.0497
 8509TIP3   OH249721   5.933   2.091   1.537  0.2093 -0.0771  0.1436
 8509TIP3    H149722   5.970   2.153   1.475  0.0762  2.5816  2.5333
 8509TIP3    H249723   5.839   2.090   1.518  0.4713 -1.2329 -1.2398
 8510TIP3   OH249724   7.174   4.835   2.201 -0.2821  0.2971 -0.2276
 8510TIP3    H149725   7.231   4.904   2.168  1.1744 -0.6013  0.3000
 8510TIP3    H249726   7.156   4.860   2.291 -1.5885  1.0896 -0.6818
 8511TIP3   OH249727   2.081   6.504   1.609  0.0409  0.2775 -0.4477
 8511TIP3    H149728   2.163   6.544   1.580  0.6131  0.7704  1.6702
 8511TIP3    H249729   2.107   6.446   1.680 -1.2388 -1.1436 -1.0930
 8512TIP3   OH249730   0.671   1.351   2.833 -0.6886 -0.0571  0.5543
 8512TIP3    H149731   0.648   1.343   2.925  1.1160 -1.4525  0.9395
 8512TIP3    H249732   0.595   1.317   2.786 -0.7024 -1.6487  1.6396
 8513TIP3   OH249733   3.316   3.616   2.465  0.1261  0.1188 -0.1490
 8513TIP3    H149734   3.231   3.656   2.486  0.5634  0.7777  0.3733
 8513TIP3    H249735   3.293   3.543   2.407 -0.8839 -0.2523  0.6750
 8514TIP3   OH249736   5.468   1.378   1.721 -0.2072  0.0609 -0.4774
 8514TIP3    H149737   5.559   1.363   1.694 -0.0493  3.2393 -2.1924
 8514TIP3    H249738   5.418   1.378   1.640 -2.0995 -2.7651  0.5139
 8515TIP3   OH249739   0.892   6.707   0.776  0.0255 -0.6876  0.1989
 8515TIP3    H149740   0.914   6.633   0.719  0.3419 -0.2567 -0.2511
 8515TIP3    H249741   0.818   6.749   0.733  0.6863  0.0332 -0.2652
 8516TIP3   OH249742   5.766   6.876   1.738  0.0302 -0.3547  0.5409
 8516TIP3    H149743   5.842   6.821   1.758  0.7473  0.1821 -0.5731
 8516TIP3    H249744   5.800   6.941   1.677 -1.0027  0.7992  1.1587
 8517TIP3   OH249745   1.067   6.018   0.593  0.6758 -0.7022  0.0024
 8517TIP3    H149746   1.042   5.957   0.662 -1.6922 -1.7736 -1.6893
 8517TIP3    H249747   1.156   5.992   0.569  1.0467 -1.1271  1.7472
 8518TIP3   OH249748   2.254   1.254   2.417 -0.1189 -0.5211  0.4931
 8518TIP3    H149749   2.176   1.232   2.366 -1.2957 -0.2508  2.1167
 8518TIP3    H249750   2.312   1.178   2.407 -1.6329 -1.8192  1.2148
 8519TIP3   OH249751   2.022   0.737   2.536 -0.0784 -0.1507  0.2474
 8519TIP3    H149752   1.982   0.656   2.504 -0.3607 -0.0256  0.2847
 8519TIP3    H249753   1.972   0.759   2.614 -0.1485  0.1857  0.1081
 8520TIP3   OH249754   3.340   6.666   0.858  0.1290 -0.5808  0.0800
 8520TIP3    H149755   3.262   6.682   0.805  0.0066 -1.4816 -0.0286
 8520TIP3    H249756   3.413   6.695   0.803 -0.1242  0.5626  0.3046
 8521TIP3   OH249757   4.724   1.139   2.082 -0.4177 -0.4613  0.5371
 8521TIP3    H149758   4.811   1.177   2.067 -1.2481  1.5249  0.3490
 8521TIP3    H249759   4.724   1.113   2.174  0.1226  0.2850  0.7560
 8522TIP3   OH249760   5.146   0.650   1.509 -0.6891  0.7024 -0.1497
 8522TIP3    H149761   5.166   0.667   1.417  1.2566 -0.4236  0.0144
 8522TIP3    H249762   5.189   0.720   1.557  0.3325 -0.0069  0.0116
 8523TIP3   OH249763   4.199   3.621   2.346 -0.1787  0.2571 -0.0368
 8523TIP3    H149764   4.199   3.537   2.393  0.0215  1.1513  1.6598
 8523TIP3    H249765   4.270   3.613   2.282  0.6008 -0.4696  0.8794
 8524TIP3   OH249766   5.065   3.610   0.485  0.0761  0.0265 -0.3726
 8524TIP3    H149767   5.081   3.664   0.563 -2.0163  0.2019  0.0040
 8524TIP3    H249768   5.048   3.522   0.520  0.5183 -0.2246 -0.7658
 8525TIP3   OH249769   4.651   2.043   0.794 -0.4785  0.3763 -0.2541
 8525TIP3    H149770   4.566   2.012   0.827  0.1146  0.1710  1.1351
 8525TIP3    H249771   4.669   2.121   0.846  0.8024 -0.3357  0.3989
 8526TIP3   OH249772   2.419   1.980   1.743  0.4016 -0.8457  0.4550
 8526TIP3    H149773   2.363   1.940   1.810 -0.7377 -2.1150 -1.1646
 8526TIP3    H249774   2.507   1.950   1.765 -0.0931 -2.1454  0.7867
 8527TIP3   OH249775   0.332   4.431   3.001 -0.8751  0.3389 -0.1455
 8527TIP3    H149776   0.377   4.351   2.974 -0.4979  0.1194  1.0688
 8527TIP3    H249777   0.289   4.462   2.922 -1.0651 -1.0967 -0.6392
 8528TIP3   OH249778   4.006   3.005   2.105  0.3584 -0.6475  0.2034
 8528TIP3    H149779   3.975   3.030   2.191  1.3036 -0.7264  0.5766
 8528TIP3    H249780   4.080   3.063   2.087 -0.4211  0.0301 -0.9796
 8529TIP3   OH249781   4.083   6.470   2.130  0.2347 -0.1981 -0.0322
 8529TIP3    H149782   4.072   6.561   2.105  0.1840 -0.4649 -1.0220
 8529TIP3    H249783   4.153   6.437   2.073  0.2180 -0.7876  0.2746
 8530TIP3   OH249784   0.377   2.930   2.899  0.0381  0.0270  0.1406
 8530TIP3    H149785   0.346   2.954   2.986 -0.8569 -1.0012  0.1232
 8530TIP3    H249786   0.471   2.948   2.901  0.5346 -2.2188  2.1726
 8531TIP3   OH249787   7.354   4.108   1.673 -0.0074 -0.4316  0.1642
 8531TIP3    H149788   7.417   4.180   1.681 -1.0837  0.6682 -0.8853
 8531TIP3    H249789   7.324   4.093   1.763 -0.1228  0.7679  0.3475
 8532TIP3   OH249790   2.561   3.002   1.978  0.6530 -0.3631 -0.3712
 8532TIP3    H149791   2.541   2.991   2.071  0.0727  0.6565 -0.3539
 8532TIP3    H249792   2.487   2.964   1.932  1.1017 -1.1750 -0.4283
 8533TIP3   OH249793   6.037   2.941   2.672 -0.3364  0.1517 -0.1418
 8533TIP3    H149794   6.075   2.904   2.752 -0.7393 -0.7019 -0.3256
 8533TIP3    H249795   5.953   2.895   2.663 -0.2196  0.1151 -1.1387
 8534TIP3   OH249796   4.103   1.830   2.523  0.2727 -0.8284 -0.2427
 8534TIP3    H149797   4.168   1.768   2.492 -0.0493 -0.4835 -1.7036
 8534TIP3    H249798   4.130   1.852   2.612  1.2518 -1.8677 -0.2688
 8535TIP3   OH249799   2.130   6.359   3.274 -0.4652 -0.0639  0.2892
 8535TIP3    H149800   2.091   6.272   3.280  1.3402 -0.9296 -0.1606
 8535TIP3    H249801   2.224   6.344   3.264 -0.0823  1.9396  0.3982
 8536TIP3   OH249802   0.112   7.231   1.702  0.3507  0.3808 -0.1170
 8536TIP3    H149803   0.191   7.200   1.746 -0.4692  0.2410  1.3280
 8536TIP3    H249804   0.106   7.177   1.623  0.8475 -0.7263  0.5731
 8537TIP3   OH249805   5.354   1.674   2.079 -0.2413  0.2315  0.5975
 8537TIP3    H149806   5.413   1.699   2.150  0.7965 -1.2458  0.2967
 8537TIP3    H249807   5.411   1.668   2.002 -1.2025  0.9900 -0.1975
 8538TIP3   OH249808   6.085   1.116   2.468  0.0872  0.5821 -0.8100
 8538TIP3    H149809   6.174   1.150   2.454  0.4116 -0.1092 -0.5138
 8538TIP3    H249810   6.054   1.094   2.380 -0.2473  1.9047 -1.0351
 8539TIP3   OH249811   1.622   5.883   1.017  0.1511  0.8659  0.2530
 8539TIP3    H149812   1.645   5.890   1.109 -1.6323  2.8865  0.6296
 8539TIP3    H249813   1.528   5.866   1.017  0.5662 -2.0725 -1.2200
 8540TIP3   OH249814   1.078   5.707   1.445  0.4505  0.5828 -0.0129
 8540TIP3    H149815   1.114   5.730   1.531  0.3440  1.4354 -0.1852
 8540TIP3    H249816   0.997   5.758   1.438  1.2559  1.7551 -1.2624
 8541TIP3   OH249817   1.538   7.319   3.199  0.3792 -0.6605  0.4075
 8541TIP3    H149818   1.467   7.272   3.155 -0.3226  0.6568  0.0853
 8541TIP3    H249819   1.498   7.400   3.230  1.1721 -0.9605  2.3616
 8542TIP3   OH249820   3.853   3.033   1.826  0.3935 -0.4025 -0.6610
 8542TIP3    H149821   3.884   2.953   1.867  3.6190 -0.0681 -2.1288
 8542TIP3    H249822   3.802   3.004   1.750 -2.0509 -0.9774  1.1032
 8543TIP3   OH249823   0.158   1.638   1.489 -0.0332 -0.7568  0.6953
 8543TIP3    H149824   0.109   1.567   1.529 -0.5944 -0.3889  0.6751
 8543TIP3    H249825   0.235   1.596   1.450 -0.8257 -1.4881 -0.1194
 8544TIP3   OH249826   4.602   5.728   2.136 -0.6622 -0.3926  0.0972
 8544TIP3    H149827   4.591   5.756   2.045 -1.6881 -0.2037  0.2651
 8544TIP3    H249828   4.664   5.790   2.173 -0.6024 -0.1808 -0.3455
 8545TIP3   OH249829   3.608   2.235   2.520 -0.1409  0.1382  0.3913
 8545TIP3    H149830   3.663   2.212   2.445 -2.2226  0.8931 -1.4558
 8545TIP3    H249831   3.541   2.166   2.523 -0.8429  0.8134  0.7176
 8546TIP3   OH249832   1.430   3.186   2.489 -0.1312  0.0354  0.1751
 8546TIP3    H149833   1.508   3.179   2.544  0.7497  1.9693 -0.7156
 8546TIP3    H249834   1.420   3.280   2.475 -2.0374 -0.2441 -0.5827
 8547TIP3   OH249835   5.874   0.766   0.526  0.1321  0.0465  0.6430
 8547TIP3    H149836   5.924   0.702   0.476  0.5421 -0.1193  1.2460
 8547TIP3    H249837   5.785   0.729   0.529  0.0523  0.1724 -0.1397
 8548TIP3   OH249838   4.995   6.486   2.960 -0.1600  0.4880  0.2148
 8548TIP3    H149839   5.060   6.475   2.891 -0.7194  0.3904 -0.3063
 8548TIP3    H249840   5.045   6.521   3.035  0.3887  0.9289 -0.3444
 8549TIP3   OH249841   6.698   6.182   3.017  0.3246  0.1756  0.1505
 8549TIP3    H149842   6.760   6.253   3.036 -0.7368  1.3896 -0.7334
 8549TIP3    H249843   6.753   6.105   3.003  1.6414  1.1967 -0.5625
 8550TIP3   OH249844   6.016   3.177   7.465 -0.1406  0.2019  0.2511
 8550TIP3    H149845   6.071   3.100   7.477  0.1537  0.1126 -1.3585
 8550TIP3    H249846   5.981   3.166   7.376 -1.1091  1.2928  0.4822
 8551TIP3   OH249847   1.066   4.246   2.458 -0.6331 -0.0458  0.2308
 8551TIP3    H149848   1.031   4.189   2.526  1.0764 -2.5637 -0.8409
 8551TIP3    H249849   1.012   4.226   2.381 -0.3319  0.1421 -0.0297
 8552TIP3   OH249850   3.553   2.280   0.497 -0.2378  0.2114  0.1205
 8552TIP3    H149851   3.501   2.343   0.548 -0.3891  0.8812 -0.8310
 8552TIP3    H249852   3.522   2.291   0.408  2.7520  1.9627 -0.8506
 8553TIP3   OH249853   0.140   1.885   1.664  0.1227 -0.3754  0.2958
 8553TIP3    H149854   0.060   1.928   1.692 -0.6653 -0.3166 -1.7978
 8553TIP3    H249855   0.110   1.806   1.619  1.2264 -0.3973 -0.4658
 8554TIP3   OH249856   2.823   0.180   2.927 -0.2273  0.7490  0.3981
 8554TIP3    H149857   2.810   0.088   2.949  0.0113  0.6620  0.1817
 8554TIP3    H249858   2.887   0.211   2.991  1.5166  0.1451 -0.9517
 8555TIP3   OH249859   1.697   6.691   3.627  0.0241  0.2161  0.3318
 8555TIP3    H149860   1.610   6.717   3.597 -0.1040  1.0924  1.3858
 8555TIP3    H249861   1.682   6.611   3.677 -0.5661  1.5052  2.3728
 8556TIP3   OH249862   3.387   3.215   2.652  0.0656 -0.4931  0.2213
 8556TIP3    H149863   3.346   3.220   2.566  1.5065 -0.8741 -0.5112
 8556TIP3    H249864   3.397   3.122   2.669  0.8286 -0.4040  0.2808
 8557TIP3   OH249865   3.550   6.715   0.679 -0.1383  0.1069  0.2266
 8557TIP3    H149866   3.632   6.722   0.728 -0.1780  1.6850  0.1322
 8557TIP3    H249867   3.573   6.741   0.590 -0.1403 -2.4118 -0.5928
 8558TIP3   OH249868   4.505   4.343   0.402 -0.2489  0.3215  0.4761
 8558TIP3    H149869   4.514   4.424   0.352  0.6671  0.9595  1.6322
 8558TIP3    H249870   4.547   4.361   0.486 -1.2102 -0.9208  1.2647
 8559TIP3   OH249871   6.002   4.609   1.354 -0.0700 -0.6211  0.0427
 8559TIP3    H149872   5.981   4.619   1.261  1.9344  0.1048 -0.3672
 8559TIP3    H249873   5.917   4.612   1.397 -1.1376 -1.8818 -1.8236
 8560TIP3   OH249874   4.456   3.167   2.337 -0.3510 -0.3867 -0.3332
 8560TIP3    H149875   4.445   3.072   2.341  2.5121 -0.8489 -1.3233
 8560TIP3    H249876   4.493   3.183   2.250  1.8189  1.2751  0.7881
 8561TIP3   OH249877   1.176   2.840   0.571 -0.1239  0.1609  0.1748
 8561TIP3    H149878   1.100   2.899   0.567  0.2783  0.6293 -1.3781
 8561TIP3    H249879   1.249   2.897   0.596 -0.1606 -0.1648  1.0457
 8562TIP3   OH249880   1.938   5.722   9.307  0.1917 -0.2121  0.2858
 8562TIP3    H149881   2.008   5.657   9.299 -0.2567 -0.8422  1.2941
 8562TIP3    H249882   1.944   5.753   9.397 -0.5555  0.0475  0.2499
 8563TIP3   OH249883   0.445   1.131   1.139 -0.1806 -0.6451  0.1605
 8563TIP3    H149884   0.426   1.102   1.050  0.6625  0.7209 -0.4949
 8563TIP3    H249885   0.472   1.052   1.185 -0.2515 -1.3018 -0.9000
 8564TIP3   OH249886   4.765   4.781   1.491 -0.2460 -0.0909  0.0199
 8564TIP3    H149887   4.842   4.753   1.540 -0.4620  1.2061  1.1915
 8564TIP3    H249888   4.692   4.738   1.535 -0.4341  1.0158  0.8420
 8565TIP3   OH249889   5.706   3.887   1.795  0.7182 -0.1889 -0.3924
 8565TIP3    H149890   5.619   3.867   1.760  1.0458 -1.9968 -0.2682
 8565TIP3    H249891   5.692   3.962   1.853 -0.0915  1.9664 -3.1649
 8566TIP3   OH249892   7.104   6.203   1.198 -0.0174 -0.1608 -0.1788
 8566TIP3    H149893   7.106   6.259   1.121 -0.5570 -1.3345 -1.0883
 8566TIP3    H249894   7.073   6.118   1.165 -1.3704 -0.3870  1.5318
 8567TIP3   OH249895   4.549   1.378   2.576  0.2790 -0.3942  0.1837
 8567TIP3    H149896   4.621   1.316   2.571 -1.5301 -2.4724 -2.1484
 8567TIP3    H249897   4.506   1.359   2.660  0.7488 -1.0912  0.2663
 8568TIP3   OH249898   3.706   4.739   0.770  0.4603  0.2816 -0.1206
 8568TIP3    H149899   3.736   4.648   0.773 -1.7091 -0.5327 -0.6776
 8568TIP3    H249900   3.619   4.733   0.730  0.0272  2.5562  0.3767
 8569TIP3   OH249901   6.782   2.474   0.587  0.2293  0.1011  0.1290
 8569TIP3    H149902   6.856   2.497   0.530 -0.2631  0.9376 -0.1904
 8569TIP3    H249903   6.710   2.527   0.555 -0.3931 -0.3615  0.7398
 8570TIP3   OH249904   2.746   0.689   1.916 -0.0342 -0.2388 -0.1575
 8570TIP3    H149905   2.701   0.726   1.993  1.2091  1.6634 -0.2688
 8570TIP3    H249906   2.692   0.614   1.890 -2.9921  1.6938 -0.0985
 8571TIP3   OH249907   3.357   5.158   2.298  0.8232  0.8365  0.0394
 8571TIP3    H149908   3.420   5.222   2.265  0.5644  0.7110 -0.7060
 8571TIP3    H249909   3.407   5.076   2.303  0.2787  0.3050 -2.2945
 8572TIP3   OH249910   2.751   6.482   0.419 -0.7278  0.1907  0.4792
 8572TIP3    H149911   2.656   6.483   0.424 -0.7707 -0.9134  0.0844
 8572TIP3    H249912   2.777   6.574   0.429 -1.8074  0.4567  0.9096
 8573TIP3   OH249913   7.234   6.665   1.827  0.2897 -0.0080  0.4582
 8573TIP3    H149914   7.250   6.720   1.904 -0.3546 -0.4087  0.8934
 8573TIP3    H249915   7.282   6.707   1.756  1.9273 -0.2938  1.3418
 8574TIP3   OH249916   0.162   5.362   1.525 -0.2185 -0.5946  0.3316
 8574TIP3    H149917   0.186   5.274   1.556 -0.3993  0.0028  2.3153
 8574TIP3    H249918   0.066   5.359   1.517 -0.2595 -0.4619  0.7781
 8575TIP3   OH249919   6.129   0.544   0.913  0.1926 -0.6771  0.6143
 8575TIP3    H149920   6.067   0.616   0.925 -0.9438 -1.4843 -0.1852
 8575TIP3    H249921   6.111   0.485   0.986  2.5358  0.7393  2.4907
 8576TIP3   OH249922   0.824   0.100   0.672 -0.2050  0.1516  0.2543
 8576TIP3    H149923   0.855   0.010   0.661  0.0745 -0.0470  2.3001
 8576TIP3    H249924   0.733   0.090   0.701 -1.3171  0.6675 -2.6704
 8577TIP3   OH249925   5.443   7.227   0.973 -0.4514 -0.1156 -0.4195
 8577TIP3    H149926   5.455   7.307   0.921  0.0378  0.6742  0.8707
 8577TIP3    H249927   5.437   7.258   1.063  1.8697 -1.6825  0.3464
 8578TIP3   OH249928   5.601   6.116   2.860 -0.1102  0.1228 -0.2146
 8578TIP3    H149929   5.690   6.118   2.824  0.3691  0.6989  0.9479
 8578TIP3    H249930   5.602   6.182   2.929 -1.5340  0.3428 -0.3708
 8579TIP3   OH249931   3.961   1.989   3.294 -0.4437 -0.2020 -0.3418
 8579TIP3    H149932   3.903   2.033   3.355  0.3440 -0.0217  0.2988
 8579TIP3    H249933   3.979   1.904   3.334  0.6569  0.2020  0.0607
 8580TIP3   OH249934   2.332   5.928   2.397  0.0722 -0.3822  0.6742
 8580TIP3    H149935   2.286   5.860   2.447 -0.1607 -1.3175 -0.7481
 8580TIP3    H249936   2.419   5.891   2.381  1.3128  1.2308  3.0362
 8581TIP3   OH249937   3.945   5.337   0.574 -0.1440 -0.0224 -0.1455
 8581TIP3    H149938   3.942   5.317   0.667 -3.0872 -1.1838 -0.3677
 8581TIP3    H249939   3.972   5.256   0.532 -1.6637 -0.4226 -0.4185
 8582TIP3   OH249940   0.053   5.522   1.084 -0.0206  0.0383  0.1596
 8582TIP3    H149941   0.088   5.559   1.165 -0.9241  0.8759  0.1724
 8582TIP3    H249942  -0.018   5.580   1.059 -1.5594 -1.7150  0.2394
 8583TIP3   OH249943   0.300   2.698   1.369 -0.2624 -0.0095 -0.2032
 8583TIP3    H149944   0.377   2.642   1.363 -0.1908 -0.0086  0.6475
 8583TIP3    H249945   0.259   2.673   1.452 -1.7734 -0.7671 -1.1432
 8584TIP3   OH249946   5.777   4.871   2.322  0.0536  0.2252  0.1088
 8584TIP3    H149947   5.771   4.792   2.376 -0.5387  0.5031  0.4559
 8584TIP3    H249948   5.736   4.939   2.375 -0.4144  0.5295 -0.6473
 8585TIP3   OH249949   3.393   5.747   2.381  0.1139  0.2263  0.1982
 8585TIP3    H149950   3.401   5.807   2.307 -0.6008  2.0508  1.5078
 8585TIP3    H249951   3.312   5.699   2.365  0.3290  0.1100 -0.5454
 8586TIP3   OH249952   6.882   2.086   2.380  0.3714 -0.3597 -0.0526
 8586TIP3    H149953   6.948   2.029   2.421  0.3551 -1.0475 -0.9579
 8586TIP3    H249954   6.933   2.156   2.339  0.5166 -0.7138 -0.4765
 8587TIP3   OH249955   5.845   7.469   1.150 -0.3573  0.0408  0.3752
 8587TIP3    H149956   5.874   7.429   1.232 -0.5664 -0.0731  0.3940
 8587TIP3    H249957   5.926   7.484   1.101 -0.0384  1.8541  1.3786
 8588TIP3   OH249958   2.584   6.225   1.998 -0.1892 -0.6789  0.3465
 8588TIP3    H149959   2.595   6.300   1.940 -0.8592 -0.0469  1.0330
 8588TIP3    H249960   2.669   6.217   2.043  0.1669 -0.8716 -0.3477
 8589TIP3   OH249961   4.624   2.161   1.933 -0.0210  0.3053 -0.3752
 8589TIP3    H149962   4.711   2.136   1.903 -0.1971  1.7675 -2.3307
 8589TIP3    H249963   4.602   2.097   2.001  1.8993 -1.0706 -0.9733
 8590TIP3   OH249964   4.297   5.715   0.920  0.2490 -0.0137 -0.3060
 8590TIP3    H149965   4.262   5.795   0.961 -0.6873  0.4377 -1.9128
 8590TIP3    H249966   4.390   5.716   0.942 -0.1166  0.4546  1.3747
 8591TIP3   OH249967   2.330   5.793   1.063 -0.8273 -0.5161  0.2784
 8591TIP3    H149968   2.336   5.846   0.984 -1.3047 -0.1501  0.4853
 8591TIP3    H249969   2.236   5.775   1.073 -0.8841  0.2625  1.3001
 8592TIP3   OH249970   1.851   2.993   2.282 -0.0855 -0.0759  0.0220
 8592TIP3    H149971   1.928   3.023   2.329 -0.2652  0.5532 -0.0736
 8592TIP3    H249972   1.873   2.905   2.252  0.4009 -0.0918  0.4250
 8593TIP3   OH249973   4.550   4.033   0.568  0.1904 -0.4269  0.0940
 8593TIP3    H149974   4.560   4.075   0.653  0.1408 -2.3595  1.1060
 8593TIP3    H249975   4.638   4.032   0.531  0.3666 -0.3172  0.5049
 8594TIP3   OH249976   1.556   1.052   0.800 -0.0720  0.0825  0.0589
 8594TIP3    H149977   1.496   1.048   0.726 -0.0451 -0.1145  0.0466
 8594TIP3    H249978   1.609   0.972   0.793 -1.2135 -0.8269  1.2451
 8595TIP3   OH249979   7.389   4.619   2.076  0.3232  0.9452 -0.2613
 8595TIP3    H149980   7.319   4.554   2.068 -0.2705  1.6149 -0.6569
 8595TIP3    H249981   7.384   4.649   2.167  0.6480  0.4080 -0.0544
 8596TIP3   OH249982   7.016   0.590   0.689  0.1966  0.0552 -0.1824
 8596TIP3    H149983   6.993   0.526   0.621  0.1742 -0.2555  0.1105
 8596TIP3    H249984   7.098   0.556   0.726  0.6069  0.6250 -0.5553
 8597TIP3   OH249985   6.722   7.236   0.632 -0.3048 -0.1672 -0.4123
 8597TIP3    H149986   6.643   7.282   0.604 -1.5474 -1.5586  0.6169
 8597TIP3    H249987   6.736   7.264   0.722  0.2579 -0.0997 -0.5159
 8598TIP3   OH249988   3.560   2.827   3.112  1.1690  0.2857  0.8468
 8598TIP3    H149989   3.607   2.749   3.081 -0.8437 -0.5649 -0.2311
 8598TIP3    H249990   3.499   2.793   3.178 -1.1473  0.5273 -1.0479
 8599TIP3   OH249991   1.113   6.993   2.526 -0.1241 -0.1381 -0.7585
 8599TIP3    H149992   1.155   6.924   2.474  0.1603 -0.6524  0.1295
 8599TIP3    H249993   1.086   7.058   2.462  1.4746 -0.0891 -1.4405
 8600TIP3   OH249994   0.102   7.308   0.991  0.5637  0.1932 -0.0006
 8600TIP3    H149995   0.178   7.350   0.951 -0.0804 -0.7161 -2.3633
 8600TIP3    H249996   0.027   7.348   0.948 -0.1635 -1.2494 -0.1345
 8601TIP3   OH249997   0.900   2.597   1.287 -0.1421 -0.2773 -0.2214
 8601TIP3    H149998   0.949   2.530   1.239  0.5423 -0.8961  1.2926
 8601TIP3    H249999   0.965   2.665   1.306 -0.8459  0.9007 -1.8036
 8602TIP3   OH250000   4.233   1.027   1.599  0.1280  0.0134 -0.5080
 8602TIP3    H150001   4.161   1.085   1.623 -0.9661 -1.9088  1.1283
 8602TIP3    H250002   4.190   0.947   1.569  1.5939 -0.6488 -0.9314
 8603TIP3   OH250003   2.248   2.587   1.975  0.1053  0.1376  0.3947
 8603TIP3    H150004   2.332   2.565   2.015 -0.2117  0.7479  1.4413
 8603TIP3    H250005   2.192   2.611   2.049 -0.5445  1.1844 -0.4137
 8604TIP3   OH250006   6.048   5.887   1.733 -0.4931  0.4031  0.4223
 8604TIP3    H150007   6.015   5.820   1.792 -2.2352 -0.7385 -1.7047
 8604TIP3    H250008   5.981   5.956   1.735  0.2451  1.1197  0.9852
 8605TIP3   OH250009   0.649   5.465   0.488 -0.1103 -0.1177 -0.2900
 8605TIP3    H150010   0.614   5.379   0.466 -1.9917  0.2926  0.8863
 8605TIP3    H250011   0.583   5.526   0.458  0.0548  0.7725  1.0822
 8606TIP3   OH250012   1.233   1.813   2.544 -0.4887 -0.2842 -0.5748
 8606TIP3    H150013   1.295   1.750   2.580  0.7869  1.7917  1.1115
 8606TIP3    H250014   1.182   1.843   2.619 -1.7005  0.0407 -1.4842
 8607TIP3   OH250015   4.504   6.233   2.690  0.3902 -0.1093 -0.3576
 8607TIP3    H150016   4.526   6.145   2.719  0.5480  0.4483  1.3873
 8607TIP3    H250017   4.514   6.231   2.595  0.6329 -1.8852 -0.3281
 8608TIP3   OH250018   7.499   7.040   0.542 -0.2576  0.1649 -0.3805
 8608TIP3    H150019   7.556   7.103   0.586  0.6929 -0.3011 -0.9027
 8608TIP3    H250020   7.412   7.079   0.546  0.3320  1.5987 -0.8551
 8609TIP3   OH250021   5.798   0.321   0.561 -0.6583 -0.6228 -0.2423
 8609TIP3    H150022   5.760   0.315   0.473  0.8979  0.1544 -1.0319
 8609TIP3    H250023   5.893   0.323   0.545 -0.3600  2.5021  1.1976
 8610TIP3   OH250024   3.452   6.453   1.489  0.7659 -0.1393  0.8214
 8610TIP3    H150025   3.423   6.380   1.544  0.5874  0.9847  2.2617
 8610TIP3    H250026   3.423   6.429   1.401 -0.6155 -1.1211  1.5033
 8611TIP3   OH250027   4.104   7.028   1.854  0.3863  0.3205  0.0464
 8611TIP3    H150028   4.158   6.968   1.803 -0.2785 -0.6113  0.4170
 8611TIP3    H250029   4.163   7.061   1.922  0.4251 -0.9132  0.6278
 8612TIP3   OH250030   5.528   1.021   2.429  0.5997 -0.2906  0.5354
 8612TIP3    H150031   5.565   0.969   2.358 -0.5260  1.7317 -1.6725
 8612TIP3    H250032   5.603   1.068   2.466  1.3083 -1.9066  1.2551
 8613TIP3   OH250033   0.231   0.434   2.041  0.2981  0.2738  0.2647
 8613TIP3    H150034   0.250   0.353   1.995 -2.0958  0.0181 -0.4263
 8613TIP3    H250035   0.178   0.407   2.116  1.2097  1.0360  1.2118
 8614TIP3   OH250036   1.942   5.036   2.762 -0.2176  0.9127 -0.2297
 8614TIP3    H150037   2.026   5.064   2.725  0.6424 -0.4761  0.5850
 8614TIP3    H250038   1.876   5.070   2.701  0.8404  3.0436 -0.2687
 8615TIP3   OH250039   2.819   6.254   2.928 -0.7568  0.1589 -0.5089
 8615TIP3    H150040   2.883   6.184   2.912 -1.7981 -1.0332  0.3537
 8615TIP3    H250041   2.748   6.235   2.866 -0.4791  1.2242 -1.1683
 8616TIP3   OH250042   2.279   5.076   3.223 -0.1099  0.6113 -0.1407
 8616TIP3    H150043   2.317   5.145   3.277 -1.1534  1.0076  0.1032
 8616TIP3    H250044   2.234   5.122   3.153  0.9705  0.1108 -1.2099
 8617TIP3   OH250045   5.599   1.615   1.470 -0.3058  0.0065  0.3379
 8617TIP3    H150046   5.653   1.594   1.394  2.0139  0.0830  1.8464
 8617TIP3    H250047   5.541   1.685   1.440  1.7700  1.2938 -0.9162
 8618TIP3   OH250048   1.950   1.205   2.527  0.2375  0.5563  0.1116
 8618TIP3    H150049   1.959   1.126   2.472 -2.5289  0.3715 -0.2165
 8618TIP3    H250050   2.027   1.258   2.505  0.6457 -0.7430 -1.8839
 8619TIP3   OH250051   6.499   4.247   1.924  0.0538 -0.0852 -0.2421
 8619TIP3    H150052   6.576   4.291   1.889 -0.2633  0.9259  0.2933
 8619TIP3    H250053   6.481   4.292   2.006  1.2111 -2.8340  1.6629
 8620TIP3   OH250054   2.224   3.729   2.494  0.2143 -0.3609  0.4245
 8620TIP3    H150055   2.255   3.770   2.413 -2.2504  2.8621  0.9190
 8620TIP3    H250056   2.299   3.734   2.554  1.2160 -0.2835 -0.8009
 8621TIP3   OH250057   4.646   7.085   1.535 -0.0090  0.1861 -0.3085
 8621TIP3    H150058   4.626   7.171   1.498  0.8074  0.6467  0.2626
 8621TIP3    H250059   4.597   7.082   1.617 -0.5040 -0.1457 -0.6114
 8622TIP3   OH250060   6.621   7.322   1.774  0.2516 -0.3782  0.2095
 8622TIP3    H150061   6.656   7.252   1.718  0.5528 -0.4250  0.4574
 8622TIP3    H250062   6.561   7.278   1.833 -1.5373 -0.0818 -1.2943
 8623TIP3   OH250063   7.382   1.672   2.209  0.0641  0.2098  0.6338
 8623TIP3    H150064   7.404   1.737   2.142 -3.0338 -1.2469 -2.1136
 8623TIP3    H250065   7.411   1.589   2.172 -2.2626 -0.7101  0.7271
 8624TIP3   OH250066   0.959   7.439   3.355  0.3926 -0.3157 -0.1041
 8624TIP3    H150067   1.048   7.447   3.390 -0.7332 -2.5994  3.9628
 8624TIP3    H250068   0.902   7.456   3.430 -2.6938  0.9825 -2.5279
 8625TIP3   OH250069   6.768   6.109   1.771 -0.4235 -0.1777  0.7948
 8625TIP3    H150070   6.701   6.123   1.704  0.9198  0.1337 -0.5394
 8625TIP3    H250071   6.734   6.038   1.825 -1.6022 -0.3696 -0.1594
 8626TIP3   OH250072   0.809   5.653   3.068  0.1049 -0.2636  0.0771
 8626TIP3    H150073   0.853   5.576   3.032 -0.5654  0.6523 -3.0380
 8626TIP3    H250074   0.723   5.621   3.095 -1.2011 -0.3754 -3.5817
 8627TIP3   OH250075   2.601   2.915   2.892 -0.1939  0.1132  0.4466
 8627TIP3    H150076   2.622   2.824   2.875  0.8941  0.4958 -0.3328
 8627TIP3    H250077   2.538   2.939   2.823  0.7732  0.3953 -0.3606
 8628TIP3   OH250078   7.011   6.155   0.608 -0.3027  0.6420 -0.1986
 8628TIP3    H150079   7.009   6.060   0.615 -1.5968  0.6644 -0.0643
 8628TIP3    H250080   6.944   6.185   0.669 -0.0956  1.6358 -0.4363
 8629TIP3   OH250081   4.748   6.913   0.448  0.3745  0.2422  0.6928
 8629TIP3    H150082   4.718   7.003   0.464  0.2037  0.1532  0.8745
 8629TIP3    H250083   4.821   6.923   0.387  0.5657  0.5301  0.9626
 8630TIP3   OH250084   2.978   2.322   3.980  0.1592  0.2579 -0.6050
 8630TIP3    H150085   3.042   2.393   3.972 -0.8751  1.1522 -1.1830
 8630TIP3    H250086   2.894   2.363   3.963 -0.7465 -0.6308  1.3897
 8631TIP3   OH250087   7.365   2.629   0.476 -0.0747  0.0522 -0.7345
 8631TIP3    H150088   7.377   2.558   0.539  0.8249 -0.0017 -0.9513
 8631TIP3    H250089   7.274   2.623   0.449  0.0237 -1.0902 -0.8345
 8632TIP3   OH250090   1.324   4.263   2.386 -0.4303 -0.1856 -0.4692
 8632TIP3    H150091   1.235   4.248   2.417 -0.7819 -2.4642 -2.3312
 8632TIP3    H250092   1.380   4.226   2.455 -1.0968 -2.4895 -1.0837
 8633TIP3   OH250093   0.490   4.421   1.378  0.2893 -0.2622 -0.3171
 8633TIP3    H150094   0.520   4.361   1.310 -0.1866  1.1220 -1.8176
 8633TIP3    H250095   0.408   4.384   1.409  0.1268 -0.5247 -1.0369
 8634TIP3   OH250096   3.809   5.878   1.674  0.1969  0.2717 -0.1607
 8634TIP3    H150097   3.735   5.903   1.730 -0.2353 -0.5815 -0.3429
 8634TIP3    H250098   3.796   5.785   1.657  0.8161  0.3233 -0.9470
 8635TIP3   OH250099   4.372   2.143   1.775  0.2555  0.3521 -0.1104
 8635TIP3    H150100   4.278   2.132   1.789  0.2329 -0.4140 -0.8141
 8635TIP3    H250101   4.404   2.183   1.857 -0.5287 -0.2027  0.4777
 8636TIP3   OH250102   6.410   2.217   2.493  0.1938 -0.3020 -0.5389
 8636TIP3    H150103   6.460   2.145   2.530  1.0952  1.0762  1.0717
 8636TIP3    H250104   6.339   2.232   2.556  1.2156  1.4993  0.2515
 8637TIP3   OH250105   1.808   0.910   1.797 -0.3568 -0.8976  0.5887
 8637TIP3    H150106   1.772   0.860   1.724 -0.1488 -0.9200  0.5011
 8637TIP3    H250107   1.872   0.968   1.757 -2.3732  1.2613  0.3262
 8638TIP3   OH250108   1.965   3.699   2.653  0.3175 -0.0273  0.5659
 8638TIP3    H150109   2.044   3.707   2.598  0.2702  0.4721  0.5688
 8638TIP3    H250110   1.983   3.753   2.730 -0.7180  1.5755 -0.2404
 8639TIP3   OH250111   2.316   0.318   0.692  0.0211  0.2821  0.2673
 8639TIP3    H150112   2.318   0.250   0.624  0.3411 -0.3786  0.9252
 8639TIP3    H250113   2.361   0.393   0.652  0.9764 -0.3829  0.0509
 8640TIP3   OH250114   7.000   4.246   1.698  0.1928  0.5729 -0.7665
 8640TIP3    H150115   6.980   4.155   1.720 -0.3622  0.8582 -0.0577
 8640TIP3    H250116   6.916   4.292   1.705  0.4909  1.1644 -0.9931
 8641TIP3   OH250117   2.525   3.620   0.489  0.5108  0.4235 -0.5269
 8641TIP3    H150118   2.439   3.661   0.499 -0.0022 -0.4482 -1.1401
 8641TIP3    H250119   2.537   3.614   0.394  0.9545 -0.0460 -0.4445
 8642TIP3   OH250120   3.856   7.410   2.842  0.1075 -0.2664  0.3777
 8642TIP3    H150121   3.814   7.458   2.771  0.3264 -1.0240 -0.2794
 8642TIP3    H250122   3.828   7.455   2.922 -1.1164 -0.1312 -0.1040
 8643TIP3   OH250123   7.052   2.146   1.101  0.3667  0.3576  0.2475
 8643TIP3    H150124   7.018   2.229   1.134 -0.8871  0.5440 -1.3985
 8643TIP3    H250125   7.074   2.163   1.010  0.2980 -1.0502 -0.0519
 8644TIP3   OH250126   1.963   7.106   1.951 -0.6417  0.2222 -0.1828
 8644TIP3    H150127   1.898   7.176   1.960  0.3501  1.0317  0.8652
 8644TIP3    H250128   2.047   7.148   1.968  0.1456 -0.8932 -1.1228
 8645TIP3   OH250129   5.048   6.919   1.047  0.5008 -0.2452  0.5335
 8645TIP3    H150130   5.006   6.928   0.962 -0.9971 -0.6811  1.1790
 8645TIP3    H250131   5.019   6.997   1.096  0.7267 -0.3761  0.8785
 8646TIP3   OH250132   0.231   0.592   2.572 -0.0150 -0.1807  0.3049
 8646TIP3    H150133   0.301   0.533   2.543 -1.9790 -2.4152 -0.1645
 8646TIP3    H250134   0.185   0.616   2.492 -1.4335 -0.9841  0.8503
 8647TIP3   OH250135   1.159   4.575   1.758 -0.3487  0.0932 -0.4485
 8647TIP3    H150136   1.093   4.635   1.723 -1.5591 -1.9387 -1.8799
 8647TIP3    H250137   1.179   4.517   1.684  1.1314 -0.9503  0.7253
 8648TIP3   OH250138   3.707   1.441   1.428 -0.5480 -0.8264  0.1412
 8648TIP3    H150139   3.709   1.532   1.460  0.7274 -0.2161 -1.5032
 8648TIP3    H250140   3.791   1.431   1.383 -1.8042 -1.9114 -2.1185
 8649TIP3   OH250141   5.640   2.834   2.278  0.0008 -0.3561 -0.0656
 8649TIP3    H150142   5.640   2.822   2.183 -2.1477  1.0899 -0.3081
 8649TIP3    H250143   5.570   2.776   2.309  1.3157 -1.5593  0.8173
 8650TIP3   OH250144   4.548   2.079   2.426 -0.0176 -0.1312  0.0405
 8650TIP3    H150145   4.479   2.043   2.481 -0.1866  1.1484  0.7035
 8650TIP3    H250146   4.518   2.166   2.403 -0.4809 -1.0302 -3.1059
 8651TIP3   OH250147   0.988   3.512   2.756 -0.3960 -0.1189  0.6000
 8651TIP3    H150148   1.000   3.486   2.847  0.0369 -2.5124 -0.0784
 8651TIP3    H250149   0.897   3.490   2.736  0.3942 -2.9009 -0.4306
 8652TIP3   OH250150   0.663   2.981   2.661 -0.1664 -0.0474  0.3999
 8652TIP3    H150151   0.719   2.923   2.609  0.0848  0.3704  0.1898
 8652TIP3    H250152   0.587   2.997   2.605 -0.6613 -0.8807  0.8203
 8653TIP3   OH250153   2.779   6.237   3.952 -0.0111 -0.0948  0.1767
 8653TIP3    H150154   2.700   6.276   3.916 -0.9460 -0.3799  1.8268
 8653TIP3    H250155   2.846   6.252   3.885 -1.0505  1.6190 -0.5340
 8654TIP3   OH250156   0.643   0.384   2.678  0.5340 -0.3562 -0.2714
 8654TIP3    H150157   0.659   0.373   2.772  1.7171  0.5195 -0.3451
 8654TIP3    H250158   0.692   0.312   2.638 -0.2202 -0.9126 -0.2172
 8655TIP3   OH250159   2.530   4.479   0.345  0.6779 -0.3418  0.3268
 8655TIP3    H150160   2.455   4.419   0.344  1.3255 -1.1631  0.0292
 8655TIP3    H250161   2.491   4.565   0.328 -0.3092 -0.6105  1.0994
 8656TIP3   OH250162   0.054   7.219   2.217 -0.0265  0.1851  0.7524
 8656TIP3    H150163   0.070   7.283   2.285 -0.7608 -0.3410  1.4403
 8656TIP3    H250164   0.141   7.189   2.190  0.4510  2.7322 -0.8658
 8657TIP3   OH250165   0.188   4.130   3.057 -0.1156 -0.4469  0.3322
 8657TIP3    H150166   0.276   4.167   3.068 -0.2305  0.5721 -1.6061
 8657TIP3    H250167   0.202   4.047   3.012 -0.1522  0.1839 -0.8940
 8658TIP3   OH250168   1.081   0.711   0.436  0.3209  0.1997 -0.4871
 8658TIP3    H150169   1.113   0.732   0.524 -0.9493 -1.1807  0.3320
 8658TIP3    H250170   1.088   0.794   0.389  2.3581  0.6524  0.4588
 8659TIP3   OH250171   6.613   2.804   0.853 -0.1371 -0.0461  0.4632
 8659TIP3    H150172   6.699   2.801   0.894 -0.6322  1.1350  1.6690
 8659TIP3    H250173   6.580   2.714   0.860  0.5413 -0.2615  1.0226
 8660TIP3   OH250174   3.474   2.235   0.976 -0.4654  0.1728 -0.2227
 8660TIP3    H150175   3.502   2.186   0.899 -0.9029 -0.0023 -0.2696
 8660TIP3    H250176   3.424   2.308   0.941 -0.9617 -0.1002 -0.0920
 8661TIP3   OH250177   1.108   0.821   2.100 -0.1461 -0.5395 -0.1842
 8661TIP3    H150178   1.089   0.811   2.007 -0.1292 -1.9222 -0.0484
 8661TIP3    H250179   1.197   0.857   2.103 -0.5387  0.5254 -0.7024
 8662TIP3   OH250180   7.246   4.787   1.741 -0.0939  0.3406  0.2665
 8662TIP3    H150181   7.316   4.821   1.796 -0.1192  1.2998 -0.2703
 8662TIP3    H250182   7.252   4.692   1.751 -0.4496  0.4822  2.3416
 8663TIP3   OH250183   5.126   1.803   1.141  0.3556  0.0964 -0.0028
 8663TIP3    H150184   5.147   1.805   1.047 -1.0526  2.1810 -0.3460
 8663TIP3    H250185   5.186   1.866   1.180 -1.8216  2.4813 -0.2559
 8664TIP3   OH250186   6.110   1.590   2.116  0.0480  0.0974  0.1839
 8664TIP3    H150187   6.112   1.671   2.066  1.0615  0.0674  0.1475
 8664TIP3    H250188   6.125   1.618   2.207 -0.1198 -0.0070  0.2456
 8665TIP3   OH250189   3.466   5.047   3.055 -0.1026  0.1872  0.5817
 8665TIP3    H150190   3.479   4.955   3.035 -2.7209 -0.2853  0.6362
 8665TIP3    H250191   3.479   5.093   2.972 -1.1977 -0.5701 -0.0378
 8666TIP3   OH250192   3.717   0.828   0.481  0.1351 -0.5200  0.1532
 8666TIP3    H150193   3.704   0.752   0.423 -0.5725 -0.0803 -0.2729
 8666TIP3    H250194   3.808   0.820   0.510  0.3521 -1.0218 -0.6259
 8667TIP3   OH250195   4.429   2.318   2.990 -0.2053  0.2961 -0.2985
 8667TIP3    H150196   4.409   2.371   2.913  0.2210  1.0579  0.0941
 8667TIP3    H250197   4.436   2.229   2.957  1.3068  0.7741 -1.4029
 8668TIP3   OH250198   4.812   3.910   1.488  0.2540  0.1827  0.3665
 8668TIP3    H150199   4.780   3.852   1.557 -0.2991  0.5287  0.4091
 8668TIP3    H250200   4.906   3.915   1.502  0.2532 -0.4105  0.5868
 8669TIP3   OH250201   7.436   2.047   1.789 -0.0600 -0.0044 -0.0368
 8669TIP3    H150202   7.420   2.132   1.749  0.7609  0.0360 -0.2952
 8669TIP3    H250203   7.355   1.998   1.775 -0.3240  0.5346 -0.4015
 8670TIP3   OH250204   6.877   3.220   1.296 -0.0051  0.0049 -0.1391
 8670TIP3    H150205   6.854   3.222   1.203 -0.8828  3.2682  0.0066
 8670TIP3    H250206   6.826   3.291   1.334  2.3649  0.5370  2.3370
 8671TIP3   OH250207   4.725   2.339   1.331 -0.4424  0.2932 -0.5042
 8671TIP3    H150208   4.769   2.371   1.410  0.5200 -1.5891 -0.2097
 8671TIP3    H250209   4.648   2.292   1.365 -1.2675  1.3599 -0.8549
 8672TIP3   OH250210   0.329   2.990   1.876 -0.0558 -0.5454  0.3647
 8672TIP3    H150211   0.255   3.048   1.857 -0.2750  0.0033  2.5600
 8672TIP3    H250212   0.404   3.049   1.884 -0.3443 -0.4118  2.9701
 8673TIP3   OH250213   0.525   5.680   2.447  1.3543  0.3829 -0.3283
 8673TIP3    H150214   0.507   5.632   2.528  2.1866 -0.3055 -0.5332
 8673TIP3    H250215   0.533   5.611   2.381  4.2866  0.6266 -0.3324
 8674TIP3   OH250216   6.482   6.623   1.592 -0.1144 -0.1106  0.5771
 8674TIP3    H150217   6.477   6.661   1.504  0.3629 -2.5501 -0.5876
 8674TIP3    H250218   6.576   6.620   1.611 -0.2153  0.3464  1.1521
 8675TIP3   OH250219   2.650   3.856   0.813  0.0712  0.0647  0.0880
 8675TIP3    H150220   2.565   3.872   0.771 -0.0721  1.0390  0.7069
 8675TIP3    H250221   2.631   3.794   0.883 -0.0026 -0.2443 -0.2043
 8676TIP3   OH250222   5.879   6.483   3.329  0.2040  0.2361  0.0702
 8676TIP3    H150223   5.930   6.549   3.282 -0.2897  0.6249  0.0750
 8676TIP3    H250224   5.943   6.415   3.353  1.1718  1.7133  1.9474
 8677TIP3   OH250225   0.579   1.320   1.711  0.5945 -0.0645 -0.1264
 8677TIP3    H150226   0.584   1.387   1.779  0.6667 -0.6032  0.4062
 8677TIP3    H250227   0.508   1.262   1.739  0.0838  0.1612 -0.9304
 8678TIP3   OH250228   3.145   0.460   1.105 -0.1890  0.2394  0.5060
 8678TIP3    H150229   3.129   0.454   1.200 -0.0216 -3.8185  0.4254
 8678TIP3    H250230   3.060   0.441   1.065  0.2124 -0.2038 -0.1453
 8679TIP3   OH250231   6.783   6.460   0.349 -0.0948 -0.2826  0.3867
 8679TIP3    H150232   6.856   6.512   0.382 -0.0367 -1.2347  1.8938
 8679TIP3    H250233   6.820   6.373   0.337 -0.1435 -0.0001 -2.2783
 8680TIP3   OH250234   0.495   2.679   0.592  0.8425  0.2827  0.6614
 8680TIP3    H150235   0.521   2.673   0.684 -0.0408 -1.6209  0.8225
 8680TIP3    H250236   0.516   2.594   0.555  0.4435  0.7581 -0.7007
 8681TIP3   OH250237   2.914   6.133   1.413  0.4821  0.1722  0.4169
 8681TIP3    H150238   2.917   6.228   1.421 -0.1956  0.3479 -1.0966
 8681TIP3    H250239   2.950   6.115   1.325  1.1729 -1.0166  0.9187
 8682TIP3   OH250240   6.168   0.637   2.227 -0.0910  0.0832 -0.6683
 8682TIP3    H150241   6.074   0.621   2.229 -0.1331  0.2292 -1.2679
 8682TIP3    H250242   6.177   0.722   2.186  0.2305  0.8100  0.8246
 8683TIP3   OH250243   6.121   1.466   2.830 -0.5804  0.2442  0.0728
 8683TIP3    H150244   6.080   1.541   2.786  0.6329  1.4172  0.8533
 8683TIP3    H250245   6.091   1.471   2.920 -0.5694 -0.2865  0.1117
 8684TIP3   OH250246   2.746   1.599   1.772 -0.4265  0.1597  0.4164
 8684TIP3    H150247   2.737   1.592   1.677  0.5127  0.6169  0.2902
 8684TIP3    H250248   2.694   1.525   1.806  0.6895 -1.1139 -0.5189
 8685TIP3   OH250249   2.267   1.529   2.398 -0.3044 -0.0108 -0.5706
 8685TIP3    H150250   2.282   1.435   2.403  0.4456  0.1618  2.0301
 8685TIP3    H250251   2.179   1.541   2.433 -0.4155  0.2771 -0.9397
 8686TIP3   OH250252   5.206   3.391   2.137  0.6857  0.4926  0.3901
 8686TIP3    H150253   5.203   3.439   2.221  2.1814 -0.7647  1.2147
 8686TIP3    H250254   5.140   3.434   2.083 -2.1341 -0.1433  3.0090
 8687TIP3   OH250255   3.786   5.252   1.899 -0.1531  0.0402 -0.4563
 8687TIP3    H150256   3.733   5.177   1.922 -0.5158 -0.0180 -1.4490
 8687TIP3    H250257   3.857   5.216   1.845 -0.2079  0.3692 -0.7544
 8688TIP3   OH250258   5.542   2.612   2.700  0.4960  0.2118 -0.3355
 8688TIP3    H150259   5.457   2.588   2.739 -0.0056  2.5140  0.0916
 8688TIP3    H250260   5.519   2.657   2.619  1.3892 -0.2006 -0.8284
 8689TIP3   OH250261   0.698   0.935   2.394  0.3257  0.3251  0.3587
 8689TIP3    H150262   0.760   1.008   2.396  0.5181  0.2141 -0.9544
 8689TIP3    H250263   0.722   0.885   2.316 -1.3589  0.2260 -0.1353
 8690TIP3   OH250264   1.072   3.034   1.063  0.2159  0.4441 -0.0521
 8690TIP3    H150265   1.004   2.971   1.041 -0.5422  1.1782  0.1140
 8690TIP3    H250266   1.129   3.037   0.986  0.4547 -0.6666  0.0657
 8691TIP3   OH250267   7.383   1.273   1.101  0.5870  0.4878  0.6344
 8691TIP3    H150268   7.389   1.179   1.080  0.2764 -0.1831  3.2119
 8691TIP3    H250269   7.437   1.284   1.178  0.5446  2.4540  0.4346
 8692TIP3   OH250270   2.894   5.899   0.339 -0.3570 -0.6030  0.5808
 8692TIP3    H150271   2.804   5.866   0.338  0.1544 -2.0610  0.2913
 8692TIP3    H250272   2.889   5.983   0.293 -1.7961  0.0196  1.7928
 8693TIP3   OH250273   6.221   1.839   1.994  0.3234  0.7147 -0.5640
 8693TIP3    H150274   6.168   1.919   1.982 -1.7590 -0.0594  2.3532
 8693TIP3    H250275   6.284   1.862   2.062  2.8452  1.1155 -2.8768
 8694TIP3   OH250276   4.466   6.590   1.352 -0.4198 -0.4535  0.1373
 8694TIP3    H150277   4.496   6.570   1.264 -1.6364 -1.8649 -0.0089
 8694TIP3    H250278   4.477   6.508   1.400  0.2477  0.3017  1.3278
 8695TIP3   OH250279   4.962   7.210   0.486 -0.3132  0.1074 -0.4420
 8695TIP3    H150280   4.870   7.207   0.511  0.1532 -1.4709  1.3268
 8695TIP3    H250281   4.979   7.123   0.449  0.4915  0.3626 -0.6953
 8696TIP3   OH250282   5.880   6.337   1.504  0.5665  0.4593 -0.0081
 8696TIP3    H150283   5.948   6.318   1.569  0.8952 -1.3170 -0.8204
 8696TIP3    H250284   5.901   6.425   1.472  1.5751  0.5405  0.8362
 8697TIP3   OH250285   7.212   4.655   1.334 -0.2033  0.1546 -0.3198
 8697TIP3    H150286   7.159   4.649   1.413 -0.8924  3.4734 -0.3771
 8697TIP3    H250287   7.160   4.613   1.266 -0.5921 -0.7928  0.5510
 8698TIP3   OH250288   0.453   1.255   2.710  0.9710  0.0612 -0.0930
 8698TIP3    H150289   0.391   1.261   2.783  1.2426 -1.1796  0.2555
 8698TIP3    H250290   0.403   1.286   2.634  0.4107  0.5192  0.4493
 8699TIP3   OH250291   5.044   3.341   1.757 -0.4730  0.1127 -0.4100
 8699TIP3    H150292   5.039   3.246   1.768  0.1659 -0.1667 -2.1166
 8699TIP3    H250293   4.988   3.360   1.682  1.8511  0.5794 -2.1757
 8700TIP3   OH250294   2.004   5.243   1.920  0.1670 -0.2602  0.2839
 8700TIP3    H150295   1.960   5.239   2.005  0.7010 -0.5609  0.5532
 8700TIP3    H250296   2.095   5.221   1.940  0.4483  0.3727 -0.2525
 8701TIP3   OH250297   0.870   0.003   2.213 -0.0045 -0.1065  0.4220
 8701TIP3    H150298   0.964   0.017   2.221 -0.4459  2.3066  3.0870
 8701TIP3    H250299   0.850   0.025   2.122  1.6919  1.9113  0.4669
 8702TIP3   OH250300   3.161   3.800   2.879  0.1680  0.1443 -0.1176
 8702TIP3    H150301   3.072   3.790   2.914 -0.0960 -0.2952 -0.8812
 8702TIP3    H250302   3.154   3.872   2.815  0.5503  0.6651  0.4179
 8703TIP3   OH250303   7.377   6.312   2.305 -0.3813  0.2778 -0.4016
 8703TIP3    H150304   7.371   6.220   2.333  0.7836  0.4278  0.3584
 8703TIP3    H250305   7.448   6.313   2.241 -0.3296  0.6760 -0.3391
 8704TIP3   OH250306   6.820   2.155   2.091  0.9259  0.3886  1.0085
 8704TIP3    H150307   6.907   2.190   2.112  0.4700  1.7739  0.7153
 8704TIP3    H250308   6.759   2.225   2.117  0.0449  0.3401 -0.7706
 8705TIP3   OH250309   3.328   1.133   2.424  0.2647  0.3238  0.1044
 8705TIP3    H150310   3.405   1.077   2.434  0.3702  0.4201 -0.1562
 8705TIP3    H250311   3.264   1.078   2.380 -0.2992 -0.1905  1.4859
 8706TIP3   OH250312   0.204   6.501   1.118  0.7459  0.0809  0.3144
 8706TIP3    H150313   0.272   6.557   1.155 -0.8142  1.4024  1.3583
 8706TIP3    H250314   0.202   6.523   1.025  1.7365  0.0082  0.2699
 8707TIP3   OH250315   3.233   4.377   1.385 -0.4007 -0.0138  0.1710
 8707TIP3    H150316   3.318   4.364   1.427 -0.1454 -0.1780 -0.3846
 8707TIP3    H250317   3.189   4.442   1.438  0.5973  1.0528 -0.2777
 8708TIP3   OH250318   2.525   5.160   1.922 -0.3481 -0.0355  0.1037
 8708TIP3    H150319   2.577   5.237   1.946  0.2719  0.1121 -1.6151
 8708TIP3    H250320   2.562   5.131   1.839 -1.7901 -1.0845 -0.2041
 8709TIP3   OH250321   2.674   2.708   1.710  0.1346 -0.5487  0.2813
 8709TIP3    H150322   2.739   2.689   1.642  1.0362  0.1800  0.9107
 8709TIP3    H250323   2.618   2.776   1.673  1.0850  0.3883  0.5181
 8710TIP3   OH250324   4.697   2.706   2.214 -0.0735  0.2404  0.0653
 8710TIP3    H150325   4.717   2.667   2.129  0.1407  0.3414  0.0668
 8710TIP3    H250326   4.660   2.792   2.193 -0.8917 -0.1072  0.0526
 8711TIP3   OH250327   6.973   2.645   1.485  0.8658 -0.3595 -0.1242
 8711TIP3    H150328   6.991   2.645   1.579  2.4451 -1.3278 -0.3879
 8711TIP3    H250329   6.888   2.602   1.477  0.5449  0.0509  0.8705
 8712TIP3   OH250330   2.266   3.717   0.518  0.2091  0.1100 -0.2371
 8712TIP3    H150331   2.223   3.640   0.556  0.3894 -0.8724 -1.9348
 8712TIP3    H250332   2.200   3.755   0.460  0.8416 -0.0012 -1.0284
 8713TIP3   OH250333   4.999   5.985   2.201 -0.5259  0.3907  0.4679
 8713TIP3    H150334   4.979   6.026   2.117 -0.1452  0.3568  0.3572
 8713TIP3    H250335   5.085   6.021   2.225  0.5905 -1.5057 -0.4070
 8714TIP3   OH250336   1.899   2.014   1.915  0.4632  0.2766 -0.6143
 8714TIP3    H150337   1.841   2.037   1.988 -0.5138 -1.1938 -0.8690
 8714TIP3    H250338   1.962   2.085   1.911  0.1802  0.6902  1.2833
 8715TIP3   OH250339   5.002   4.401   2.666 -0.7841  0.8775  0.5941
 8715TIP3    H150340   5.056   4.439   2.596 -0.5107  0.3956  0.5378
 8715TIP3    H250341   5.024   4.453   2.743 -1.7274  1.9795  0.1571
 8716TIP3   OH250342   3.211   3.589   3.390  0.4568 -0.1812  0.3686
 8716TIP3    H150343   3.121   3.566   3.367  0.5349  0.4460 -0.5996
 8716TIP3    H250344   3.207   3.611   3.483 -0.8018  1.7485 -0.0906
 8717TIP3   OH250345   1.621   3.471   1.282  0.3519  0.6353  0.1657
 8717TIP3    H150346   1.637   3.411   1.355 -0.3056 -1.4405 -1.3143
 8717TIP3    H250347   1.527   3.465   1.266  0.5254  0.7935 -1.0351
 8718TIP3   OH250348   5.944   4.239   2.080  0.1872  0.3429  0.0621
 8718TIP3    H150349   6.001   4.283   2.017 -0.1283  0.0921 -0.4056
 8718TIP3    H250350   5.926   4.154   2.040 -2.2050  1.1668 -0.8220
 8719TIP3   OH250351   6.097   1.510   1.751 -0.5821  0.3241 -0.2811
 8719TIP3    H150352   6.172   1.480   1.802 -0.2368  1.7627  0.1082
 8719TIP3    H250353   6.062   1.431   1.710 -0.0180 -0.6568  1.0592
 8720TIP3   OH250354   6.584   6.966   1.603  0.0290 -0.1537 -0.7896
 8720TIP3    H150355   6.570   7.040   1.545  1.5050  0.4139 -0.4635
 8720TIP3    H250356   6.557   6.890   1.552 -0.6956  0.5152 -1.4291
 8721TIP3   OH250357   3.953   4.198   1.166  0.1227 -0.1440 -0.3702
 8721TIP3    H150358   3.955   4.278   1.219  2.7788 -0.3806  0.0302
 8721TIP3    H250359   4.029   4.148   1.196  0.3982 -1.3528 -2.8378
 8722TIP3   OH250360   0.572   3.084   2.071  0.5457  0.4909 -0.6134
 8722TIP3    H150361   0.643   3.043   2.021  0.1169 -0.1726 -0.6781
 8722TIP3    H250362   0.561   3.029   2.148  2.4867  2.5134  1.2689
 8723TIP3   OH250363   3.803   4.208   2.189 -0.1151  0.6761  0.0310
 8723TIP3    H150364   3.800   4.112   2.186  0.2517  0.5666  1.8632
 8723TIP3    H250365   3.894   4.228   2.211 -0.1802  1.4639 -0.3821
 8724TIP3   OH250366   3.183   1.691   2.219  0.7488 -0.2027 -0.3470
 8724TIP3    H150367   3.153   1.617   2.271  1.4039  0.2522  0.7086
 8724TIP3    H250368   3.135   1.766   2.254  2.7812  0.4850  1.1623
 8725TIP3   OH250369   2.360   6.452   0.985  0.2741 -0.2063 -0.4348
 8725TIP3    H150370   2.340   6.528   1.040 -1.5555 -1.3222  0.5438
 8725TIP3    H250371   2.401   6.489   0.907  1.3087  1.5895  0.8780
 8726TIP3   OH250372   0.388   6.226   1.881  0.2415  0.0479 -0.0312
 8726TIP3    H150373   0.477   6.217   1.913  0.1772 -1.3687 -0.2106
 8726TIP3    H250374   0.377   6.154   1.819 -0.7554  0.7008 -0.6369
 8727TIP3   OH250375   2.084   7.459   3.147 -0.2285  0.4398 -0.5276
 8727TIP3    H150376   2.141   7.489   3.218  0.1080  1.1021 -1.0625
 8727TIP3    H250377   2.077   7.365   3.160  0.3760  0.4579 -0.0100
 8728TIP3   OH250378   5.782   4.453   1.100 -0.5512  0.4780 -0.3912
 8728TIP3    H150379   5.694   4.467   1.066 -1.1138 -0.4340  0.6132
 8728TIP3    H250380   5.818   4.540   1.112 -2.3960  1.0209  1.8792
 8729TIP3   OH250381   4.321   7.161   1.940  0.3583 -0.2602 -0.0158
 8729TIP3    H150382   4.314   7.251   1.972  0.0379  0.3853 -1.7691
 8729TIP3    H250383   4.361   7.113   2.012  1.3662  1.4837  0.6590
 8730TIP3   OH250384   1.814   2.120   3.335  0.0026 -0.7040  0.6723
 8730TIP3    H150385   1.728   2.084   3.358  0.4236 -1.3276  1.3195
 8730TIP3    H250386   1.830   2.089   3.246 -0.5244 -0.4326  0.4824
 8731TIP3   OH250387   2.551   4.537   1.935 -0.5460  0.5057  0.0082
 8731TIP3    H150388   2.523   4.628   1.928 -0.0314  0.5191 -3.0377
 8731TIP3    H250389   2.647   4.542   1.937 -0.5280  0.0580  1.5220
 8732TIP3   OH250390   0.450   4.603   2.168 -0.7542  0.4557 -0.4982
 8732TIP3    H150391   0.399   4.529   2.133  1.2855 -1.7658  0.9264
 8732TIP3    H250392   0.429   4.605   2.261  0.7539  0.3236 -0.1341
 8733TIP3   OH250393   0.599   6.812   3.794 -0.4907  0.3868 -0.1404
 8733TIP3    H150394   0.676   6.756   3.787  0.1257  1.1712  0.2656
 8733TIP3    H250395   0.633   6.897   3.822 -1.6539  0.3683  1.4594
 8734TIP3   OH250396   0.531   1.209   1.464  0.3866  0.5607 -0.0474
 8734TIP3    H150397   0.541   1.120   1.499  4.0734  0.0973 -1.8105
 8734TIP3    H250398   0.562   1.265   1.535  0.4903  0.2414  0.1659
 8735TIP3   OH250399   2.230   2.308   3.141 -0.3119  0.2201 -0.0947
 8735TIP3    H150400   2.308   2.330   3.090  0.1633  0.8715  0.8854
 8735TIP3    H250401   2.186   2.241   3.089  2.1065 -1.8976  0.3500
 8736TIP3   OH250402   7.484   7.465   2.422 -0.7989  0.4338  0.0577
 8736TIP3    H150403   7.457   7.556   2.433 -0.5358  0.9108 -2.5124
 8736TIP3    H250404   7.414   7.413   2.462 -2.3238  1.7522 -0.7994
 8737TIP3   OH250405   0.076   4.364   3.093  0.2260  0.1808  0.2351
 8737TIP3    H150406   0.115   4.278   3.074 -0.5123 -0.3054  0.8686
 8737TIP3    H250407   0.151   4.423   3.098  0.6990 -0.2817 -0.8838
 8738TIP3   OH250408   1.266   7.179   3.523 -0.1027 -0.2143 -0.4204
 8738TIP3    H150409   1.192   7.122   3.501  0.3961 -0.3584 -1.8006
 8738TIP3    H250410   1.244   7.263   3.482 -0.0972  0.1388  0.2826
 8739TIP3   OH250411   5.626   4.896   2.108  0.0324  0.5134  0.0295
 8739TIP3    H150412   5.672   4.891   2.192  0.2285  0.2348 -0.0939
 8739TIP3    H250413   5.540   4.932   2.129 -1.5596 -3.3739  0.9758
 8740TIP3   OH250414   4.311   6.516   0.457 -0.7611  0.6794  0.0642
 8740TIP3    H150415   4.242   6.580   0.439 -1.5724 -0.0389  0.5556
 8740TIP3    H250416   4.392   6.567   0.452 -1.2668  1.4188 -1.1340
 8741TIP3   OH250417   1.587   2.712   2.331  0.2962  0.4946 -0.2183
 8741TIP3    H150418   1.546   2.798   2.343 -0.9552  0.1666 -1.7307
 8741TIP3    H250419   1.670   2.718   2.378 -0.5144  1.9392  1.1358
 8742TIP3   OH250420   2.815   6.270   2.147 -0.5492  0.2530  0.0464
 8742TIP3    H150421   2.835   6.353   2.104  0.5130 -1.8342 -4.0812
 8742TIP3    H250422   2.876   6.266   2.221  0.1254  2.6552 -0.2914
 8743TIP3   OH250423   4.749   0.782   2.788 -0.0575 -0.5851 -0.2661
 8743TIP3    H150424   4.839   0.767   2.761 -0.1304 -1.8155  0.1031
 8743TIP3    H250425   4.744   0.876   2.806  1.2607 -0.5697  0.1242
 8744TIP3   OH250426   6.137   3.633   0.980 -0.6331 -0.2313  0.1885
 8744TIP3    H150427   6.128   3.693   0.905  1.0188  0.1920  0.2932
 8744TIP3    H250428   6.153   3.548   0.941 -1.0923 -0.2629  0.0596
 8745TIP3   OH250429   1.841   0.714   0.601 -0.1157  0.0761 -0.2384
 8745TIP3    H150430   1.897   0.688   0.674  1.1248  1.1304 -0.7710
 8745TIP3    H250431   1.878   0.668   0.525  1.0142  1.8888 -0.8650
 8746TIP3   OH250432   1.792   3.832   1.060 -0.5002  0.0647  0.3710
 8746TIP3    H150433   1.887   3.844   1.061 -0.6769  1.9030  1.1217
 8746TIP3    H250434   1.763   3.875   0.980 -0.7550  0.1560  0.5106
 8747TIP3   OH250435   0.313   4.230   1.478 -0.6017 -0.5885  0.3566
 8747TIP3    H150436   0.333   4.174   1.553 -1.1516 -0.4573  0.6088
 8747TIP3    H250437   0.218   4.223   1.468 -0.5695 -0.3609 -0.1354
 8748TIP3   OH250438   1.413   6.151   1.626 -0.0564 -0.7680 -0.3633
 8748TIP3    H150439   1.449   6.236   1.598 -1.1401 -0.6199 -1.3820
 8748TIP3    H250440   1.396   6.162   1.720  0.3659 -0.0562 -0.3629
 8749TIP3   OH250441   4.020   3.052   0.749 -0.0660 -0.0095 -0.1670
 8749TIP3    H150442   3.969   3.080   0.673  2.8877  1.4317 -1.8210
 8749TIP3    H250443   4.084   2.989   0.713  0.9714  0.1681  1.2463
 8750TIP3   OH250444   7.005   4.897   1.858  0.1410  0.6926  0.2287
 8750TIP3    H150445   6.933   4.834   1.851  1.2403 -0.6813  0.6005
 8750TIP3    H250446   7.079   4.853   1.815  0.2316  2.9952 -2.2257
 8751TIP3   OH250447   5.979   5.925   0.493  0.1749  0.3847  0.3487
 8751TIP3    H150448   5.990   6.013   0.457 -0.5704  0.4343  0.2161
 8751TIP3    H250449   5.947   5.939   0.582 -0.8092  0.2538  0.0265
 8752TIP3   OH250450   3.987   6.961   3.141 -0.2088  0.4550  0.4880
 8752TIP3    H150451   4.063   6.914   3.105  0.0787  1.3680 -0.1530
 8752TIP3    H250452   4.024   7.041   3.179 -0.8287  0.8330  0.3157
 8753TIP3   OH250453   1.472   0.424   2.482 -0.2532  0.2100  0.3040
 8753TIP3    H150454   1.466   0.414   2.577  1.1257 -0.1609  0.3814
 8753TIP3    H250455   1.514   0.509   2.469  0.7169 -0.2799  0.0943
 8754TIP3   OH250456   2.108   3.737   1.805 -0.0694 -0.0815  0.3929
 8754TIP3    H150457   2.134   3.794   1.733  4.1860 -2.3899 -0.2473
 8754TIP3    H250458   2.089   3.653   1.764 -0.0718 -0.7671  1.7522
 8755TIP3   OH250459   5.486   2.941   0.684 -0.6467  0.5335 -0.0733
 8755TIP3    H150460   5.569   2.988   0.684 -0.4872  0.3280 -2.1171
 8755TIP3    H250461   5.466   2.926   0.592 -1.2061 -2.4896  0.4077
 8756TIP3   OH250462   5.053   3.755   1.238 -0.3505 -0.0843 -0.0260
 8756TIP3    H150463   5.011   3.804   1.168 -2.4343 -2.7234 -0.8035
 8756TIP3    H250464   5.014   3.668   1.234  2.1215 -1.4718  2.0964
 8757TIP3   OH250465   0.886   3.678   1.809 -0.0192  0.5392  0.0711
 8757TIP3    H150466   0.813   3.653   1.865 -1.0433 -1.3974 -1.9672
 8757TIP3    H250467   0.863   3.765   1.776 -0.8986  0.3917  0.2804
 8758TIP3   OH250468   5.083   6.854   2.912  0.8852 -0.0161  0.2455
 8758TIP3    H150469   5.157   6.808   2.874  0.4777 -0.0234 -0.5635
 8758TIP3    H250470   5.063   6.924   2.849  0.9402  0.7223  1.0235
 8759TIP3   OH250471   0.315   7.211   3.016  0.4245 -0.4231 -0.1128
 8759TIP3    H150472   0.393   7.220   3.071  1.3035 -1.9560 -1.0351
 8759TIP3    H250473   0.259   7.151   3.063 -0.6707  1.3521  0.9791
 8760TIP3   OH250474   1.755   6.991   1.411  0.5986 -0.0150 -0.3794
 8760TIP3    H150475   1.717   7.066   1.457 -0.1885 -0.1567 -0.7717
 8760TIP3    H250476   1.706   6.987   1.328 -0.6662 -2.0590  0.3925
 8761TIP3   OH250477   1.040   2.740   1.680  0.3377  0.4008 -0.1371
 8761TIP3    H150478   1.056   2.704   1.593  1.6433  1.0943 -0.2120
 8761TIP3    H250479   0.945   2.745   1.687  0.2181  1.0678 -1.8347
 8762TIP3   OH250480   3.150   5.999   2.214  0.3334  1.0256 -0.0110
 8762TIP3    H150481   3.092   5.937   2.171  1.7454 -0.0966 -0.3949
 8762TIP3    H250482   3.128   6.084   2.176 -0.9865  0.6319 -0.1768
 8763TIP3   OH250483   5.302   4.158   0.828 -0.4512 -0.6124 -0.9326
 8763TIP3    H150484   5.341   4.245   0.819 -0.7760 -0.3795 -0.1480
 8763TIP3    H250485   5.208   4.175   0.840 -0.4647 -1.0547 -0.4019
 8764TIP3   OH250486   6.993   4.830   7.793  0.3134 -0.1874  0.0024
 8764TIP3    H150487   7.000   4.922   7.767 -1.0305  0.2586  1.0956
 8764TIP3    H250488   7.083   4.796   7.785  0.4173  0.5399 -2.6943
 8765TIP3   OH250489   0.161   6.999   2.503  0.3133 -0.3039 -0.0301
 8765TIP3    H150490   0.180   7.024   2.413  0.6716  1.2821  0.4579
 8765TIP3    H250491   0.238   7.027   2.553 -0.5260  0.2701  0.9933
 8766TIP3   OH250492   5.904   2.868   2.360 -0.2248  0.4590  0.3484
 8766TIP3    H150493   5.819   2.874   2.316 -0.8043 -0.3425  1.3242
 8766TIP3    H250494   5.909   2.946   2.414 -0.8665 -0.0327  1.1526
 8767TIP3   OH250495   6.290   0.449   1.391 -0.3117  0.3847  0.2988
 8767TIP3    H150496   6.244   0.532   1.383 -0.9787 -0.1493 -2.4469
 8767TIP3    H250497   6.383   0.473   1.398 -0.4908  1.3938 -0.6028
 8768TIP3   OH250498   3.145   0.970   1.070 -0.6264 -0.2103 -0.4957
 8768TIP3    H150499   3.158   0.875   1.079  0.4943 -0.1342 -1.1612
 8768TIP3    H250500   3.050   0.980   1.062 -0.6148 -1.5972 -3.6380
 8769TIP3   OH250501   3.361   6.390   2.161  0.7390 -0.5225  0.1738
 8769TIP3    H150502   3.434   6.363   2.105 -0.0710 -1.9532 -0.2511
 8769TIP3    H250503   3.297   6.319   2.152 -1.0315  1.0400 -0.0595
 8770TIP3   OH250504   3.214   2.066   2.837 -0.2567  0.4253  0.2316
 8770TIP3    H150505   3.140   2.066   2.777 -0.8834  0.3323  0.9922
 8770TIP3    H250506   3.229   2.159   2.857 -0.7803  0.3858  0.8173
 8771TIP3   OH250507   2.839   6.867   1.859 -0.8168  0.0566 -0.2693
 8771TIP3    H150508   2.849   6.809   1.934 -0.1733  0.9581  0.3582
 8771TIP3    H250509   2.744   6.869   1.843 -0.8619 -1.1138 -0.2914
 8772TIP3   OH250510   4.504   5.151   0.550 -0.9037 -0.0469  0.0061
 8772TIP3    H150511   4.542   5.209   0.484 -1.7802 -0.3753 -0.8035
 8772TIP3    H250512   4.556   5.070   0.542  0.7839  0.7949  1.6146
 8773TIP3   OH250513   4.533   1.430   1.282 -0.2983 -0.1711 -0.0314
 8773TIP3    H150514   4.600   1.499   1.279 -2.3686  1.9403 -2.6252
 8773TIP3    H250515   4.552   1.375   1.206 -0.3152 -0.7906  0.4103
 8774TIP3   OH250516   0.432   5.544   2.652 -0.4160  0.1731  0.1792
 8774TIP3    H150517   0.488   5.503   2.718  0.2092 -0.1502 -0.5346
 8774TIP3    H250518   0.343   5.517   2.676 -0.1142 -0.7031  0.3582
 8775TIP3   OH250519   2.033   0.497   3.718  0.1699  0.4526  0.6485
 8775TIP3    H150520   1.973   0.443   3.769  0.2402  1.8734  2.3351
 8775TIP3    H250521   1.979   0.531   3.646 -0.1833 -0.8037  0.2894
 8776TIP3   OH250522   4.584   4.249   8.675  0.2420 -0.4582  0.1278
 8776TIP3    H150523   4.612   4.226   8.587  2.5747  0.0433  0.6686
 8776TIP3    H250524   4.650   4.209   8.732 -0.4179  0.4292  1.5655
 8777TIP3   OH250525   5.466   6.489   2.321  0.2423 -1.2323  0.0821
 8777TIP3    H150526   5.526   6.503   2.248 -0.5831  1.0165 -0.2401
 8777TIP3    H250527   5.521   6.487   2.398  0.8575 -0.7577 -0.3420
 8778TIP3   OH250528   6.141   6.702   1.054  0.5368  0.6295 -0.5728
 8778TIP3    H150529   6.134   6.684   0.960 -1.7304 -0.6047 -0.2315
 8778TIP3    H250530   6.086   6.779   1.068  1.2280  1.0880 -0.2844
 8779TIP3   OH250531   0.305   4.962   1.140 -0.1187 -0.0308  0.4671
 8779TIP3    H150532   0.250   5.021   1.089 -0.5068 -0.3475  0.5145
 8779TIP3    H250533   0.393   5.000   1.135 -0.3537  0.5092  0.4463
 8780TIP3   OH250534   0.697   1.165   0.552 -0.5614 -0.2711 -0.1890
 8780TIP3    H150535   0.673   1.089   0.604 -0.0845 -0.2580  0.0542
 8780TIP3    H250536   0.618   1.219   0.551 -0.3330  0.1490  1.2695
 8781TIP3   OH250537   3.386   6.120   3.287 -0.1964  0.1548  0.3276
 8781TIP3    H150538   3.384   6.035   3.331 -0.4371  0.1081  0.2241
 8781TIP3    H250539   3.465   6.117   3.232  0.1649  0.2551  0.8348
 8782TIP3   OH250540   1.692   0.719   0.946  0.0531 -0.6013 -0.4384
 8782TIP3    H150541   1.710   0.671   0.865 -2.6940 -2.1898 -0.2146
 8782TIP3    H250542   1.598   0.737   0.943  0.5089  2.7303  0.6704
 8783TIP3   OH250543   0.484   2.415   1.224 -0.4052  0.1951  0.0565
 8783TIP3    H150544   0.423   2.378   1.287 -0.2269 -1.4135 -0.6672
 8783TIP3    H250545   0.565   2.365   1.237  0.1103  0.8901 -0.3949
 8784TIP3   OH250546   5.573   6.529   2.078  0.5734 -0.4248 -0.2745
 8784TIP3    H150547   5.634   6.602   2.070  0.9062 -0.5722  0.8408
 8784TIP3    H250548   5.623   6.453   2.047  0.2483 -0.2058 -1.3724
 8785TIP3   OH250549   5.241   5.250   2.249  0.1187 -0.4675  0.1665
 8785TIP3    H150550   5.194   5.216   2.326 -0.3419 -1.2933 -0.4605
 8785TIP3    H250551   5.317   5.192   2.240 -0.0928 -0.6831 -0.2786
 8786TIP3   OH250552   0.565   7.317   0.759  0.0274  0.8383  0.3662
 8786TIP3    H150553   0.518   7.349   0.682  1.7115  0.8943 -0.6703
 8786TIP3    H250554   0.570   7.222   0.745  1.0766  0.9433 -0.0462
 8787TIP3   OH250555   0.312   5.819   2.703  0.0493  0.2712 -0.2887
 8787TIP3    H150556   0.227   5.821   2.746 -0.5126  1.0590 -1.3892
 8787TIP3    H250557   0.294   5.787   2.614  1.4013 -2.8436  0.4446
 8788TIP3   OH250558   3.503   6.534   2.883 -0.6041 -0.7717  0.7052
 8788TIP3    H150559   3.436   6.469   2.907 -0.9811 -0.9792 -0.7961
 8788TIP3    H250560   3.456   6.617   2.877 -0.8658 -1.0030 -0.8396
 8789TIP3   OH250561   3.332   6.751   3.043 -0.3500  0.6820  0.6018
 8789TIP3    H150562   3.405   6.734   3.103  0.3903  1.0875 -0.1719
 8789TIP3    H250563   3.305   6.841   3.062  1.1853  1.5295 -0.9947
 8790TIP3   OH250564   4.380   4.904   2.428 -0.3441 -0.6608  0.5402
 8790TIP3    H150565   4.370   4.886   2.521  1.6011 -1.4424  0.6542
 8790TIP3    H250566   4.435   4.983   2.425  0.6179 -1.3206  0.0981
 8791TIP3   OH250567   7.278   5.073   1.070 -0.2858 -0.2946 -0.1470
 8791TIP3    H150568   7.325   4.999   1.032 -2.1629 -1.3831 -0.5065
 8791TIP3    H250569   7.346   5.136   1.094  1.1917 -0.9849 -2.2868
 8792TIP3   OH250570   5.203   5.746   2.470  0.5876 -0.5699  0.2682
 8792TIP3    H150571   5.165   5.744   2.383  0.0502 -1.1178  0.5073
 8792TIP3    H250572   5.239   5.658   2.482 -0.7244 -1.0139  1.1870
 8793TIP3   OH250573   2.666   0.426   1.225  0.0212  0.0155 -0.4895
 8793TIP3    H150574   2.751   0.431   1.269  0.3034  1.7090 -1.1466
 8793TIP3    H250575   2.647   0.516   1.200 -3.1548  0.1123  1.7603
 8794TIP3   OH250576   6.708   6.484   1.400 -0.5435  0.4121 -0.0476
 8794TIP3    H150577   6.730   6.529   1.482 -2.2179 -0.0581  0.7065
 8794TIP3    H250578   6.787   6.435   1.377  0.5551  1.9800  0.2945
 8795TIP3   OH250579   7.003   3.874   1.275  0.9182  0.0488 -0.6011
 8795TIP3    H150580   7.015   3.779   1.273 -2.5556 -0.5256 -0.6855
 8795TIP3    H250581   6.982   3.893   1.367 -1.1032  0.2271 -1.0529
 8796TIP3   OH250582   6.331   5.175   0.573  0.3635  0.8007  0.0091
 8796TIP3    H150583   6.294   5.252   0.530 -1.0291 -0.2558 -0.7685
 8796TIP3    H250584   6.426   5.189   0.569  0.1655  2.1770 -0.6454
 8797TIP3   OH250585   5.175   6.881   2.619  0.5633  0.6896 -0.2526
 8797TIP3    H150586   5.116   6.948   2.655  1.3273  1.0393  0.3747
 8797TIP3    H250587   5.243   6.930   2.574 -0.5206  0.2466 -2.4864
 8798TIP3   OH250588   3.971   0.006   1.785 -0.3407  0.4967 -0.0640
 8798TIP3    H150589   4.027  -0.066   1.756 -0.8489 -0.1370  0.4896
 8798TIP3    H250590   3.914  -0.034   1.851 -0.7143  1.3813  0.1550
 8799TIP3   OH250591   4.122   3.087   1.588 -0.0458 -0.2246 -0.0026
 8799TIP3    H150592   4.105   2.992   1.592  0.6511 -0.4350 -1.4174
 8799TIP3    H250593   4.040   3.124   1.555 -0.0151 -0.4518 -0.3437
 8800TIP3   OH250594   5.601   6.761   0.704 -0.3406 -0.4582  0.2483
 8800TIP3    H150595   5.579   6.802   0.788 -0.0093  0.4935 -0.1083
 8800TIP3    H250596   5.691   6.730   0.715 -0.8526 -1.7952  0.7709
 8801TIP3   OH250597   7.512   0.291   1.513 -0.1096  0.3336 -0.3927
 8801TIP3    H150598   7.426   0.252   1.526 -0.3283  0.2741 -1.8465
 8801TIP3    H250599   7.531   0.277   1.420  1.6530 -0.0168 -0.0124
 8802TIP3   OH250600   1.566   2.920   1.882  0.0586 -0.1316 -0.0988
 8802TIP3    H150601   1.652   2.946   1.913  0.3466 -0.4444 -0.6319
 8802TIP3    H250602   1.511   2.922   1.961  0.3371  0.9324  0.0935
 8803TIP3   OH250603   0.911   1.245   0.701 -0.0074  0.2460  0.0141
 8803TIP3    H150604   0.937   1.172   0.758  1.2198  1.1122  0.6198
 8803TIP3    H250605   0.843   1.209   0.645 -1.6889 -0.5210  2.3881
 8804TIP3   OH250606   5.435   2.840   2.527 -0.5358  0.2315 -0.2501
 8804TIP3    H150607   5.446   2.892   2.607  0.0259 -0.7235  0.3134
 8804TIP3    H250608   5.377   2.893   2.472 -1.9993  0.3570  1.2987
 8805TIP3   OH250609   2.827   2.666   0.471 -0.2019  0.2674  0.2472
 8805TIP3    H150610   2.817   2.686   0.564 -0.1566  1.1378  0.0726
 8805TIP3    H250611   2.793   2.743   0.426  2.2065  1.0083 -0.4356
 8806TIP3   OH250612   2.973   3.163   1.048 -0.3346 -0.5939  0.2379
 8806TIP3    H150613   3.045   3.116   1.091  0.7119  0.4628 -0.2920
 8806TIP3    H250614   2.920   3.196   1.121  1.1851  0.8149  0.7706
 8807TIP3   OH250615   5.242   4.972   2.492  0.7973 -0.5785 -0.2734
 8807TIP3    H150616   5.245   4.921   2.573 -1.4203 -1.3754 -0.6316
 8807TIP3    H250617   5.179   4.927   2.437  1.0174  0.8845 -1.8187
 8808TIP3   OH250618   2.458   5.601   0.797  0.1255 -0.1466  0.2167
 8808TIP3    H150619   2.411   5.541   0.855 -1.0044  0.0688 -0.4378
 8808TIP3    H250620   2.403   5.679   0.793  1.5998  1.0164  1.1049
 8809TIP3   OH250621   3.897   7.295   3.187 -0.0677 -0.3459 -0.0876
 8809TIP3    H150622   3.922   7.387   3.178  1.7792 -0.4098  3.0674
 8809TIP3    H250623   3.976   7.251   3.217 -1.5482 -2.5093  0.9065
 8810TIP3   OH250624   1.615   1.483   2.077 -0.0226 -0.3356  0.1626
 8810TIP3    H150625   1.626   1.424   2.003  1.2896  1.4905 -1.2097
 8810TIP3    H250626   1.624   1.428   2.155  0.2767 -2.0291 -1.0392
 8811TIP3   OH250627   0.868   1.149   2.980 -0.3701  0.4254  0.2802
 8811TIP3    H150628   0.958   1.136   3.012 -0.5359  0.8665  0.9582
 8811TIP3    H250629   0.878   1.210   2.907 -0.0263 -0.2354 -0.2261
 8812TIP3   OH250630   0.344   2.522   2.122 -0.4907  0.7699  0.4780
 8812TIP3    H150631   0.351   2.574   2.042 -3.1066 -1.5646 -1.4187
 8812TIP3    H250632   0.426   2.473   2.126  0.9074  2.9802  0.9198
 8813TIP3   OH250633   5.229   1.128   1.259  0.1937  0.2122  0.3669
 8813TIP3    H150634   5.209   1.086   1.175  0.1269 -0.4605  0.7152
 8813TIP3    H250635   5.240   1.221   1.237  0.7495 -0.0400 -0.4788
 8814TIP3   OH250636   7.189   0.379   0.848 -0.3993  0.3391  0.0306
 8814TIP3    H150637   7.147   0.309   0.898  1.1150 -0.4008  0.3385
 8814TIP3    H250638   7.278   0.384   0.885  0.8922 -0.4393 -2.7431
 8815TIP3   OH250639   4.620   1.157   2.391 -0.2843 -0.3994 -0.5095
 8815TIP3    H150640   4.675   1.216   2.442 -2.3260  1.0737  0.1464
 8815TIP3    H250641   4.638   1.070   2.428  0.3228  0.2728  0.8584
 8816TIP3   OH250642   2.263   2.959   1.509 -0.1963  0.0931  0.7684
 8816TIP3    H150643   2.216   2.899   1.450 -0.9699 -0.3290  1.7976
 8816TIP3    H250644   2.202   3.031   1.522 -0.1268  0.0619  1.2537
 8817TIP3   OH250645   6.296   6.658   0.507  0.7025  0.3392  0.3934
 8817TIP3    H150646   6.376   6.660   0.454  1.4453  1.8810  1.5026
 8817TIP3    H250647   6.314   6.715   0.581 -1.1082 -0.0213  1.1824
 8818TIP3   OH250648   0.497   0.292   1.197 -0.3926 -0.1004  0.3510
 8818TIP3    H150649   0.445   0.326   1.123 -1.1664 -0.6678  0.6269
 8818TIP3    H250650   0.588   0.302   1.168 -0.7005 -1.4802 -1.2148
 8819TIP3   OH250651   1.480   6.315   0.700  0.2440  0.3959  0.0547
 8819TIP3    H150652   1.477   6.288   0.792 -0.4449 -2.0521 -0.6068
 8819TIP3    H250653   1.555   6.268   0.664  0.3691  1.1550 -0.7013
 8820TIP3   OH250654   3.446   1.885   0.891  1.2166  1.0032 -0.9073
 8820TIP3    H150655   3.475   1.841   0.811  1.0725  0.6130 -0.7452
 8820TIP3    H250656   3.466   1.823   0.961 -1.7034 -0.1472 -0.9492
 8821TIP3   OH250657   1.835   0.397   2.163  0.5243  0.0742  0.1622
 8821TIP3    H150658   1.780   0.410   2.086 -0.0027  0.5981  0.6147
 8821TIP3    H250659   1.824   0.305   2.186 -0.7034  0.3151  0.6299
 8822TIP3   OH250660   0.111   4.292   2.639  0.0624  0.3599 -0.0043
 8822TIP3    H150661   0.177   4.238   2.682 -2.0279 -1.1756  1.5600
 8822TIP3    H250662   0.115   4.375   2.685 -0.3541 -0.3913  1.4713
 8823TIP3   OH250663   1.702   2.427   2.366  0.2395 -0.1977  0.3718
 8823TIP3    H150664   1.752   2.357   2.323  0.9570  1.2242 -1.2145
 8823TIP3    H250665   1.671   2.482   2.294 -2.1305 -0.0052  1.4200
 8824TIP3   OH250666   1.728   4.943   1.941  0.6157 -0.4608  0.1915
 8824TIP3    H150667   1.757   4.907   1.858  3.1847  1.5052  0.0892
 8824TIP3    H250668   1.688   5.027   1.918  0.2519 -0.4491  0.8450
 8825TIP3   OH250669   2.691   6.942   2.704  0.0704 -0.1162 -0.4036
 8825TIP3    H150670   2.616   7.001   2.698 -1.0055 -1.3228  0.5279
 8825TIP3    H250671   2.674   6.889   2.782  1.1300 -1.4555 -1.0362
 8826TIP3   OH250672   3.922   5.432   1.264 -0.0079 -0.1736 -0.0914
 8826TIP3    H150673   3.876   5.392   1.190  1.0716 -0.0235 -0.8739
 8826TIP3    H250674   3.946   5.519   1.232  2.4758 -0.9150 -0.4446
 8827TIP3   OH250675   3.299   3.146   2.383 -0.0874 -0.0935  0.2203
 8827TIP3    H150676   3.294   3.050   2.378  1.4260 -0.2705  1.2189
 8827TIP3    H250677   3.380   3.167   2.336 -1.6777  0.9773 -2.2148
 8828TIP3   OH250678   1.153   1.692   2.287  0.0309 -0.3486 -0.0685
 8828TIP3    H150679   1.161   1.749   2.363 -0.5803 -0.9553  0.4661
 8828TIP3    H250680   1.241   1.687   2.251  0.3157 -0.0199  0.5706
 8829TIP3   OH250681   4.849   1.062   1.730  0.0551  0.0242  0.2959
 8829TIP3    H150682   4.914   1.043   1.662 -1.2638 -0.5015 -0.8597
 8829TIP3    H250683   4.862   1.155   1.750  1.7947 -0.2862  0.8201
 8830TIP3   OH250684   0.991   2.310   0.919 -0.0509 -0.9323  0.4420
 8830TIP3    H150685   1.055   2.306   0.848 -0.2702 -0.8318  0.2361
 8830TIP3    H250686   0.968   2.219   0.935  1.2330 -1.0981  1.5240
 8831TIP3   OH250687   2.150   0.684   1.141 -0.5130  0.1765  0.6599
 8831TIP3    H150688   2.175   0.687   1.234  1.3562  0.8026  0.1781
 8831TIP3    H250689   2.133   0.592   1.124 -1.6978  0.1442  1.7896
 8832TIP3   OH250690   7.245   0.903   2.491 -0.0089 -0.4762  0.0549
 8832TIP3    H150691   7.167   0.937   2.535 -0.0046 -0.0450 -0.2710
 8832TIP3    H250692   7.228   0.916   2.398  0.5160 -0.2413 -0.0106
 8833TIP3   OH250693   5.449   1.871   0.940  0.0065  0.2370  0.1839
 8833TIP3    H150694   5.394   1.801   0.976 -0.0041 -0.3028 -0.8480
 8833TIP3    H250695   5.502   1.828   0.874 -1.0607  1.4521 -1.5358
 8834TIP3   OH250696   6.584   3.566   0.984 -0.4739 -0.3348 -0.0118
 8834TIP3    H150697   6.663   3.513   0.979 -0.4437 -0.2645 -0.2802
 8834TIP3    H250698   6.545   3.560   0.897  0.3331  1.3075 -0.5272
 8835TIP3   OH250699   4.001   1.170   1.649  0.1786  0.2895  0.4021
 8835TIP3    H150700   3.985   1.202   1.738 -2.2581  1.5536 -0.4092
 8835TIP3    H250701   3.922   1.121   1.626  0.0414  1.3569 -1.6123
 8836TIP3   OH250702   1.928   0.120   0.436  0.1103 -0.2552 -0.2251
 8836TIP3    H150703   1.993   0.077   0.491 -0.0171  0.4360  0.4801
 8836TIP3    H250704   1.974   0.195   0.398 -1.1665  2.7885  3.4918
 8837TIP3   OH250705   5.305   6.675   1.957 -0.1027 -0.4642  0.1108
 8837TIP3    H150706   5.315   6.709   1.868  0.9319 -1.6258 -0.2417
 8837TIP3    H250707   5.389   6.636   1.977  0.3735  1.5356  2.4080
 8838TIP3   OH250708   5.726   1.796   2.107 -0.5016 -0.4521  0.6839
 8838TIP3    H150709   5.778   1.863   2.152  0.3938 -2.2763  2.5051
 8838TIP3    H250710   5.661   1.768   2.172 -2.6868  0.4684 -0.9423
 8839TIP3   OH250711   0.270   0.239   1.566  0.2209 -0.3946 -0.0654
 8839TIP3    H150712   0.176   0.251   1.559  0.0765 -1.4603 -0.1028
 8839TIP3    H250713   0.307   0.307   1.510 -0.5213  0.0484 -0.0274
 8840TIP3   OH250714   4.221   5.422   0.761  0.1388 -0.1383 -0.3161
 8840TIP3    H150715   4.251   5.333   0.740 -2.2029 -0.5013 -2.5781
 8840TIP3    H250716   4.217   5.467   0.677 -1.4785  1.1805  0.4200
 8841TIP3   OH250717   0.458   0.515   2.241  0.4182  0.0795  0.0966
 8841TIP3    H150718   0.385   0.490   2.183 -0.3393  0.4141  0.8775
 8841TIP3    H250719   0.533   0.525   2.183 -0.0820 -0.5897 -0.6910
 8842TIP3   OH250720   3.057   1.742   1.800 -0.4245  0.1819  0.1760
 8842TIP3    H150721   3.041   1.714   1.709  1.2741 -0.1609 -0.0430
 8842TIP3    H250722   2.971   1.772   1.830 -0.9944  0.4944 -1.6030
 8843TIP3   OH250723   3.157   6.271   0.757  0.0349 -0.1832  0.0435
 8843TIP3    H150724   3.080   6.245   0.707 -1.6683  0.0668  2.3738
 8843TIP3    H250725   3.205   6.189   0.772 -1.3853 -0.8666  1.0608
 8844TIP3   OH250726   6.089   6.422   0.443  0.0039 -0.0687  0.2707
 8844TIP3    H150727   6.100   6.516   0.429 -0.7014 -0.0430 -0.1549
 8844TIP3    H250728   6.171   6.394   0.484  1.2599  0.2658 -1.8446
 8845TIP3   OH250729   2.440   2.922   2.200  0.0644  0.4190  0.1639
 8845TIP3    H150730   2.443   2.854   2.267  0.5614  0.1010 -0.1743
 8845TIP3    H250731   2.347   2.946   2.194  0.0260  0.5177  1.0187
 8846TIP3   OH250732   6.288   7.126   2.333 -0.8166  0.2072  0.2649
 8846TIP3    H150733   6.304   7.035   2.309  4.7848  0.9974 -0.3399
 8846TIP3    H250734   6.303   7.129   2.427  1.0138  0.7093 -0.0101
 8847TIP3   OH250735   2.792   1.501   1.272  0.2886 -0.0387 -0.2198
 8847TIP3    H150736   2.876   1.462   1.296  0.9631  1.5126  0.0871
 8847TIP3    H250737   2.816   1.583   1.228 -0.9841  3.0941  4.2710
 8848TIP3   OH250738   5.920   3.831   0.471  0.3351 -0.1429 -0.0187
 8848TIP3    H150739   5.839   3.859   0.513  0.5671 -0.1070  0.4205
 8848TIP3    H250740   5.973   3.911   0.466 -0.3533  0.2396 -1.9947
 8849TIP3   OH250741   1.509   3.773   1.235  0.5012  0.0510 -0.0111
 8849TIP3    H150742   1.515   3.824   1.316 -2.2147  0.0527  0.2533
 8849TIP3    H250743   1.498   3.838   1.166 -0.4427 -0.0520  0.0296
 8850TIP3   OH250744   2.486   2.269   2.409  0.4646  0.1596  0.4986
 8850TIP3    H150745   2.578   2.267   2.384  0.1811  0.2315 -0.5804
 8850TIP3    H250746   2.483   2.329   2.484  1.1229  1.0614 -0.1821
 8851TIP3   OH250747   6.147   2.041   2.227 -0.0353 -0.2851  0.8364
 8851TIP3    H150748   6.138   2.092   2.146 -1.3113 -1.1742  0.3911
 8851TIP3    H250749   6.231   1.996   2.217  0.6162  0.9130  0.7803
 8852TIP3   OH250750   2.371   0.222   1.584 -0.0595 -0.3864  0.1354
 8852TIP3    H150751   2.316   0.286   1.540  1.0920  1.8535  1.7015
 8852TIP3    H250752   2.322   0.199   1.663  0.9476  1.3265  1.3406
 8853TIP3   OH250753   4.742   7.360   1.746  0.3726 -0.0453 -0.3848
 8853TIP3    H150754   4.664   7.339   1.694 -1.5275  0.8695  1.9325
 8853TIP3    H250755   4.786   7.429   1.697 -0.6083 -0.1363 -1.4319
 8854TIP3   OH250756   0.955   6.321   0.986 -0.3702  0.4371  0.2062
 8854TIP3    H150757   0.864   6.292   0.976 -0.2823  0.2600 -0.0837
 8854TIP3    H250758   1.001   6.281   0.912 -0.2002  1.1380 -0.0723
 8855TIP3   OH250759   3.678   3.226   1.362  0.3299 -0.0713  0.3661
 8855TIP3    H150760   3.695   3.191   1.275  1.9021  0.6096  0.3672
 8855TIP3    H250761   3.719   3.164   1.422  0.6907  0.3082  0.5189
 8856TIP3   OH250762   7.220   1.861   3.205 -0.1265 -0.1538  0.0810
 8856TIP3    H150763   7.286   1.900   3.148 -1.5828  1.2614 -0.7060
 8856TIP3    H250764   7.268   1.795   3.256  1.7373  0.3838 -0.9023
 8857TIP3   OH250765   5.609   7.282   1.350  0.1789 -0.3899 -0.0102
 8857TIP3    H150766   5.606   7.353   1.413  2.8107  0.2209 -0.4647
 8857TIP3    H250767   5.599   7.324   1.264  1.4498 -0.5518 -0.2621
 8858TIP3   OH250768   0.759   5.489   1.554  0.1032  0.3329 -0.3112
 8858TIP3    H150769   0.838   5.526   1.594 -0.7160  4.0689 -1.7561
 8858TIP3    H250770   0.691   5.555   1.569 -2.0854 -1.5060 -1.4961
 8859TIP3   OH250771   5.405   2.851   0.928  0.0529 -0.0366 -0.1954
 8859TIP3    H150772   5.320   2.812   0.910 -1.3072  2.2915  0.7796
 8859TIP3    H250773   5.437   2.879   0.842  0.0521 -1.2440 -0.6108
 8860TIP3   OH250774   0.141   4.510   2.802 -0.1461 -0.3839  0.2352
 8860TIP3    H150775   0.085   4.556   2.864 -0.1898 -1.0122  0.6754
 8860TIP3    H250776   0.174   4.578   2.743  0.0934  0.2622  1.0959
 8861TIP3   OH250777   6.358   6.078   0.764 -0.4018  0.4521 -0.5551
 8861TIP3    H150778   6.302   6.056   0.839  1.0100 -0.6556  0.2211
 8861TIP3    H250779   6.348   6.172   0.753 -2.7806  0.2424 -0.7669
 8862TIP3   OH250780   5.192   1.878   2.518 -0.7302 -0.0075  0.3975
 8862TIP3    H150781   5.183   1.887   2.423  0.2811 -0.1615  0.2711
 8862TIP3    H250782   5.268   1.821   2.529 -1.0453 -0.2570  1.2973
 8863TIP3   OH250783   1.861   1.719   0.843  0.4686  0.0787  0.0109
 8863TIP3    H150784   1.885   1.788   0.905  0.1771 -0.7387  1.0648
 8863TIP3    H250785   1.821   1.651   0.897  1.0066 -1.0497 -0.9531
 8864TIP3   OH250786   1.324   2.822   3.453  0.7230 -0.1586 -0.1235
 8864TIP3    H150787   1.296   2.736   3.420 -0.0095  0.1014 -0.2070
 8864TIP3    H250788   1.262   2.883   3.414  0.4419  0.2652  0.9667
 8865TIP3   OH250789   1.507   6.874   2.852  0.1120 -0.2102  0.2310
 8865TIP3    H150790   1.499   6.781   2.831  1.0459 -0.4065  0.6991
 8865TIP3    H250791   1.500   6.877   2.948 -1.0192  0.3335  0.1548
 8866TIP3   OH250792   4.128   2.119   2.385 -0.2180  0.4110 -0.5374
 8866TIP3    H150793   4.061   2.172   2.429 -0.2704  0.9391 -1.2329
 8866TIP3    H250794   4.082   2.040   2.359  0.0523 -0.3556  1.2123
 8867TIP3   OH250795   4.925   1.359   2.790 -0.3827  0.5523 -0.0651
 8867TIP3    H150796   4.991   1.424   2.812  0.6846  0.4180 -2.5442
 8867TIP3    H250797   4.899   1.321   2.874  1.4475  1.7942  1.1259
 8868TIP3   OH250798   6.162   4.784   0.846  0.3255  0.3233  0.2347
 8868TIP3    H150799   6.080   4.833   0.839  0.4501  0.4517 -0.4080
 8868TIP3    H250800   6.230   4.851   0.844  0.5406  0.0938 -1.6012
 8869TIP3   OH250801   3.825   6.503   0.432  0.0620  0.7409  0.2202
 8869TIP3    H150802   3.830   6.407   0.430  0.6940  0.7377  1.1124
 8869TIP3    H250803   3.877   6.527   0.509 -2.9269  1.6060  2.1454
 8870TIP3   OH250804   2.815   6.795   1.114 -0.0900  0.3607  0.0131
 8870TIP3    H150805   2.869   6.768   1.188  0.2127 -1.0226 -0.6808
 8870TIP3    H250806   2.828   6.890   1.108  0.7838  0.3218  1.0106
 8871TIP3   OH250807   1.960   1.100   0.915  0.0146  0.3435  0.4610
 8871TIP3    H150808   1.880   1.140   0.950 -0.0217  0.7676 -0.0895
 8871TIP3    H250809   1.982   1.031   0.978 -1.3204 -0.4215  0.1352
 8872TIP3   OH250810   1.442   2.375   0.949  0.1663 -0.1088  0.3198
 8872TIP3    H150811   1.410   2.449   0.897  0.7611  0.3646  0.6117
 8872TIP3    H250812   1.445   2.409   1.039  1.4233 -0.1458  0.3089
 8873TIP3   OH250813   4.000   1.493   1.925 -0.1872  0.1334 -0.8399
 8873TIP3    H150814   4.005   1.398   1.919  0.6275  0.0698  0.5001
 8873TIP3    H250815   3.908   1.511   1.943 -0.2276 -0.4392 -0.4521
 8874TIP3   OH250816   0.098   5.124   1.276 -0.3263  0.4113 -0.1248
 8874TIP3    H150817   0.061   5.144   1.362  0.0546  1.5888 -0.2145
 8874TIP3    H250818   0.170   5.063   1.294  0.5122  1.5730  0.5298
 8875TIP3   OH250819   5.702   6.126   1.180  0.1174 -0.3998  0.5426
 8875TIP3    H150820   5.726   6.043   1.222 -1.4245 -1.5868 -0.7987
 8875TIP3    H250821   5.631   6.161   1.234  0.7195  0.0425  1.0670
 8876TIP3   OH250822   4.983   7.141   1.240 -0.0766 -0.4820  0.5924
 8876TIP3    H150823   4.960   7.200   1.168 -0.2626 -1.9125 -0.5611
 8876TIP3    H250824   4.949   7.185   1.318 -0.5021  0.7742 -0.2583
 8877TIP3   OH250825   5.352   0.814   2.991  0.1274 -0.0788 -0.1286
 8877TIP3    H150826   5.433   0.834   3.037  0.1432 -0.2640 -0.0764
 8877TIP3    H250827   5.298   0.893   3.004  0.9787  0.8150 -1.7251
 8878TIP3   OH250828   2.393   2.962   3.321 -0.1174  0.4740 -0.1100
 8878TIP3    H150829   2.390   2.878   3.275 -0.0529 -0.1384  0.9513
 8878TIP3    H250830   2.474   2.958   3.372 -0.8427  0.5482  1.0915
 8879TIP3   OH250831   0.263   3.314   2.445 -0.2860 -0.3669 -0.1552
 8879TIP3    H150832   0.175   3.349   2.430 -1.4084 -2.3538  1.3988
 8879TIP3    H250833   0.292   3.356   2.527  0.1986  0.1789 -0.5911
 8880TIP3   OH250834   1.747   5.177   0.589  0.3310 -0.2087 -0.0955
 8880TIP3    H150835   1.657   5.178   0.558  0.9361 -1.3966 -2.0462
 8880TIP3    H250836   1.740   5.169   0.684 -1.6269 -2.3852 -0.3407
 8881TIP3   OH250837   5.003   5.887   1.789  0.3018 -0.4223 -0.0013
 8881TIP3    H150838   5.080   5.943   1.797  0.9603 -1.4449  1.3346
 8881TIP3    H250839   4.963   5.911   1.705  1.4884  0.8477 -0.2267
 8882TIP3   OH250840   3.335   1.900   1.319  0.3038  0.3891 -0.5680
 8882TIP3    H150841   3.300   1.954   1.249 -0.3975  1.8087  0.8101
 8882TIP3    H250842   3.422   1.874   1.289 -0.4123 -0.0019 -2.4214
 8883TIP3   OH250843   4.129   5.615   1.821 -0.1575  0.1668 -0.5116
 8883TIP3    H150844   4.092   5.682   1.878  0.2774 -1.5130  1.9062
 8883TIP3    H250845   4.056   5.555   1.806  0.2423 -0.4536 -0.0093
 8884TIP3   OH250846   6.139   5.623   1.235 -0.0309 -0.1905 -0.1715
 8884TIP3    H150847   6.052   5.591   1.212  0.4138 -1.1886 -0.5219
 8884TIP3    H250848   6.180   5.642   1.150 -0.2877  1.3566  0.0278
 8885TIP3   OH250849   4.310   2.506   1.344  0.4375  0.3366  0.7557
 8885TIP3    H150850   4.246   2.567   1.381  0.1422  0.2049  0.4732
 8885TIP3    H250851   4.312   2.528   1.251  0.6163  0.1691  0.7202
 8886TIP3   OH250852   5.087   0.899   1.070  0.2483  0.1315 -0.0905
 8886TIP3    H150853   5.092   0.912   0.976  1.0898  0.6395  0.0208
 8886TIP3    H250854   5.005   0.942   1.096  0.0060 -0.0262 -0.5860
 8887TIP3   OH250855   4.817   4.322   1.628 -0.4036 -0.1027  0.3964
 8887TIP3    H150856   4.816   4.404   1.678  2.5890  0.8842 -0.8875
 8887TIP3    H250857   4.737   4.325   1.576  1.1146  3.9831 -2.2462
 8888TIP3   OH250858   4.074   2.238   1.635  0.5916  0.2593  0.3821
 8888TIP3    H150859   4.003   2.185   1.600  0.0336  2.2974 -1.8836
 8888TIP3    H250860   4.153   2.190   1.612  0.0556 -1.5879  2.1344
 8889TIP3   OH250861   3.882   6.677   2.550 -0.0923 -0.3061 -0.3552
 8889TIP3    H150862   3.910   6.616   2.482 -0.5404 -0.0183 -0.8011
 8889TIP3    H250863   3.963   6.701   2.596  0.1518 -0.8303 -0.5098
 8890TIP3   OH250864   7.010   0.322   0.641  0.0882  0.0528  0.3751
 8890TIP3    H150865   6.927   0.275   0.638  0.6003 -0.8185 -0.9643
 8890TIP3    H250866   7.040   0.311   0.732  0.5412 -2.8888 -0.0350
 8891TIP3   OH250867   4.369   0.862   2.141 -0.1291  0.1255  0.5699
 8891TIP3    H150868   4.380   0.944   2.190 -3.0616 -0.0478  1.7397
 8891TIP3    H250869   4.453   0.849   2.097  1.6741  1.8764  3.1937
 8892TIP3   OH250870   7.173   5.994   2.438 -0.1843  0.4938  0.1353
 8892TIP3    H150871   7.160   6.085   2.466  1.0741  0.3531  1.2757
 8892TIP3    H250872   7.232   5.957   2.503  0.6143 -0.6899 -1.2014
 8893TIP3   OH250873   0.490   1.566   2.184 -0.2228 -0.2989 -0.5345
 8893TIP3    H150874   0.458   1.637   2.240  0.0679  0.6768 -1.5740
 8893TIP3    H250875   0.575   1.542   2.222 -1.6708 -2.3351  1.7369
 8894TIP3   OH250876   1.838   1.376   1.575  0.4052 -0.4403 -0.4834
 8894TIP3    H150877   1.856   1.362   1.482  0.1473  0.9841 -0.7746
 8894TIP3    H250878   1.857   1.468   1.590  1.6157 -0.9013  1.1855
 8895TIP3   OH250879   0.979   4.957   2.222  0.0327  0.6094 -0.4224
 8895TIP3    H150880   0.996   4.863   2.225 -0.3112  0.5770  1.0686
 8895TIP3    H250881   1.037   4.989   2.153  0.0162 -0.7101 -1.0848
 8896TIP3   OH250882   7.022   7.144   0.846 -0.1041 -0.6226 -0.4260
 8896TIP3    H150883   6.982   7.171   0.929 -0.3919  1.0583 -1.0770
 8896TIP3    H250884   6.991   7.055   0.832 -2.2895  0.0340 -0.0721
 8897TIP3   OH250885   2.839   0.750   1.627  0.2457  0.5234  0.6005
 8897TIP3    H150886   2.774   0.719   1.689  0.0709  0.8802  0.5931
 8897TIP3    H250887   2.866   0.835   1.660 -0.7905  1.3112 -0.4971
 8898TIP3   OH250888   3.380   7.416   1.554 -0.4784  0.4099 -0.2944
 8898TIP3    H150889   3.415   7.475   1.621  1.3256 -1.7823  0.8251
 8898TIP3    H250890   3.403   7.458   1.471 -0.7424  2.0714  0.4332
 8899TIP3   OH250891   7.452   2.047   2.822  0.8380  0.0020 -0.0212
 8899TIP3    H150892   7.484   2.135   2.842  0.4168 -0.0887  1.1233
 8899TIP3    H250893   7.381   2.061   2.760  0.7351  0.4751  0.1974
 8900TIP3   OH250894   2.377   2.979   2.713 -0.6201 -0.1788 -0.0958
 8900TIP3    H150895   2.330   2.934   2.784 -0.6276 -2.2993 -1.3453
 8900TIP3    H250896   2.366   2.921   2.638  2.6069  0.0484 -0.8712
 8901TIP3   OH250897   5.720   7.092   2.282  0.3224  0.2830  0.2326
 8901TIP3    H150898   5.734   7.177   2.241  0.4538  0.3621  0.4417
 8901TIP3    H250899   5.685   7.037   2.211  1.1736  0.2346 -0.1682
 8902TIP3   OH250900   2.914   1.266   3.139  0.1371 -0.7880 -0.3905
 8902TIP3    H150901   2.868   1.266   3.223  0.5898 -2.4848 -0.0976
 8902TIP3    H250902   2.936   1.358   3.124 -1.1645 -0.2637  0.6501
 8903TIP3   OH250903   4.048   1.778   1.952 -0.3289 -0.9630  0.4997
 8903TIP3    H150904   3.981   1.714   1.928 -0.3955 -0.1656 -1.6292
 8903TIP3    H250905   4.106   1.782   1.876 -0.2778  1.4288  0.5910
 8904TIP3   OH250906   5.998   7.149   1.506 -0.1644 -0.2848  0.0419
 8904TIP3    H150907   5.905   7.129   1.513 -0.0265 -0.6797  0.9498
 8904TIP3    H250908   6.041   7.064   1.516  0.3138 -0.0004  0.5000
 8905TIP3   OH250909   7.187   6.278   1.524  0.4175 -0.1296 -0.4960
 8905TIP3    H150910   7.238   6.316   1.595  0.6292 -0.7245 -0.3211
 8905TIP3    H250911   7.233   6.196   1.502  0.7353  0.3592 -1.7545
 8906TIP3   OH250912   6.317   6.848   2.261  0.2499  0.0615 -0.0388
 8906TIP3    H150913   6.388   6.792   2.292  0.0835 -0.4178 -0.5114
 8906TIP3    H250914   6.280   6.801   2.187  0.3725  1.0003 -0.7129
 8907TIP3   OH250915   3.094   1.532   0.781 -0.5394  0.1371 -0.8652
 8907TIP3    H150916   3.027   1.482   0.735  0.1318 -0.8073 -0.8385
 8907TIP3    H250917   3.108   1.485   0.863 -0.1116  0.5349 -0.7002
 8908TIP3   OH250918   7.014   4.057   1.073  0.0723  0.5204  0.4784
 8908TIP3    H150919   7.060   4.028   0.994 -1.0348  0.4055 -0.1416
 8908TIP3    H250920   7.009   3.978   1.128  2.1187  0.9335  1.3367
 8909TIP3   OH250921   6.803   2.120   1.813 -0.2156 -0.4481 -0.0885
 8909TIP3    H150922   6.799   2.143   1.906  2.8521 -0.3093  0.1261
 8909TIP3    H250923   6.810   2.025   1.812 -2.7346 -0.6956 -0.3995
 8910TIP3   OH250924   4.036   1.658   1.490  0.2086  0.0068  0.3009
 8910TIP3    H150925   3.979   1.640   1.564 -0.3228 -0.0897 -0.1293
 8910TIP3    H250926   4.108   1.595   1.498  1.0388  1.0678  1.6576
 8911TIP3   OH250927   1.657   1.177   1.758 -0.4626  0.0087 -0.7709
 8911TIP3    H150928   1.702   1.254   1.794  1.4212 -1.0154 -0.8187
 8911TIP3    H250929   1.677   1.179   1.665  0.4335 -1.0254 -0.6274
 8912TIP3   OH250930   3.811   0.485   1.908  0.2861 -0.1985  0.6704
 8912TIP3    H150931   3.877   0.482   1.839  0.0471 -1.0320  0.4726
 8912TIP3    H250932   3.731   0.454   1.866  0.3996 -1.8501  1.6125
 8913TIP3   OH250933   4.865   1.960   3.057  0.1611  0.1766  0.3896
 8913TIP3    H150934   4.946   1.985   3.101  0.7036  1.0153 -1.0435
 8913TIP3    H250935   4.817   2.042   3.046 -0.7204 -0.2572  0.8570
 8914TIP3   OH250936   5.231   1.289   2.129 -0.3611 -0.0449  0.5583
 8914TIP3    H150937   5.299   1.321   2.070 -0.1925  0.8111  1.1950
 8914TIP3    H250938   5.270   1.214   2.174 -0.9674 -1.6335 -1.3905
 8915TIP3   OH250939   4.131   0.470   2.408 -0.3537 -0.6277 -0.2964
 8915TIP3    H150940   4.151   0.486   2.316  0.1502 -0.3757 -0.1455
 8915TIP3    H250941   4.148   0.377   2.421  0.8903 -0.3922 -0.1377
 8916TIP3   OH250942   1.895   5.124   2.195  0.1454  0.1789  0.3449
 8916TIP3    H150943   1.914   5.203   2.245  0.6144 -0.8307  1.8217
 8916TIP3    H250944   1.961   5.061   2.222 -0.0363 -0.6531 -1.0242
 8917TIP3   OH250945   5.398   3.039   2.346 -0.0020 -0.5032 -0.2407
 8917TIP3    H150946   5.439   3.010   2.264 -1.0403  0.6430 -1.2059
 8917TIP3    H250947   5.325   3.094   2.318  0.7203  1.4252  1.4736
 8918TIP3   OH250948   2.982   1.726   1.245 -0.4786 -0.2611 -0.2570
 8918TIP3    H150949   3.052   1.667   1.272  0.9095  0.9737 -1.0087
 8918TIP3    H250950   3.027   1.808   1.224 -2.3562  1.1291  0.9253
 8919TIP3   OH250951   4.154   4.901   3.223  0.1178 -0.2513  0.1070
 8919TIP3    H150952   4.060   4.921   3.215  0.2415 -0.0361 -0.9571
 8919TIP3    H250953   4.164   4.818   3.175  0.7341  0.5530 -1.2087
 8920TIP3   OH250954   1.680   4.008   0.854  0.1160 -0.0412 -0.2954
 8920TIP3    H150955   1.627   4.021   0.775 -0.2011  1.2607  0.1059
 8920TIP3    H250956   1.622   4.035   0.926  1.9070  3.5168  0.0262
 8921TIP3   OH250957   5.235   6.582   2.190  0.2816  0.0531 -0.2550
 8921TIP3    H150958   5.255   6.615   2.103 -0.7927 -0.9928 -0.9283
 8921TIP3    H250959   5.320   6.575   2.233  1.0242 -0.9907 -1.7997
 8922TIP3   OH250960   4.449   2.766   1.192  0.0127  0.1661  0.5405
 8922TIP3    H150961   4.357   2.755   1.214  0.1288  0.3594  1.1345
 8922TIP3    H250962   4.451   2.761   1.096 -0.8301  1.7334  0.4127
 8923TIP3   OH250963   3.859   0.572   1.427 -0.3954 -1.0064 -0.0639
 8923TIP3    H150964   3.894   0.535   1.346  0.6032  0.2600 -0.2425
 8923TIP3    H250965   3.827   0.658   1.401 -2.3469 -1.5355  0.4103
 8924TIP3   OH250966   4.317   5.060   2.738 -0.3178  0.6957  0.1974
 8924TIP3    H150967   4.395   5.032   2.786  1.0968  1.5717 -1.4723
 8924TIP3    H250968   4.274   5.122   2.796  1.6610  2.1760  0.1781
 8925TIP3   OH250969   2.821   5.494   1.590 -0.0224  0.2184 -0.0093
 8925TIP3    H150970   2.799   5.584   1.617 -1.6142  0.0709 -0.7452
 8925TIP3    H250971   2.887   5.506   1.521 -0.2881  0.8251 -0.1697
 8926TIP3   OH250972   1.103   6.744   2.124 -0.2924  0.0075  0.0003
 8926TIP3    H150973   1.095   6.705   2.037 -0.3849  0.4348 -0.1889
 8926TIP3    H250974   1.160   6.820   2.110  0.2458 -0.3130  0.4437
 8927TIP3   OH250975   6.673   4.123   1.172 -0.4837  0.8225 -0.1508
 8927TIP3    H150976   6.678   4.034   1.138 -0.2357  0.9943 -0.5667
 8927TIP3    H250977   6.735   4.173   1.119 -0.2804  1.1475  0.3778
 8928TIP3   OH250978   3.734   1.422   1.001  0.0934  0.2099  0.7202
 8928TIP3    H150979   3.821   1.382   0.996 -1.1796 -2.6457 -0.5063
 8928TIP3    H250980   3.742   1.504   0.952  1.8265 -0.5676 -0.3803
 8929TIP3   OH250981   0.599   0.428   0.430 -0.1196 -0.1366  0.2641
 8929TIP3    H150982   0.608   0.357   0.366  1.2064  0.5318 -0.3255
 8929TIP3    H250983   0.683   0.474   0.428 -1.1739  1.8978  0.1108
 8930TIP3   OH250984   2.145   6.325   0.700  0.3487  0.6845  0.6098
 8930TIP3    H150985   2.171   6.417   0.711  0.5536  0.8312 -0.8339
 8930TIP3    H250986   2.212   6.289   0.642  0.5779 -0.5408  1.6035
 8931TIP3   OH250987   3.567   1.752   0.694  0.0164 -0.3585 -0.4912
 8931TIP3    H150988   3.568   1.668   0.647 -1.3178 -0.4737 -0.3423
 8931TIP3    H250989   3.591   1.816   0.627 -1.5732 -0.5571 -1.2863
 8932TIP3   OH250990   3.555   6.388   0.472 -0.5636  0.2663  0.0478
 8932TIP3    H150991   3.600   6.304   0.462 -0.4362  0.4640 -1.2257
 8932TIP3    H250992   3.600   6.446   0.411 -1.0991  1.0844  0.4133
 8933TIP3   OH250993   4.116   4.538   2.390  0.1654 -0.1244 -0.3756
 8933TIP3    H150994   4.076   4.526   2.304  2.1749  1.5075 -1.6229
 8933TIP3    H250995   4.055   4.597   2.436 -0.4717 -0.2784 -0.9976
 8934TIP3   OH250996   1.051   1.573   1.953  0.5737 -0.3887  0.6979
 8934TIP3    H150997   1.098   1.654   1.975  0.7068 -0.2080 -0.2177
 8934TIP3    H250998   0.979   1.570   2.016 -0.8269  1.6667 -0.6676
 8935TIP3   OH250999   1.532   3.379   3.094  0.8600  0.6366  0.4407
 8935TIP3    H151000   1.506   3.426   3.015  0.7835  1.8925  1.2018
 8935TIP3    H251001   1.453   3.333   3.121  0.2051  2.1140  1.1090
 8936TIP3   OH251002   1.697   3.663   2.388  0.4729 -0.1309 -0.4865
 8936TIP3    H151003   1.628   3.609   2.351  0.7730 -1.2391  0.5270
 8936TIP3    H251004   1.735   3.708   2.312  0.0450 -1.1297 -1.3198
 8937TIP3   OH251005   2.474   4.820   1.860  0.9346  0.5487  0.1299
 8937TIP3    H151006   2.390   4.821   1.906  1.3486  0.6004  0.8877
 8937TIP3    H251007   2.477   4.903   1.813 -0.2457 -0.2188 -1.3823
 8938TIP3   OH251008   1.785   5.221   2.489 -0.2132 -0.1645 -0.7736
 8938TIP3    H151009   1.758   5.139   2.532  0.4268  0.3659  0.6774
 8938TIP3    H251010   1.773   5.288   2.555  0.8820  0.6833 -1.4123
 8939TIP3   OH251011   2.380   2.639   0.538  0.8465 -0.7913 -0.2430
 8939TIP3    H151012   2.413   2.718   0.494 -1.5389  0.4064 -0.0547
 8939TIP3    H251013   2.385   2.660   0.632  0.6551 -1.0576 -0.1716
 8940TIP3   OH251014   5.126   1.148   2.768  0.1510 -0.3955  0.3019
 8940TIP3    H151015   5.051   1.207   2.767  0.1524 -0.3856 -0.6759
 8940TIP3    H251016   5.202   1.206   2.774  0.0743 -0.4506  2.3872
 8941TIP3   OH251017   2.482   0.167   3.327 -0.1131  0.8784  0.0198
 8941TIP3    H151018   2.536   0.091   3.306 -0.0050  0.1995  2.3950
 8941TIP3    H251019   2.543   0.231   3.363 -0.4202  1.5005 -0.5482
 8942TIP3   OH251020   0.328   1.626   1.033  0.5145  0.6783 -0.1762
 8942TIP3    H151021   0.252   1.583   1.073  0.9714 -0.1330 -0.1402
 8942TIP3    H251022   0.373   1.669   1.106 -0.8862  2.7637 -0.4633
 8943TIP3   OH251023   6.887   5.469   0.894 -0.1815 -0.3008 -0.3880
 8943TIP3    H151024   6.807   5.517   0.871  0.0595 -0.4147 -1.5647
 8943TIP3    H251025   6.862   5.377   0.890 -0.8411 -0.3582  2.6125
 8944TIP3   OH251026   1.485   5.245   2.843 -0.3711  0.1414  0.4556
 8944TIP3    H151027   1.491   5.156   2.809 -3.6813 -0.3984  0.9671
 8944TIP3    H251028   1.511   5.238   2.935 -0.1292 -0.1789  0.3644
 8945TIP3   OH251029   7.479   5.750   2.031 -0.4418 -0.0995  0.4659
 8945TIP3    H151030   7.506   5.842   2.038  0.5845 -0.3536  0.1331
 8945TIP3    H251031   7.449   5.741   1.941 -1.1997  0.0667  0.6968
 8946TIP3   OH251032   0.335   4.918   1.811 -0.1247 -0.0999  0.3043
 8946TIP3    H151033   0.263   4.934   1.749 -0.3707 -0.8171  0.3897
 8946TIP3    H251034   0.396   4.862   1.762  0.7138  1.0421  0.0056
 8947TIP3   OH251035   2.690   2.350   2.767  0.2178  0.5430 -0.0287
 8947TIP3    H151036   2.669   2.266   2.807 -1.8896  1.2450  0.4699
 8947TIP3    H251037   2.767   2.332   2.712  0.3800 -1.4718  0.7675
 8948TIP3   OH251038   2.361   4.362   1.897 -0.4103 -0.4494 -0.0321
 8948TIP3    H151039   2.317   4.358   1.982  0.0928 -2.0456  0.1847
 8948TIP3    H251040   2.412   4.443   1.900 -0.3735 -0.4998  1.2096
 8949TIP3   OH251041   5.815   5.299   2.881 -0.5971 -0.8496  0.0793
 8949TIP3    H151042   5.779   5.318   2.795 -1.8238 -0.0929  0.7315
 8949TIP3    H251043   5.796   5.206   2.895  1.5284 -1.5728 -1.3057
 8950TIP3   OH251044   4.980   1.188   2.019  0.2110  0.1292 -0.3808
 8950TIP3    H151045   5.049   1.224   2.074  0.3064  0.3930 -0.6702
 8950TIP3    H251046   5.001   1.220   1.931  1.0388 -1.6779 -0.8911
 8951TIP3   OH251047   0.816   2.778   0.752  0.0315 -0.4765  0.3456
 8951TIP3    H151048   0.828   2.715   0.681 -0.6878  1.0624 -1.2209
 8951TIP3    H251049   0.813   2.863   0.708 -3.6424  0.3339  1.8053
 8952TIP3   OH251050   5.981   4.588   2.829  0.1013 -0.0467  0.2287
 8952TIP3    H151051   6.055   4.565   2.885 -0.9921 -1.7399  1.0623
 8952TIP3    H251052   5.981   4.684   2.826  1.7674 -0.0093  0.9441
 8953TIP3   OH251053   7.169   4.856   0.577 -0.2362  0.4170  0.3507
 8953TIP3    H151054   7.155   4.939   0.531  0.0843 -1.1310 -2.8075
 8953TIP3    H251055   7.085   4.811   0.570  0.3327 -0.5726 -0.3669
 8954TIP3   OH251056   6.295   6.599   1.780  0.0156 -0.6139 -0.2016
 8954TIP3    H151057   6.360   6.547   1.828  1.6272  1.5736  0.1224
 8954TIP3    H251058   6.338   6.621   1.697  0.1216  1.6200  0.3866
 8955TIP3   OH251059   3.945   1.112   2.272 -0.2744  0.4094 -0.0981
 8955TIP3    H151060   3.956   1.045   2.205  0.0707 -0.4924  0.8297
 8955TIP3    H251061   3.875   1.167   2.240 -0.5235 -0.3621 -0.9172
 8956TIP3   OH251062   0.934   7.118   1.338 -0.1942 -0.0705  0.4613
 8956TIP3    H151063   1.013   7.170   1.324 -1.1748  1.5096  0.5814
 8956TIP3    H251064   0.953   7.067   1.417  0.8971 -0.1473  0.1740
 8957TIP3   OH251065   1.831   1.660   1.565 -0.3440 -0.2029  0.0093
 8957TIP3    H151066   1.762   1.721   1.590  0.8806  0.6015  1.5629
 8957TIP3    H251067   1.896   1.667   1.634  0.5080 -2.2375 -0.5113
 8958TIP3   OH251068   1.765   0.494   1.153  0.0298  0.5803 -0.6028
 8958TIP3    H151069   1.774   0.533   1.240 -1.4461  1.0385 -0.6118
 8958TIP3    H251070   1.799   0.561   1.094 -0.6996  1.0722 -0.4839
 8959TIP3   OH251071   2.859   5.199   2.032  0.1835  0.2557  0.0291
 8959TIP3    H151072   2.845   5.267   1.967 -0.1253  0.8427  0.6938
 8959TIP3    H251073   2.954   5.188   2.036  0.3326  1.5579  0.8039
 8960TIP3   OH251074   2.185   2.961   2.975 -0.5338  0.7158  0.2378
 8960TIP3    H151075   2.247   3.013   3.028  0.6203  1.0684 -1.3889
 8960TIP3    H251076   2.102   3.007   2.985 -0.1427  1.2920  1.0151
 8961TIP3   OH251077   0.218   6.907   1.892 -0.5117 -0.0131 -0.0478
 8961TIP3    H151078   0.262   6.822   1.898 -1.0431 -0.3524 -0.8838
 8961TIP3    H251079   0.146   6.900   1.955 -1.0819 -0.5143 -0.7386
 8962TIP3   OH251080   0.766   5.333   2.050 -0.4166 -0.6866 -1.0616
 8962TIP3    H151081   0.805   5.293   1.972  0.5895  0.6496 -1.2742
 8962TIP3    H251082   0.672   5.317   2.040 -0.3268 -0.4432 -2.6395
 8963TIP3   OH251083   3.131   6.797   3.383  0.2649  0.5907  0.1415
 8963TIP3    H151084   3.213   6.831   3.417 -0.0934  0.3005  1.3359
 8963TIP3    H251085   3.064   6.854   3.420 -0.1993 -0.2567  0.6347
 8964TIP3   OH251086   4.963   6.602   1.812 -0.1553 -0.3939  0.5581
 8964TIP3    H151087   4.953   6.664   1.740  0.9658  0.4163  1.0797
 8964TIP3    H251088   5.048   6.562   1.798  0.7261  0.7960  2.1663
 8965TIP3   OH251089   2.574   6.998   0.823 -0.1624  0.5657  0.0932
 8965TIP3    H151090   2.572   6.903   0.832 -1.3767  0.6014  0.4659
 8965TIP3    H251091   2.482   7.023   0.810  0.1886  1.6460 -0.4748
 8966TIP3   OH251092   5.440   0.144   1.392  0.3346  0.1652 -0.0714
 8966TIP3    H151093   5.374   0.165   1.326 -0.5452  1.3198  1.1255
 8966TIP3    H251094   5.510   0.207   1.376 -0.2699  1.0330  0.6291
 8967TIP3   OH251095   0.359   7.325   3.487  0.5743 -0.3604 -0.1573
 8967TIP3    H151096   0.375   7.395   3.550 -0.4348  0.2055 -0.5078
 8967TIP3    H251097   0.387   7.361   3.403 -2.7548  0.8589 -0.8844
 8968TIP3   OH251098   2.634   3.939   2.764  0.5839 -0.0997 -0.6001
 8968TIP3    H151099   2.677   3.919   2.681 -0.2521  1.9684 -1.5985
 8968TIP3    H251100   2.541   3.933   2.745  0.3774 -0.5510  0.4740
 8969TIP3   OH251101   3.499   4.203   1.009 -0.1127 -0.0641 -0.0268
 8969TIP3    H151102   3.593   4.222   1.007 -0.2322  0.5313 -1.8546
 8969TIP3    H251103   3.481   4.162   0.925 -1.5926  0.2846  0.0853
 8970TIP3   OH251104   4.477   5.461   2.072  0.0496  0.5169 -0.0550
 8970TIP3    H151105   4.543   5.497   2.130  0.0602  1.3499 -0.5767
 8970TIP3    H251106   4.419   5.412   2.130  0.6037  0.5305  0.5255
 8971TIP3   OH251107   0.604   6.116   2.850 -0.6864 -0.2327 -1.0848
 8971TIP3    H151108   0.573   6.119   2.941 -0.5648  0.3481 -1.0625
 8971TIP3    H251109   0.613   6.207   2.824  1.0811 -0.3775 -1.0700
 8972TIP3   OH251110   5.416   5.871   1.702 -0.0028  0.1717 -0.3904
 8972TIP3    H151111   5.355   5.811   1.659  1.4631 -1.6747 -0.0668
 8972TIP3    H251112   5.463   5.913   1.630 -0.3049  0.1239 -0.6184
 8973TIP3   OH251113   1.266   5.321   2.008  0.0328 -0.1318  0.5114
 8973TIP3    H151114   1.230   5.364   1.931  0.0017 -1.0238  0.0106
 8973TIP3    H251115   1.190   5.305   2.064  0.4446  4.1281  2.6965
 8974TIP3   OH251116   6.997   6.569   2.839  0.0488  0.0671 -0.5768
 8974TIP3    H151117   6.931   6.606   2.897 -1.1470  0.0308 -1.8523
 8974TIP3    H251118   7.039   6.646   2.799  1.5006  0.1250  0.9187
 8975TIP3   OH251119   5.216   0.738   1.251  0.0680  0.3090  0.4333
 8975TIP3    H151120   5.173   0.816   1.214 -0.7775  0.2157  1.2098
 8975TIP3    H251121   5.309   0.752   1.232  0.1439  2.3233  2.0010
 8976TIP3   OH251122   2.091   7.377   2.204  0.3962  0.3509  0.2528
 8976TIP3    H151123   2.049   7.445   2.151  1.6771  0.2369 -0.9541
 8976TIP3    H251124   2.164   7.346   2.151  0.9196 -0.7284  1.5354
 8977TIP3   OH251125   6.041   7.331   1.001 -0.1718 -0.3513  0.3277
 8977TIP3    H151126   5.968   7.295   0.951  1.4901 -2.9859 -0.4449
 8977TIP3    H251127   6.030   7.296   1.089  0.8838 -2.0789 -0.1687
 8978TIP3   OH251128   4.414   1.852   1.867 -0.6047  0.0096 -0.2990
 8978TIP3    H151129   4.393   1.945   1.871  2.7811  0.8814 -0.0994
 8978TIP3    H251130   4.384   1.824   1.780 -0.2206  1.6989 -1.0064
 8979TIP3   OH251131   4.560   0.254   1.989  0.5247  0.5021  0.1874
 8979TIP3    H151132   4.546   0.349   1.996 -0.1903  0.3582  0.7517
 8979TIP3    H251133   4.473   0.217   1.981  0.8059 -0.1148 -0.0901
 8980TIP3   OH251134   5.744   1.323   1.733  0.3028 -0.5258 -0.5931
 8980TIP3    H151135   5.761   1.234   1.764 -0.6019 -0.4969  0.0141
 8980TIP3    H251136   5.723   1.373   1.812 -1.6396 -0.3590 -1.1678
 8981TIP3   OH251137   0.181   0.898   2.711 -0.0380 -0.3717 -0.3326
 8981TIP3    H151138   0.181   0.978   2.658  0.4825 -0.6868 -0.8287
 8981TIP3    H251139   0.089   0.878   2.726 -0.1785  0.0182 -0.6769
 8982TIP3   OH251140   2.850   0.535   1.450  0.2726  0.2274 -0.3980
 8982TIP3    H151141   2.858   0.616   1.500 -0.5268  0.3917 -0.5146
 8982TIP3    H251142   2.774   0.490   1.488 -0.9751  0.8163 -2.0554
 8983TIP3   OH251143   3.789   1.638   1.969  0.2528 -0.2514 -0.2201
 8983TIP3    H151144   3.814   1.709   2.028  0.4410 -1.5906  1.3693
 8983TIP3    H251145   3.703   1.610   2.000  0.5946 -1.3313 -0.2163
 8984TIP3   OH251146   1.044   6.066   1.048  0.1122  0.3987  0.2672
 8984TIP3    H151147   1.045   6.160   1.030 -1.2194  0.4272  0.2109
 8984TIP3    H251148   1.015   6.060   1.139  0.0311  0.0346  0.2174
 8985TIP3   OH251149   3.541   3.767   0.739 -0.0621 -0.1178 -0.5173
 8985TIP3    H151150   3.452   3.732   0.732  0.4113 -1.2554 -0.9935
 8985TIP3    H251151   3.566   3.751   0.830  0.4508 -1.8397 -0.9220
 8986TIP3   OH251152   4.069   1.823   1.057  0.1113 -0.0400  0.1701
 8986TIP3    H151153   4.031   1.873   1.129 -1.2269  0.7804 -1.0475
 8986TIP3    H251154   4.090   1.889   0.990  0.5860 -0.8535 -0.5104
 8987TIP3   OH251155   0.976   1.475   2.286  0.1541  0.4802 -0.8161
 8987TIP3    H151156   1.056   1.528   2.290  1.2728 -1.1765 -0.2515
 8987TIP3    H251157   0.960   1.449   2.377  0.7274 -1.6595 -1.2717
 8988TIP3   OH251158   3.469   5.929   2.176  0.3208 -0.3117  0.1871
 8988TIP3    H151159   3.421   6.006   2.146 -0.1496 -0.1606  1.2858
 8988TIP3    H251160   3.557   5.940   2.140  0.3281  0.8696  0.5150
 8989TIP3   OH251161   5.056   4.130   2.034  0.0389 -0.3666  0.5534
 8989TIP3    H151162   5.079   4.043   2.066 -1.3809 -0.6399  0.9240
 8989TIP3    H251163   5.117   4.147   1.962 -0.8401 -2.4483 -0.7633
 8990TIP3   OH251164   2.216   4.888   1.921 -0.4965  0.2089  0.1764
 8990TIP3    H151165   2.222   4.982   1.935 -0.3243  0.6173 -2.2113
 8990TIP3    H251166   2.132   4.863   1.960 -1.1639  1.6110 -0.3062
 8991TIP3   OH251167   1.973   1.386   0.768  0.2870 -0.4056 -0.2709
 8991TIP3    H151168   1.878   1.381   0.775  0.2389 -0.9567 -1.1803
 8991TIP3    H251169   1.992   1.480   0.766 -0.0807 -0.2530  1.6371
 8992TIP3   OH251170   1.692   2.965   1.154  0.0345 -0.4467 -0.5653
 8992TIP3    H151171   1.775   2.947   1.110  0.2413  1.3365 -0.9864
 8992TIP3    H251172   1.701   2.926   1.240  1.5179  0.1235 -0.4387
 8993TIP3   OH251173   2.330   4.815   2.521 -0.1813 -0.0670  0.0560
 8993TIP3    H151174   2.424   4.836   2.521 -0.0477 -0.6130  1.0947
 8993TIP3    H251175   2.323   4.736   2.467 -0.1258  0.2854 -0.4741
 8994TIP3   OH251176   4.837   6.719   1.085  0.0267  0.3155 -0.3090
 8994TIP3    H151177   4.847   6.812   1.102  0.6102  0.2363 -0.2201
 8994TIP3    H251178   4.815   6.681   1.170 -1.6040  0.5506 -0.5803
 8995TIP3   OH251179   3.148   5.625   2.353 -0.0879 -0.0473 -0.1542
 8995TIP3    H151180   3.096   5.545   2.343 -1.1165  0.6399 -0.4085
 8995TIP3    H251181   3.113   5.685   2.287 -0.0962  1.0121  0.7832
 8996TIP3   OH251182   2.894   6.906   3.126 -0.1484 -0.5661  0.0142
 8996TIP3    H151183   2.935   6.991   3.112 -2.1779  0.5460  0.5233
 8996TIP3    H251184   2.884   6.899   3.221 -2.6322  0.0170 -0.1277
 8997TIP3   OH251185   2.007   3.326   2.303  0.0829  0.1776  0.0603
 8997TIP3    H151186   1.942   3.368   2.360 -0.8514  0.0792 -0.9183
 8997TIP3    H251187   1.996   3.368   2.218 -0.3676 -1.5243 -0.7471
 8998TIP3   OH251188   2.237   1.900   2.901  0.2672  0.4186  0.5069
 8998TIP3    H151189   2.220   1.934   2.813 -1.4929 -0.2119  0.5656
 8998TIP3    H251190   2.332   1.905   2.910  0.4422  1.0645 -1.1926
 8999TIP3   OH251191   3.635   3.163   3.255  0.1879 -0.1862 -0.1159
 8999TIP3    H151192   3.575   3.109   3.307  1.5441 -2.4023 -0.6923
 8999TIP3    H251193   3.599   3.251   3.261 -1.3846 -0.8768  2.0528
 9000TIP3   OH251194   0.834   3.166   2.527 -0.4519  0.3925  0.0222
 9000TIP3    H151195   0.765   3.105   2.554 -0.0290  0.1998  0.6879
 9000TIP3    H251196   0.889   3.177   2.605  3.0255 -3.0703 -1.5997
 9001TIP3   OH251197   2.909   1.073   1.072 -0.1644 -0.0266  0.2958
 9001TIP3    H151198   2.867   1.050   1.155 -1.5832 -0.2501 -0.4540
 9001TIP3    H251199   2.868   1.156   1.048  0.1480 -0.0314 -0.2476
 9002TIP3   OH251200   5.562   1.041   2.890  0.2629  0.7808 -0.5537
 9002TIP3    H151201   5.596   0.966   2.939 -0.2004  1.8472  1.5333
 9002TIP3    H251202   5.640   1.089   2.863  0.5389  1.0887  0.7059
 9003TIP3   OH251203   5.997   3.378   0.579 -0.7289  0.1447  0.0255
 9003TIP3    H151204   5.957   3.389   0.666  0.6399 -1.7220  0.9862
 9003TIP3    H251205   5.962   3.294   0.548  0.8542 -0.5474  0.0319
 9004TIP3   OH251206   6.919   0.914   1.504  0.7705 -0.0783  0.4877
 9004TIP3    H151207   6.874   0.999   1.506  1.6985  0.5795 -2.0913
 9004TIP3    H251208   6.981   0.918   1.577 -0.1439  0.8977  1.2374
 9005TIP3   OH251209   1.668   3.472   1.742 -0.2754 -0.3092 -0.0777
 9005TIP3    H151210   1.669   3.567   1.728 -0.8350 -0.2094  0.5146
 9005TIP3    H251211   1.576   3.447   1.734 -0.0928 -0.8590 -0.5497
 9006TIP3   OH251212   7.471   0.807   1.379 -0.0100 -1.1786  0.2129
 9006TIP3    H151213   7.387   0.851   1.387  0.6967  0.6768 -1.7473
 9006TIP3    H251214   7.516   0.828   1.461  0.1421  1.5444 -0.4691
 9007TIP3   OH251215   6.075   5.484   1.949  0.2141 -0.3216 -0.2647
 9007TIP3    H151216   5.980   5.484   1.933 -0.3808  0.9524  2.6432
 9007TIP3    H251217   6.113   5.508   1.865 -1.9650 -1.6364 -1.7263
 9008TIP3   OH251218   2.931   1.101   2.518 -0.2726  0.4094  0.4742
 9008TIP3    H151219   2.960   1.182   2.559 -1.6113  0.7363  0.7990
 9008TIP3    H251220   2.898   1.127   2.432  1.1768 -0.0828 -0.2645
 9009TIP3   OH251221   7.048   1.275   3.249 -0.8297  0.2493  0.0061
 9009TIP3    H151222   7.076   1.256   3.338 -0.4066  0.1030 -0.1560
 9009TIP3    H251223   7.078   1.199   3.198 -0.9018  0.4207 -0.2930
 9010TIP3   OH251224   1.652   3.315   1.496 -0.2439  0.1619 -0.6148
 9010TIP3    H151225   1.645   3.337   1.588 -2.0950  0.5836 -0.8217
 9010TIP3    H251226   1.709   3.238   1.493 -1.2709 -0.7036  1.0120
 9011TIP3   OH251227   1.964   4.834   2.031  0.4537 -0.0431 -0.2375
 9011TIP3    H151228   1.883   4.881   2.010  0.0743 -0.1906  0.8240
 9011TIP3    H251229   1.939   4.741   2.032  0.4926 -0.0596  0.5965
 9012TIP3   OH251230   0.988   4.075   2.680  0.5993  0.0412 -0.0976
 9012TIP3    H151231   0.948   4.124   2.751  1.5459  1.1798 -0.3166
 9012TIP3    H251232   0.980   3.983   2.707 -0.5077  0.3457  0.6874
 9013TIP3   OH251233   2.169   1.605   1.624  0.3051  0.1097  0.3547
 9013TIP3    H151234   2.182   1.523   1.673  0.5563 -0.0159  0.0843
 9013TIP3    H251235   2.130   1.665   1.687 -0.5397 -0.4392  0.3640
 9014TIP3   OH251236   4.922   2.490   1.121  0.6178  0.0490  0.0019
 9014TIP3    H151237   4.886   2.570   1.158  1.2288  0.8640 -1.1021
 9014TIP3    H251238   4.847   2.431   1.113  0.0490  0.7330  0.2647
 9015TIP3   OH251239   2.333   3.319   1.087 -0.0754  0.4311 -0.4631
 9015TIP3    H151240   2.310   3.389   1.026  0.8692 -0.9771 -2.5243
 9015TIP3    H251241   2.249   3.281   1.113 -0.4542  0.2911 -1.8442
 9016TIP3   OH251242   3.353   2.044   1.098 -0.4416  0.0455  0.2363
 9016TIP3    H151243   3.360   2.137   1.076 -2.1257  0.5557  1.6378
 9016TIP3    H251244   3.370   1.999   1.015 -0.1935  1.6089 -0.6073
 9017TIP3   OH251245   6.858   2.972   1.736  0.0400  0.5679 -0.3321
 9017TIP3    H151246   6.801   2.916   1.685 -0.4969  0.7681  0.0456
 9017TIP3    H251247   6.911   2.912   1.789 -1.8540  0.4274  1.5103
 9018TIP3   OH251248   6.850   3.819   2.344 -0.5089  0.4899  0.2348
 9018TIP3    H151249   6.799   3.872   2.406  0.1703  1.6183 -0.1256
 9018TIP3    H251250   6.928   3.792   2.393 -0.6583  0.1785  0.2976
 9019TIP3   OH251251   3.808   1.104   3.337 -0.3745 -0.2024 -0.1627
 9019TIP3    H151252   3.863   1.175   3.371  0.2638 -1.0901  0.7542
 9019TIP3    H251253   3.869   1.030   3.329 -1.4720 -1.2950  1.1481
 9020TIP3   OH251254   1.701   3.746   1.661 -0.2651  0.5448  0.0447
 9020TIP3    H151255   1.621   3.734   1.610  0.1645  0.7409 -0.6879
 9020TIP3    H251256   1.737   3.829   1.629  0.1519  0.5315  0.4768
 9021TIP3   OH251257   4.607   2.510   0.923  0.5293 -0.0025 -0.1063
 9021TIP3    H151258   4.570   2.488   0.837  0.4692 -0.6868  0.0956
 9021TIP3    H251259   4.667   2.582   0.905  1.3654 -0.8809 -0.8928
 9022TIP3   OH251260   6.509   4.172   0.771  0.0244 -0.4348 -0.0973
 9022TIP3    H151261   6.590   4.161   0.721 -0.2015  1.6134 -1.0488
 9022TIP3    H251262   6.447   4.209   0.708 -0.7330  0.8478  1.3159
 9023TIP3   OH251263   7.229   0.914   1.356  0.4013  0.4596 -0.2521
 9023TIP3    H151264   7.168   0.912   1.282  0.0296  1.3007  0.0144
 9023TIP3    H251265   7.229   1.006   1.384 -0.9268 -0.1352  1.9641
 9024TIP3   OH251266   0.587   5.839   2.770 -0.5956 -0.3329  0.3841
 9024TIP3    H151267   0.594   5.934   2.775  0.9495 -0.4161  0.2365
 9024TIP3    H251268   0.499   5.823   2.736 -1.3078  0.9915  1.4910
 9025TIP3   OH251269   0.692   3.415   1.479 -0.1464 -0.1893 -0.6117
 9025TIP3    H151270   0.765   3.413   1.542 -0.5841  2.9974  0.1545
 9025TIP3    H251271   0.717   3.350   1.412  0.6960 -3.1891  2.3307
 9026TIP3   OH251272   5.995   6.959   1.199  0.2778  0.3941 -0.2755
 9026TIP3    H151273   5.907   6.934   1.227  0.8759 -3.1711 -1.0874
 9026TIP3    H251274   6.052   6.927   1.270  1.1089 -0.5419 -1.3244
 9027TIP3   OH251275   3.819   6.031   1.120  0.4571  0.2360  0.1718
 9027TIP3    H151276   3.835   6.002   1.210 -2.5031 -2.0160  0.1306
 9027TIP3    H251277   3.740   6.085   1.126 -0.7702 -1.2975 -1.1887
 9028TIP3   OH251278   0.028   2.616   2.738  0.0014  0.0967  0.1031
 9028TIP3    H151279   0.074   2.540   2.702  0.8180 -0.4196  2.0996
 9028TIP3    H251280  -0.063   2.589   2.745 -0.0441 -0.0390 -0.8307
 9029TIP3   OH251281   0.549   6.944   2.214  0.7634 -0.2970  0.3687
 9029TIP3    H151282   0.590   6.874   2.164 -0.7813 -1.3610  0.5106
 9029TIP3    H251283   0.605   6.953   2.292 -0.0652 -2.8621  1.3901
 9030TIP3   OH251284   3.097   2.521   2.212  0.7709 -0.6240  0.1406
 9030TIP3    H151285   3.070   2.437   2.176 -0.0796  0.4082 -1.7921
 9030TIP3    H251286   3.186   2.506   2.244  1.2298 -1.8822 -1.5873
 9031TIP3   OH251287   2.798   7.395   0.647  0.3273  0.2316 -0.3979
 9031TIP3    H151288   2.871   7.455   0.656  0.1401  0.2889  1.0082
 9031TIP3    H251289   2.806   7.336   0.722 -1.1779  0.3911 -0.0714
 9032TIP3   OH251290   4.959   5.047   1.958  0.2005  0.0539 -0.9209
 9032TIP3    H151291   4.968   4.971   2.016  0.4886  0.0916 -0.9150
 9032TIP3    H251292   4.893   5.020   1.894 -2.8092  1.2800  1.4564
 9033TIP3   OH251293   3.186   2.005   0.833 -0.2241  0.2193  0.4909
 9033TIP3    H151294   3.144   1.939   0.779  1.6642 -1.0691  0.4902
 9033TIP3    H251295   3.277   1.975   0.841  1.2193  3.6573 -0.9568
 9034TIP3   OH251296   4.038   0.929   3.348 -0.1876 -0.4872  0.1972
 9034TIP3    H151297   3.978   0.864   3.382  1.4333 -2.4490 -0.5080
 9034TIP3    H251298   4.095   0.951   3.422 -0.1585 -0.5634  0.1972
 9035TIP3   OH251299   2.262   0.176   3.038 -0.1359 -0.7503  0.0340
 9035TIP3    H151300   2.217   0.116   3.097 -0.8504 -1.0572 -0.8023
 9035TIP3    H251301   2.192   0.217   2.987  0.3105  1.0244  0.7875
 9036TIP3   OH251302   2.816   1.069   1.378 -0.3194  0.0746 -0.3148
 9036TIP3    H151303   2.777   1.144   1.424 -0.4194  0.5607 -1.1709
 9036TIP3    H251304   2.741   1.024   1.339 -0.0932  0.8001 -1.6556
 9037TIP3   OH251305   5.403   0.190   0.736 -0.4887 -0.5246  0.4206
 9037TIP3    H151306   5.466   0.126   0.769  0.8597  0.9826  0.8924
 9037TIP3    H251307   5.451   0.273   0.733 -1.8194  0.2692 -1.2790
 9038TIP3   OH251308   3.057   4.131   1.438  0.3535 -0.2186 -0.3978
 9038TIP3    H151309   3.047   4.157   1.346 -1.1156 -0.3785 -0.3120
 9038TIP3    H251310   3.109   4.201   1.477 -1.0362  1.1148 -0.8397
 9039TIP3   OH251311   1.229   6.909   2.768  0.2790 -0.1898 -0.0008
 9039TIP3    H151312   1.224   6.956   2.685  2.2871  0.3077  0.1001
 9039TIP3    H251313   1.318   6.926   2.800 -0.8465  0.7756  2.9355
 9040TIP3   OH251314   0.639   6.966   0.965 -0.1054  0.0464 -0.4040
 9040TIP3    H151315   0.647   7.023   1.042 -1.9783 -0.0773 -0.0771
 9040TIP3    H251316   0.602   6.884   0.999 -2.2466  0.4568 -1.5673
 9041TIP3   OH251317   1.232   7.017   2.119 -0.6690  0.1457  0.0677
 9041TIP3    H151318   1.270   6.994   2.034 -0.1729 -0.1167  0.3581
 9041TIP3    H251319   1.206   7.108   2.110  1.4892  0.8441  0.3801
 9042TIP3   OH251320   1.260   5.444   1.502 -0.0001 -0.7130  0.6578
 9042TIP3    H151321   1.197   5.513   1.482 -0.1186 -0.9510  0.1998
 9042TIP3    H251322   1.218   5.363   1.475  0.1089 -0.9810  1.2644
 9043TIP3   OH251323   3.715   0.805   1.390  0.0506 -0.0938 -0.5707
 9043TIP3    H151324   3.788   0.867   1.401 -0.6715  0.8888 -1.1837
 9043TIP3    H251325   3.641   0.859   1.364 -0.7516 -1.1613 -0.5817
 9044TIP3   OH251326   0.286   1.957   2.021 -0.1032  0.5477  0.0590
 9044TIP3    H151327   0.353   2.019   2.051 -0.1860  0.1213  1.1848
 9044TIP3    H251328   0.337   1.884   1.984 -0.0123  1.6137 -2.0810
 9045TIP3   OH251329   5.938   6.634   2.439  0.2008 -0.0238  0.4123
 9045TIP3    H151330   5.968   6.617   2.528  0.9016  1.3351  0.4638
 9045TIP3    H251331   5.889   6.715   2.446  0.2842  0.1065 -0.4466
 9046TIP3   OH251332   5.510   7.281   0.469  0.0619 -0.4652  0.3328
 9046TIP3    H151333   5.498   7.375   0.484  2.6962 -0.2143  1.3723
 9046TIP3    H251334   5.460   7.238   0.538 -0.4052  0.1759  0.4013
 9047TIP3   OH251335   0.729   0.897   1.890  0.5238  0.0722  0.3265
 9047TIP3    H151336   0.685   0.816   1.862  2.5991  0.3050 -4.6530
 9047TIP3    H251337   0.658   0.960   1.903 -0.9905 -0.6785 -3.1573
 9048TIP3   OH251338   4.320   0.950   1.052 -0.5823  0.3414  0.2360
 9048TIP3    H151339   4.315   0.925   0.959 -1.6105  0.4943  0.2332
 9048TIP3    H251340   4.261   1.025   1.059 -0.8969  0.0195  1.1119
 9049TIP3   OH251341   6.288   5.330   2.062  0.2640  0.1697 -0.7864
 9049TIP3    H151342   6.231   5.358   1.990  1.3212 -1.0514 -2.1794
 9049TIP3    H251343   6.336   5.408   2.087  2.4409  0.0429 -3.9022
 9050TIP3   OH251344   7.226   2.120   1.313 -0.5629 -0.6526  0.3948
 9050TIP3    H151345   7.169   2.197   1.321  1.7568  1.0145  2.4678
 9050TIP3    H251346   7.237   2.108   1.219 -2.7935  0.0872 -0.0229
 9051TIP3   OH251347   6.365   2.336   2.236 -0.2483  0.0287 -0.4617
 9051TIP3    H151348   6.397   2.426   2.234  0.4382 -0.1937  0.0339
 9051TIP3    H251349   6.385   2.306   2.324  0.0650 -0.7908 -0.8014
 9052TIP3   OH251350   6.298   4.988   1.029 -0.4857  0.5909 -0.4714
 9052TIP3    H151351   6.349   5.010   1.107  1.0986 -2.6547 -0.4600
 9052TIP3    H251352   6.207   4.992   1.058 -0.1196  2.6026  0.5957
 9053TIP3   OH251353   0.063   0.321   1.241 -0.7058  0.5311 -0.0441
 9053TIP3    H151354   0.119   0.244   1.251 -0.3341  0.4105 -2.3989
 9053TIP3    H251355  -0.020   0.286   1.211 -0.9923  0.9581  0.2496
 9054TIP3   OH251356   2.419   1.117   2.775 -0.6334 -0.2133  0.0586
 9054TIP3    H151357   2.400   1.206   2.746  1.3112 -0.1236 -1.1086
 9054TIP3    H251358   2.493   1.127   2.834  1.0165 -1.1932 -1.7317
 9055TIP3   OH251359   3.585   0.876   3.364 -0.5597  0.0176  0.4936
 9055TIP3    H151360   3.638   0.847   3.290 -0.0083  1.3365  0.3422
 9055TIP3    H251361   3.641   0.860   3.440 -0.0364  1.1481  0.3599
 9056TIP3   OH251362   5.566   0.765   1.138  0.2970 -0.2817 -0.7185
 9056TIP3    H151363   5.610   0.845   1.110  2.9568 -1.4937 -0.3349
 9056TIP3    H251364   5.577   0.764   1.233  0.0281 -0.9462 -0.6916
 9057TIP3   OH251365   1.328   0.112   0.865  0.6474  0.2263  0.2183
 9057TIP3    H151366   1.274   0.169   0.810  0.1952 -0.7735 -0.4099
 9057TIP3    H251367   1.390   0.072   0.805  0.3574 -0.6364  0.4684
 9058TIP3   OH251368   6.098   4.716   1.638  0.2395  0.0857  0.5010
 9058TIP3    H151369   6.168   4.727   1.573 -0.3095 -1.2999 -0.3655
 9058TIP3    H251370   6.027   4.772   1.607  0.6994  0.9630  1.0070
 9059TIP3   OH251371   3.398   3.038   0.967  0.1012 -0.3625  0.4806
 9059TIP3    H151372   3.408   2.950   1.002  0.8587 -0.3306  0.3776
 9059TIP3    H251373   3.487   3.075   0.971 -0.2223  0.4269  0.6145
 9060TIP3   OH251374   4.514   5.143   2.423  0.3641  0.5973 -0.0719
 9060TIP3    H151375   4.515   5.209   2.491  1.4061 -0.3901  0.9219
 9060TIP3    H251376   4.602   5.147   2.384  1.1112 -1.4018  1.2666
 9061TIP3   OH251377   3.265   0.015   2.481  0.1772  0.1036 -0.6326
 9061TIP3    H151378   3.258   0.094   2.536 -4.4807  1.1079 -2.1780
 9061TIP3    H251379   3.295   0.047   2.396  2.0999 -0.5685 -0.2607
 9062TIP3   OH251380   5.453   3.792   1.387 -0.3621 -0.8406 -0.0842
 9062TIP3    H151381   5.405   3.793   1.304  0.0801 -1.5948 -0.3552
 9062TIP3    H251382   5.544   3.803   1.362 -0.2561 -0.8170  0.3179
 9063TIP3   OH251383   0.797   1.653   2.652  0.3268 -0.0978 -0.4793
 9063TIP3    H151384   0.854   1.590   2.608  1.2257  1.4123 -1.5919
 9063TIP3    H251385   0.716   1.652   2.601  0.8827  0.6787 -1.4261
 9064TIP3   OH251386   1.560   2.276   2.521 -0.1472  0.0031  0.4975
 9064TIP3    H151387   1.624   2.207   2.539 -0.4766 -0.3896  0.1723
 9064TIP3    H251388   1.604   2.335   2.459 -0.4871 -0.8572 -0.5855
 9065TIP3   OH251389   1.174   5.432   2.798  0.1490  0.2327 -0.0921
 9065TIP3    H151390   1.138   5.512   2.759  2.2371  1.2155 -0.1419
 9065TIP3    H251391   1.268   5.450   2.806  0.4070 -1.5635  1.5232
 9066TIP3   OH251392   5.549   1.854   0.551 -0.4660 -0.0463 -0.0057
 9066TIP3    H151393   5.538   1.949   0.560  3.5027  0.7145 -1.3440
 9066TIP3    H251394   5.460   1.821   0.538 -2.0358  3.4195  0.8012
 9067TIP3   OH251395   1.302   6.510   1.951 -0.6348  0.2159  0.1702
 9067TIP3    H151396   1.237   6.539   1.887 -0.5824 -0.2668 -0.1010
 9067TIP3    H251397   1.344   6.435   1.910  1.1569  1.4252 -0.3501
 9068TIP3   OH251398   6.567   4.001   2.071  0.4273 -0.1915  0.2990
 9068TIP3    H151399   6.534   4.083   2.034  4.0779  1.0622 -0.6130
 9068TIP3    H251400   6.520   3.991   2.154 -0.9976  2.1859 -0.1420
 9069TIP3   OH251401   0.675   5.447   1.093 -0.2122  0.7869  0.5381
 9069TIP3    H151402   0.769   5.465   1.095  0.2565 -1.2627 -0.8042
 9069TIP3    H251403   0.660   5.390   1.169  0.3072 -1.5827 -1.0517
 9070TIP3   OH251404   3.781   6.299   1.254 -0.5124 -0.2311 -0.8526
 9070TIP3    H151405   3.687   6.299   1.271 -0.2634 -0.6305  0.6752
 9070TIP3    H251406   3.809   6.388   1.273 -0.3125 -0.5611  0.5344
 9071TIP3   OH251407   5.463   2.635   0.703 -0.5503  0.4376  0.7080
 9071TIP3    H151408   5.522   2.604   0.772 -0.3028  0.2721  0.4266
 9071TIP3    H251409   5.467   2.730   0.708 -2.0323  0.4866  2.2015
 9072TIP3   OH251410   5.279   0.116   2.141  0.3920  0.0786  0.2273
 9072TIP3    H151411   5.188   0.147   2.143  0.3207 -0.0882 -0.3058
 9072TIP3    H251412   5.328   0.189   2.102  0.2969 -0.2877 -0.5960
 9073TIP3   OH251413   7.394   5.945   0.357  0.3651 -0.0018  0.0553
 9073TIP3    H151414   7.326   5.907   0.411 -1.2710  1.5005 -0.8539
 9073TIP3    H251415   7.405   5.883   0.285 -1.7052  0.7725 -0.9938
 9074TIP3   OH251416   2.072   4.612   2.492  0.3462 -0.1169 -0.4690
 9074TIP3    H151417   2.117   4.635   2.412 -0.1943  0.3092 -0.6526
 9074TIP3    H251418   2.018   4.688   2.514  0.3107 -0.3119  0.1707
 9075TIP3   OH251419   7.059   3.219   0.552  0.2441 -0.0168 -0.0300
 9075TIP3    H151420   7.093   3.233   0.640 -1.0360 -1.4552  0.7307
 9075TIP3    H251421   7.132   3.181   0.503  0.4953 -0.6890  0.8575
 9076TIP3   OH251422   7.249   5.473   1.234 -0.0197  0.3209  0.2675
 9076TIP3    H151423   7.276   5.409   1.169  2.5276  1.3696  0.1672
 9076TIP3    H251424   7.206   5.542   1.183  0.3411  0.3008 -0.0670
 9077TIP3   OH251425   3.420   2.746   2.514 -0.2841 -0.0218 -0.1569
 9077TIP3    H151426   3.462   2.660   2.520  0.7784  0.4909 -0.0529
 9077TIP3    H251427   3.326   2.727   2.515 -0.1168 -1.0428  2.0791
 9078TIP3   OH251428   2.678   2.379   1.084  0.7402  0.1631  0.2438
 9078TIP3    H151429   2.667   2.374   0.989  1.6134 -0.4054  0.1666
 9078TIP3    H251430   2.674   2.473   1.103 -1.4580  0.1896 -0.0867
 9079TIP3   OH251431   5.819   0.840   0.776  0.6873 -0.7657  0.5621
 9079TIP3    H151432   5.862   0.797   0.850 -1.3541 -2.8534  0.6432
 9079TIP3    H251433   5.871   0.814   0.700  4.0800  3.0751  1.2179
 9080TIP3   OH251434   5.686   4.186   1.643 -0.5712  0.3686  0.0453
 9080TIP3    H151435   5.674   4.099   1.681 -0.6580  0.3493 -0.0271
 9080TIP3    H251436   5.776   4.210   1.666 -0.4471  0.1306 -0.2018
 9081TIP3   OH251437   6.789   6.972   0.997 -0.2105 -0.0418  0.6497
 9081TIP3    H151438   6.718   7.026   0.964 -1.4942 -2.1499 -0.2305
 9081TIP3    H251439   6.839   6.948   0.918  0.3170 -0.1773  1.0192
 9082TIP3   OH251440   3.586   4.005   2.952 -0.9126  0.2508  0.1841
 9082TIP3    H151441   3.574   3.944   2.878 -0.7818  0.5279 -0.0688
 9082TIP3    H251442   3.678   4.032   2.946 -0.7047 -0.2789  0.8802
 9083TIP3   OH251443   6.751   5.704   3.279 -0.1102  0.1064  0.6905
 9083TIP3    H151444   6.834   5.698   3.325  0.1326  0.5153  0.3168
 9083TIP3    H251445   6.761   5.647   3.203 -0.9384 -1.5206  1.7457
 9084TIP3   OH251446   1.830   5.343   3.079  0.0844  0.2998  0.0224
 9084TIP3    H151447   1.827   5.402   3.004 -1.7723  1.2980  0.8053
 9084TIP3    H251448   1.783   5.265   3.050 -0.0662  0.4232 -0.0670
 9085TIP3   OH251449   6.008   0.751   2.632  0.1406 -0.2929 -0.2542
 9085TIP3    H151450   6.100   0.734   2.614 -0.0297 -0.3331 -1.1042
 9085TIP3    H251451   5.982   0.682   2.694  0.5788 -0.5046 -0.3068
 9086TIP3   OH251452   4.490   4.765   0.657 -0.0984  0.3872 -0.3777
 9086TIP3    H151453   4.497   4.681   0.700  0.0804 -0.0743 -1.2812
 9086TIP3    H251454   4.509   4.747   0.565 -1.7091  1.1010 -0.9057
 9087TIP3   OH251455   7.281   3.021   0.639  0.5243 -0.0931  0.2896
 9087TIP3    H151456   7.319   3.099   0.599  0.9413 -0.8044 -0.7461
 9087TIP3    H251457   7.355   2.961   0.649  0.4374  0.0518  2.1643
 9088TIP3   OH251458   4.750   1.544   1.590 -0.3503 -0.5832  0.3590
 9088TIP3    H151459   4.756   1.467   1.646 -1.4620  0.3576  1.8445
 9088TIP3    H251460   4.728   1.616   1.649 -0.7228  0.6251 -1.1654
 9089TIP3   OH251461   3.084   4.837   0.379 -0.1007 -0.7210 -0.1742
 9089TIP3    H151462   3.135   4.867   0.453 -1.1918  1.2615 -0.1728
 9089TIP3    H251463   3.110   4.893   0.306 -0.5050 -1.2988 -0.7903
 9090TIP3   OH251464   1.184   2.243   2.774 -0.2903  0.3417  0.0810
 9090TIP3    H151465   1.156   2.289   2.695  0.2880 -1.0275 -0.9560
 9090TIP3    H251466   1.148   2.295   2.846  1.1124  2.9178 -0.9783
 9091TIP3   OH251467   2.075   5.263   3.185  0.0428 -0.4278 -0.1158
 9091TIP3    H151468   2.054   5.198   3.253 -2.6479 -1.6425 -1.9537
 9091TIP3    H251469   1.990   5.289   3.150  1.2848  1.1667 -2.1375
 9092TIP3   OH251470   1.811   6.465   0.961 -0.0480 -0.1604  0.0185
 9092TIP3    H151471   1.828   6.371   0.956  0.7916  0.0488 -2.2597
 9092TIP3    H251472   1.791   6.481   1.054  0.0125 -2.5210  0.4979
 9093TIP3   OH251473   0.556   1.990   3.102  0.0044 -0.1634  0.0199
 9093TIP3    H151474   0.593   2.050   3.167 -0.3016 -0.3295  0.3491
 9093TIP3    H251475   0.599   1.906   3.120 -1.0321 -0.5387  0.8703
 9094TIP3   OH251476   4.310   0.289   1.315  0.0720 -0.8335  0.3402
 9094TIP3    H151477   4.369   0.353   1.353  0.3268 -0.7768 -0.1344
 9094TIP3    H251478   4.252   0.263   1.386  0.4773 -0.6666  0.7328
 9095TIP3   OH251479   2.561   0.016   0.545 -0.0169  0.2206  0.5808
 9095TIP3    H151480   2.483  -0.040   0.546  0.4204 -0.4343 -0.4864
 9095TIP3    H251481   2.632  -0.043   0.571  0.1367  0.8231  1.5939
 9096TIP3   OH251482   5.053   7.288   2.233  0.3072  0.0359 -0.1162
 9096TIP3    H151483   5.017   7.286   2.322 -0.0734 -0.4350 -0.2754
 9096TIP3    H251484   5.044   7.198   2.202  0.3286  0.2238 -0.6725
 9097TIP3   OH251485   0.055   4.253   1.762 -0.3068 -0.0045 -0.9623
 9097TIP3    H151486   0.049   4.300   1.845  1.7811 -1.1753 -0.0569
 9097TIP3    H251487   0.109   4.177   1.782 -2.3660 -2.0687 -2.6744
 9098TIP3   OH251488   3.932   4.241   1.759  0.1141  0.2642  0.2065
 9098TIP3    H151489   3.843   4.222   1.789  0.4990 -2.7313 -0.2726
 9098TIP3    H251490   3.978   4.158   1.766  2.3588  1.2802 -1.3972
 9099TIP3   OH251491   4.149   2.988   0.980  0.4038  0.3332 -0.3447
 9099TIP3    H151492   4.160   2.897   1.007  0.7447 -0.1120 -1.8605
 9099TIP3    H251493   4.084   2.985   0.910  0.5431  1.2261 -0.5299
 9100TIP3   OH251494   1.894   2.805   0.554 -0.4121 -0.1973  0.3145
 9100TIP3    H151495   1.895   2.744   0.481  1.0180 -1.4849  1.3361
 9100TIP3    H251496   1.839   2.763   0.620 -0.3492  0.1522  0.5952
 9101TIP3   OH251497   1.623   0.077   1.107 -0.6521  0.2856  0.3443
 9101TIP3    H151498   1.639   0.102   1.016 -0.6288  0.5558  0.4197
 9101TIP3    H251499   1.628  -0.018   1.108  0.5610  0.3264  0.2795
 9102TIP3   OH251500   2.556   6.271   2.292  0.2536 -0.5961 -0.1905
 9102TIP3    H151501   2.585   6.264   2.201 -0.8862  0.5920 -0.6685
 9102TIP3    H251502   2.472   6.315   2.287  0.2128 -0.4386  1.4571
 9103TIP3   OH251503   6.854   1.792   2.492 -0.3550  0.3443 -0.6739
 9103TIP3    H151504   6.920   1.849   2.533 -1.2433  1.1868 -0.3945
 9103TIP3    H251505   6.815   1.745   2.566 -0.7523  0.5798 -0.7323
 9104TIP3   OH251506   4.527   3.692   1.217 -0.2862 -0.0482 -0.2272
 9104TIP3    H151507   4.488   3.636   1.150  1.1800  1.5731 -2.6123
 9104TIP3    H251508   4.604   3.645   1.246 -0.7860 -0.6482  0.1411
 9105TIP3   OH251509   1.616   0.224   1.671 -0.2919 -0.4912  0.4511
 9105TIP3    H151510   1.677   0.205   1.601  0.8713  0.3159  1.2064
 9105TIP3    H251511   1.617   0.319   1.679 -1.4474 -0.4797  0.6702
 9106TIP3   OH251512   1.480   6.037   2.560  0.4476 -0.0853 -0.1160
 9106TIP3    H151513   1.501   6.095   2.487  0.5424 -0.5399 -0.4534
 9106TIP3    H251514   1.517   5.952   2.535 -0.2196 -0.4449  0.1023
 9107TIP3   OH251515   6.890   5.794   2.073 -0.2403  0.2536 -0.2798
 9107TIP3    H151516   6.802   5.832   2.084 -0.1985 -0.1118  1.5754
 9107TIP3    H251517   6.949   5.857   2.113 -0.1606 -1.5830  2.7726
 9108TIP3   OH251518   1.781   2.516   2.059 -0.0361 -0.3276 -0.0565
 9108TIP3    H151519   1.821   2.498   1.975  0.0026 -0.5983  0.0197
 9108TIP3    H251520   1.693   2.478   2.053 -0.0930 -0.2014 -0.0342
 9109TIP3   OH251521   6.987   4.648   2.117  0.1855 -0.1336  0.1857
 9109TIP3    H151522   7.055   4.712   2.135 -0.9800  0.9803  0.7537
 9109TIP3    H251523   6.982   4.645   2.022  0.0571  0.8451  0.1507
 9110TIP3   OH251524   3.960   2.719   1.807 -0.1040 -0.3922 -0.3559
 9110TIP3    H151525   3.934   2.631   1.780  0.2152 -0.4237 -0.5606
 9110TIP3    H251526   4.042   2.706   1.854  0.2939 -0.1302 -0.9700
 9111TIP3   OH251527   5.889   5.598   1.119  0.8542 -0.2671  0.1667
 9111TIP3    H151528   5.929   5.582   1.034 -0.7234  0.7036 -0.7884
 9111TIP3    H251529   5.806   5.640   1.100  1.2289  1.6024  2.2400
 9112TIP3   OH251530   2.228   5.391   1.184 -0.0136  0.8051 -0.4610
 9112TIP3    H151531   2.146   5.438   1.170 -0.9389 -0.7885 -0.6815
 9112TIP3    H251532   2.283   5.416   1.110 -0.7773  0.9236 -1.0035
 9113TIP3   OH251533   1.213   0.830   3.256  0.1401  0.2534 -0.4122
 9113TIP3    H151534   1.232   0.923   3.268  1.3692 -0.0371 -0.0078
 9113TIP3    H251535   1.118   0.826   3.250  0.1270  1.8316 -2.8944
 9114TIP3   OH251536   7.125   3.296   0.844  0.2759  0.0525  0.1578
 9114TIP3    H151537   7.075   3.301   0.925  0.2069  0.9840  0.0748
 9114TIP3    H251538   7.142   3.387   0.821  0.4008 -0.2033 -0.8070
 9115TIP3   OH251539   7.332   0.623   1.761  0.0101 -0.2330  0.5098
 9115TIP3    H151540   7.289   0.649   1.842  0.4121 -0.9924  0.9837
 9115TIP3    H251541   7.285   0.670   1.692 -0.0683  0.7568  1.2121
 9116TIP3   OH251542   4.356   2.727   1.755 -0.2120 -0.0431 -0.4163
 9116TIP3    H151543   4.332   2.798   1.695 -0.2045  0.2358 -0.0949
 9116TIP3    H251544   4.449   2.739   1.770 -0.4437  0.6287  0.5933
 9117TIP3   OH251545   4.585   3.000   0.762 -0.1563  0.8349 -0.4559
 9117TIP3    H151546   4.510   3.033   0.713 -1.5321 -1.6318 -0.1837
 9117TIP3    H251547   4.610   2.920   0.717  0.2129 -0.0974  1.2988
 9118TIP3   OH251548   7.039   7.128   2.744 -0.0142  0.0642  0.0026
 9118TIP3    H151549   7.076   7.129   2.832  0.4683  0.3751 -0.1995
 9118TIP3    H251550   7.022   7.220   2.724 -0.8343 -0.0677  0.0623
 9119TIP3   OH251551   5.868   4.539   2.227  0.2643  0.1061 -0.0705
 9119TIP3    H151552   5.776   4.518   2.242  0.2363 -0.1428 -0.5558
 9119TIP3    H251553   5.866   4.598   2.151  0.5186 -0.0996 -0.2372
 9120TIP3   OH251554   0.865   6.925   1.881  0.2322 -0.5446  0.1550
 9120TIP3    H151555   0.908   6.999   1.924 -0.2479 -0.2985  0.2199
 9120TIP3    H251556   0.937   6.867   1.855  0.6592  0.2472 -0.4797
 9121TIP3   OH251557   4.217   6.699   1.270  0.2449 -0.1745  0.2048
 9121TIP3    H151558   4.210   6.656   1.185  1.0190  0.9072 -0.4246
 9121TIP3    H251559   4.311   6.698   1.290  0.3859  1.7922 -0.1563
 9122TIP3   OH251560   7.259   5.877   3.083 -0.2009  0.1425  0.4956
 9122TIP3    H151561   7.333   5.857   3.027  0.4013  0.4587  1.1626
 9122TIP3    H251562   7.231   5.791   3.117  1.1153  0.1695  1.7785
 9123TIP3   OH251563   3.491   1.320   0.830 -0.2326  0.6530 -0.1964
 9123TIP3    H151564   3.412   1.269   0.847  0.4119 -0.4216 -0.3185
 9123TIP3    H251565   3.513   1.360   0.914 -0.7116  0.6732 -0.0789
 9124TIP3   OH251566   3.328   6.905   2.784  0.1915 -0.2925 -0.8350
 9124TIP3    H151567   3.291   6.906   2.872  0.7416 -0.1177 -0.5995
 9124TIP3    H251568   3.254   6.889   2.726 -0.2180 -0.0968 -0.3633
 9125TIP3   OH251569   3.128   6.333   1.410  0.0778  0.1276  0.2056
 9125TIP3    H151570   3.200   6.277   1.441  1.4702  2.2188  1.0327
 9125TIP3    H251571   3.165   6.380   1.335 -0.8744  0.3178 -0.1594
 9126TIP3   OH251572   0.809   2.810   2.516 -0.1918 -0.1655  0.1121
 9126TIP3    H151573   0.806   2.806   2.421 -1.6925  0.7509  0.0987
 9126TIP3    H251574   0.857   2.731   2.542  1.8993  0.5147 -1.4553
 9127TIP3   OH251575   0.159   4.904   2.051  0.0177  0.1018 -0.2509
 9127TIP3    H151576   0.191   4.981   2.098  0.0108 -0.2440  0.3233
 9127TIP3    H251577   0.224   4.891   1.981 -0.1720  0.8328 -0.5719
 9128TIP3   OH251578   1.556   3.723   0.747 -0.0859  0.6887  0.6126
 9128TIP3    H151579   1.563   3.801   0.692  0.3498  0.4379  0.3017
 9128TIP3    H251580   1.462   3.706   0.753 -0.1456  0.8260  0.1002
 9129TIP3   OH251581   6.845   6.845   1.468 -0.0326  0.0464  0.0231
 9129TIP3    H151582   6.760   6.884   1.487 -0.1515 -0.2916  0.1980
 9129TIP3    H251583   6.850   6.843   1.372 -0.6077 -0.7497 -0.0008
 9130TIP3   OH251584   4.864   1.704   1.992 -0.1299 -0.2718 -0.1839
 9130TIP3    H151585   4.863   1.612   2.019 -0.7569 -1.9374 -4.9689
 9130TIP3    H251586   4.957   1.725   1.980  0.0066 -0.3132  0.7562
 9131TIP3   OH251587   4.725   0.480   1.263 -0.4961  0.8101 -0.0964
 9131TIP3    H151588   4.775   0.427   1.200 -0.3011  1.4410 -0.4859
 9131TIP3    H251589   4.748   0.571   1.240 -0.8320  1.0594  0.5523
 9132TIP3   OH251590   6.791   5.604   2.429 -0.2962  0.1120 -0.1906
 9132TIP3    H151591   6.813   5.554   2.350 -0.2118 -0.4917  0.2031
 9132TIP3    H251592   6.853   5.676   2.430 -0.5548  0.3526 -0.8867
 9133TIP3   OH251593   0.811   7.476   2.682 -0.5605  0.0154  0.4000
 9133TIP3    H151594   0.808   7.473   2.777  0.0488 -1.1699  0.3990
 9133TIP3    H251595   0.782   7.565   2.660 -1.2771  0.1188  1.6502
 9134TIP3   OH251596   2.953   2.651   1.114  0.1825 -0.2111 -0.3362
 9134TIP3    H151597   2.936   2.578   1.054 -1.9846 -0.2576  0.2440
 9134TIP3    H251598   2.967   2.726   1.056 -2.0455 -0.2142 -1.0077
 9135TIP3   OH251599   1.807   5.283   1.708  0.2775  0.6961  0.3995
 9135TIP3    H151600   1.721   5.249   1.734  0.8923  0.1630  1.8611
 9135TIP3    H251601   1.867   5.247   1.773  1.4413  2.0491  0.1167
 9136TIP3   OH251602   1.998   0.470   2.460  0.1287 -0.2823  0.3799
 9136TIP3    H151603   1.984   0.491   2.368 -1.4280  1.6725  0.9919
 9136TIP3    H251604   1.940   0.397   2.477  0.1780 -0.4386 -0.0995
 9137TIP3   OH251605   0.754   5.938   3.048  0.3488 -0.1223 -0.2758
 9137TIP3    H151606   0.792   5.852   3.034 -0.7865 -0.4653 -1.4775
 9137TIP3    H251607   0.727   5.967   2.960 -2.3226 -0.0209  0.4908
 9138TIP3   OH251608   1.841   4.331   0.535 -0.6634  0.0647  0.1618
 9138TIP3    H151609   1.902   4.295   0.470 -0.8437  0.1818 -0.0754
 9138TIP3    H251610   1.826   4.259   0.597  0.0810  0.1785  0.4892
 9139TIP3   OH251611   6.299   4.317   0.628  0.2015  0.4436  0.0072
 9139TIP3    H151612   6.232   4.312   0.696  0.3696  0.8839  0.2115
 9139TIP3    H251613   6.263   4.377   0.563  0.2512  0.4154 -0.0462
 9140TIP3   OH251614   6.122   1.122   0.656  0.2113 -0.6964  0.1527
 9140TIP3    H151615   6.113   1.188   0.588 -2.2598 -1.5118 -0.4326
 9140TIP3    H251616   6.209   1.085   0.644  0.1278 -0.2739 -2.0733
 9141TIP3   OH251617   2.418   0.371   2.145  0.1095 -0.0519 -0.1889
 9141TIP3    H151618   2.400   0.464   2.162  0.3034 -0.0515  0.0233
 9141TIP3    H251619   2.341   0.325   2.177  0.8123 -0.1221  1.4945
 9142TIP3   OH251620   2.897   0.691   0.522 -0.1250 -0.5513 -0.0712
 9142TIP3    H151621   2.884   0.599   0.543 -0.0859 -0.1366  1.9173
 9142TIP3    H251622   2.985   0.712   0.554  0.0834  0.0528 -0.9887
 9143TIP3   OH251623   7.449   5.442   1.732  0.4046 -0.0018  0.0069
 9143TIP3    H151624   7.488   5.530   1.726 -0.5674  0.3614 -2.4256
 9143TIP3    H251625   7.415   5.426   1.644  0.2282 -2.6956  0.4979
 9144TIP3   OH251626   0.473   3.928   2.269  0.3773  0.0682  0.1264
 9144TIP3    H151627   0.441   3.872   2.197 -0.8990  0.7903  0.1050
 9144TIP3    H251628   0.456   4.017   2.239  0.7724  0.4173  0.9141
 9145TIP3   OH251629   4.368   3.914   2.522 -0.5323  0.3794 -0.3156
 9145TIP3    H151630   4.319   3.850   2.574 -0.0113 -0.4193 -0.7862
 9145TIP3    H251631   4.413   3.968   2.587  0.0766 -0.5733  0.0840
 9146TIP3   OH251632   2.648   6.397   3.739 -0.1346 -0.2277  0.2743
 9146TIP3    H151633   2.729   6.375   3.693 -1.2836 -2.4597 -0.8513
 9146TIP3    H251634   2.590   6.324   3.721 -1.7084  0.2727  2.8268
 9147TIP3   OH251635   2.975   1.692   1.550  0.0762  0.3714 -0.3833
 9147TIP3    H151636   2.984   1.598   1.562  0.5038 -0.0193 -3.1522
 9147TIP3    H251637   2.882   1.705   1.532  0.2914  0.2343 -1.6329
 9148TIP3   OH251638   5.721   3.099   0.754  0.4968 -0.3379 -0.0475
 9148TIP3    H151639   5.695   3.158   0.824 -0.5543 -0.7108 -0.1011
 9148TIP3    H251640   5.812   3.077   0.773  0.7318  0.8579  0.2729
 9149TIP3   OH251641   2.595   5.825   2.396 -0.6678  0.1238  0.4325
 9149TIP3    H151642   2.668   5.784   2.442 -0.3338  1.3066  1.0238
 9149TIP3    H251643   2.612   5.809   2.303  0.1286  0.0255  0.5895
 9150TIP3   OH251644   3.863   2.524   3.734  0.4327 -0.4261  0.0140
 9150TIP3    H151645   3.914   2.448   3.704 -1.4574 -1.9816  0.5606
 9150TIP3    H251646   3.859   2.514   3.829  0.7652  0.7972  0.1759
 9151TIP3   OH251647   5.204   0.060   2.755 -0.7675  0.1653 -0.1944
 9151TIP3    H151648   5.113   0.040   2.776 -0.7945  0.7285  0.2482
 9151TIP3    H251649   5.199   0.131   2.691 -0.6371  1.1971  0.8977
 9152TIP3   OH251650   3.139   7.270   1.263 -0.0619 -0.0251 -0.5930
 9152TIP3    H151651   3.125   7.219   1.343 -0.4422 -0.2742 -0.8120
 9152TIP3    H251652   3.156   7.359   1.293  0.0976 -0.1780 -0.2248
 9153TIP3   OH251653   2.758   0.334   2.375  0.3057 -0.2487 -0.3822
 9153TIP3    H151654   2.772   0.275   2.449 -0.8006 -0.6184 -0.4365
 9153TIP3    H251655   2.845   0.352   2.340  0.7259 -1.1441  0.1858
 9154TIP3   OH251656   1.881   5.421   0.651  0.5578 -0.2705  0.2296
 9154TIP3    H151657   1.812   5.376   0.604  0.4908 -0.0916  0.1545
 9154TIP3    H251658   1.838   5.498   0.688  0.6547 -0.3055  0.4150
 9155TIP3   OH251659   2.491   1.717   0.631 -0.0852 -0.1797 -0.2459
 9155TIP3    H151660   2.428   1.729   0.703 -0.8181 -1.7277 -0.5654
 9155TIP3    H251661   2.455   1.643   0.581  0.8528  0.3285 -1.7270
 9156TIP3   OH251662   3.908   0.510   3.777 -0.3006 -0.2830  0.9861
 9156TIP3    H151663   3.822   0.539   3.746 -0.0881 -1.4503 -0.8885
 9156TIP3    H251664   3.962   0.509   3.698  0.9750 -1.1750  1.8281
 9157TIP3   OH251665   3.184   5.446   1.546 -0.8066 -0.2265 -0.0279
 9157TIP3    H151666   3.265   5.429   1.594 -1.1487  0.6526  0.9138
 9157TIP3    H251667   3.183   5.541   1.533 -0.3743 -0.5000 -2.4751
 9158TIP3   OH251668   5.398   4.864   0.674  0.5603  0.0893  0.1347
 9158TIP3    H151669   5.490   4.871   0.646  0.7522  0.3411  0.8150
 9158TIP3    H251670   5.363   4.952   0.662 -0.0350 -0.3292 -1.5696
 9159TIP3   OH251671   6.546   1.475   1.130 -0.2635  0.5799 -0.2613
 9159TIP3    H151672   6.569   1.443   1.042  0.4536  0.8717 -0.1858
 9159TIP3    H251673   6.452   1.493   1.125 -0.6666 -1.3181 -0.3818
 9160TIP3   OH251674   2.917   2.303   1.184 -0.1161  0.4166  0.0586
 9160TIP3    H151675   2.828   2.320   1.151 -0.0444  0.2411 -0.2350
 9160TIP3    H251676   2.964   2.269   1.108  0.5143  1.5377 -0.0779
 9161TIP3   OH251677   3.447   7.243   2.300  0.0231  0.0834  0.3312
 9161TIP3    H151678   3.500   7.314   2.335  1.1171 -0.5524 -0.0165
 9161TIP3    H251679   3.391   7.285   2.235  1.1017  0.5368 -0.3226
 9162TIP3   OH251680   6.381   0.099   1.858 -0.1471 -0.4495 -0.1261
 9162TIP3    H151681   6.428   0.058   1.785 -1.4571  0.9118 -1.8454
 9162TIP3    H251682   6.365   0.028   1.920 -1.6010 -2.4138 -2.5633
 9163TIP3   OH251683   7.431   0.511   1.069 -0.5519 -0.5834 -0.0043
 9163TIP3    H151684   7.367   0.519   1.140  1.0883  0.3399  1.4634
 9163TIP3    H251685   7.508   0.470   1.110  1.1942  1.8087 -0.6470
 9164TIP3   OH251686   4.863   5.152   0.845 -0.0033  0.1407 -0.0444
 9164TIP3    H151687   4.792   5.211   0.872  0.0627 -0.1500  0.7818
 9164TIP3    H251688   4.818   5.070   0.824  0.1702 -0.3149  1.3226
 9165TIP3   OH251689   5.101   0.585   1.041 -0.3825  0.7244 -0.0670
 9165TIP3    H151690   5.190   0.549   1.046 -0.4206  0.6825  0.3827
 9165TIP3    H251691   5.104   0.664   1.096 -0.8507  0.2420  0.6592
 9166TIP3   OH251692   1.942   2.531   1.352  0.3068 -0.2620 -0.1160
 9166TIP3    H151693   1.889   2.505   1.427  0.6461 -2.5039 -0.5823
 9166TIP3    H251694   1.882   2.525   1.277  0.4030  0.3531 -0.2500
 9167TIP3   OH251695   0.872   1.914   2.598 -0.0038  0.2365 -0.3040
 9167TIP3    H151696   0.826   1.841   2.638 -0.1101  1.6479  2.3695
 9167TIP3    H251697   0.955   1.919   2.646 -0.4227  2.4295  0.3333
 9168TIP3   OH251698   6.905   1.590   0.453  0.0387 -0.1322 -0.0385
 9168TIP3    H151699   6.960   1.658   0.491  1.6116 -0.7761 -1.0564
 9168TIP3    H251700   6.834   1.638   0.410  0.3012  0.7710  0.5198
 9169TIP3   OH251701   7.446   3.769   2.371  0.6399 -0.3244  0.2212
 9169TIP3    H151702   7.474   3.771   2.463 -0.0053 -0.6789  0.4374
 9169TIP3    H251703   7.502   3.704   2.330 -0.3155 -1.5811  0.8194
 9170TIP3   OH251704   6.712   2.523   1.497 -0.2690  0.2328  0.2784
 9170TIP3    H151705   6.719   2.446   1.552 -0.0957  0.5476  0.7001
 9170TIP3    H251706   6.653   2.582   1.545  1.8142  1.5482  1.3608
 9171TIP3   OH251707   6.290   1.721   1.340 -0.1746  0.6600 -0.7429
 9171TIP3    H151708   6.348   1.695   1.412 -0.9786  0.4912 -0.1426
 9171TIP3    H251709   6.330   1.801   1.305  1.4512 -0.4783 -1.5790
 9172TIP3   OH251710   3.021   3.200   3.481  0.4976 -0.0350  0.5016
 9172TIP3    H151711   3.078   3.240   3.415  2.0430 -2.5713  0.1789
 9172TIP3    H251712   3.068   3.211   3.563 -0.4831  1.3394  0.9161
 9173TIP3   OH251713   0.220   6.890   1.580 -0.3060  0.0543  0.2512
 9173TIP3    H151714   0.169   6.894   1.660  0.2544  0.0791  0.6083
 9173TIP3    H251715   0.228   6.981   1.551 -1.8034 -0.0671 -0.6732
 9174TIP3   OH251716   2.552   5.439   2.865 -0.2386 -0.1035  0.2689
 9174TIP3    H151717   2.463   5.474   2.871 -0.2220  0.1871 -0.8828
 9174TIP3    H251718   2.573   5.410   2.954 -1.6647 -0.6379  0.4540
 9175TIP3   OH251719   7.378   7.356   2.986  0.1775 -0.0577  0.0273
 9175TIP3    H151720   7.441   7.339   2.916  0.4143  0.9428 -0.0226
 9175TIP3    H251721   7.310   7.410   2.944  2.2111  3.9294  1.3099
 9176TIP3   OH251722   6.874   5.965   3.019 -0.5729 -0.3378  0.2184
 9176TIP3    H151723   6.896   5.873   3.033  0.1792 -0.0850  0.7770
 9176TIP3    H251724   6.958   6.008   3.005 -0.9880  0.1337 -0.8957
 9177TIP3   OH251725   0.933   2.054   0.937  0.5852  0.4865 -0.7529
 9177TIP3    H151726   0.871   1.993   0.899  0.2502 -0.6260  1.4080
 9177TIP3    H251727   1.011   2.002   0.954 -0.3007  0.0056  2.7491
 9178TIP3   OH251728   3.880   2.043   1.557  0.3492 -0.1388 -0.1373
 9178TIP3    H151729   3.785   2.027   1.559  0.2680  0.3256 -0.3350
 9178TIP3    H251730   3.914   1.987   1.627 -0.3101  1.2282  1.3402
 9179TIP3   OH251731   1.405   3.110   1.774  0.0902 -0.4183  0.2350
 9179TIP3    H151732   1.463   3.036   1.793  1.5104 -0.0829 -2.3573
 9179TIP3    H251733   1.333   3.072   1.723  1.6319  0.0573 -2.5125
 9180TIP3   OH251734   4.573   7.191   0.710  0.2275  0.0848 -0.6694
 9180TIP3    H151735   4.486   7.219   0.684  0.5041  0.3207 -1.3738
 9180TIP3    H251736   4.565   7.167   0.802 -0.7066 -0.4426 -0.8807
 9181TIP3   OH251737   7.370   0.553   1.343  0.4772 -0.2513 -0.2354
 9181TIP3    H151738   7.436   0.514   1.400  1.5658  0.9468 -0.6498
 9181TIP3    H251739   7.393   0.645   1.337 -0.0899 -0.1739 -1.9396
 9182TIP3   OH251740   2.260   1.736   0.768  1.3156  0.4045 -0.2068
 9182TIP3    H151741   2.227   1.823   0.789  0.2787  0.3466 -1.4512
 9182TIP3    H251742   2.201   1.704   0.700  1.9128 -1.1188 -0.0503
 9183TIP3   OH251743   6.019   3.745   0.736 -0.2635 -0.1525  0.4531
 9183TIP3    H151744   5.996   3.729   0.644 -1.7839 -2.5129  1.1403
 9183TIP3    H251745   6.115   3.743   0.737 -0.1945  0.5363 -1.1587
 9184TIP3   OH251746   7.377   4.238   0.846  0.2263 -0.1240 -0.2941
 9184TIP3    H151747   7.443   4.303   0.872 -0.2298  0.0942  0.3439
 9184TIP3    H251748   7.374   4.176   0.919 -1.2621  0.6398  0.3282
 9185TIP3   OH251749   4.089   0.761   0.589  0.0315 -0.5466  0.0046
 9185TIP3    H151750   4.172   0.733   0.549  0.4595  0.5192  0.0983
 9185TIP3    H251751   4.088   0.856   0.576 -0.4555 -0.3497  1.3671
 9186TIP3   OH251752   0.474   5.205   0.814 -0.0998 -0.1852 -0.0951
 9186TIP3    H151753   0.459   5.165   0.728  1.6233 -1.0864 -0.0254
 9186TIP3    H251754   0.468   5.299   0.799  0.4788 -0.3197 -1.2771
 9187TIP3   OH251755   2.710   5.918   1.471  0.4895  0.0022  0.9101
 9187TIP3    H151756   2.663   5.990   1.431  1.0421  0.9610  1.9400
 9187TIP3    H251757   2.794   5.914   1.425  0.0649 -0.6606  0.1688
 9188TIP3   OH251758   0.301   2.714   2.316 -0.1869  0.8939 -0.2177
 9188TIP3    H151759   0.300   2.663   2.235 -0.7181  0.1178  0.2637
 9188TIP3    H251760   0.252   2.793   2.295 -2.2255 -0.2717 -0.0792
 9189TIP3   OH251761   6.360   5.753   2.668  0.5339 -0.1424  0.3314
 9189TIP3    H151762   6.349   5.802   2.749  0.3419  0.5253 -0.0859
 9189TIP3    H251763   6.285   5.780   2.614  1.9071  1.2742 -0.9723
 9190TIP3   OH251764   0.871   6.747   1.680 -0.0641 -0.0914  0.0442
 9190TIP3    H151765   0.814   6.673   1.661  0.3241 -0.2286 -0.6613
 9190TIP3    H251766   0.823   6.823   1.648 -0.7892  0.0677  1.4538
 9191TIP3   OH251767   4.240   2.324   3.185  0.0869 -0.3144 -0.0511
 9191TIP3    H151768   4.297   2.328   3.108 -0.6820  0.3133 -0.6235
 9191TIP3    H251769   4.268   2.246   3.233 -0.4751 -1.6770 -1.8305
 9192TIP3   OH251770   2.257   3.970   0.954 -0.3793 -0.1941  0.7638
 9192TIP3    H151771   2.307   3.982   0.873 -1.7071 -0.2219 -0.1020
 9192TIP3    H251772   2.287   3.887   0.990 -2.0876 -1.9535 -1.5178
 9193TIP3   OH251773   4.640   0.406   1.549 -0.3981 -0.1227 -0.1528
 9193TIP3    H151774   4.557   0.439   1.516 -0.0287 -0.2868 -1.2882
 9193TIP3    H251775   4.697   0.482   1.554 -0.1567 -0.2526 -0.8474
 9194TIP3   OH251776   6.560   5.840   1.597  0.2504 -0.0190  0.5427
 9194TIP3    H151777   6.569   5.791   1.679  0.6926 -0.0790  0.4631
 9194TIP3    H251778   6.504   5.914   1.620 -0.8027 -0.8034  0.5506
 9195TIP3   OH251779   6.510   1.688   1.504 -0.6528  0.2991  0.1778
 9195TIP3    H151780   6.566   1.641   1.567 -0.3552 -1.2118 -1.1345
 9195TIP3    H251781   6.569   1.708   1.431 -0.5468  3.6322  1.0461
 9196TIP3   OH251782   5.597   6.551   0.481 -0.3386  0.3928 -0.2101
 9196TIP3    H151783   5.547   6.630   0.464 -0.8803  0.0613 -0.1614
 9196TIP3    H251784   5.603   6.547   0.577  1.1138  1.2561 -0.2271
 9197TIP3   OH251785   1.406   1.724   0.535  0.1183 -0.2654  0.5573
 9197TIP3    H151786   1.441   1.637   0.518 -0.9490 -0.6158  0.0125
 9197TIP3    H251787   1.475   1.769   0.583  0.3389 -1.7208  1.6996
 9198TIP3   OH251788   2.008   3.158   3.190  0.2194 -0.2383  0.1908
 9198TIP3    H151789   2.028   3.250   3.177 -0.3745 -0.1888 -0.3948
 9198TIP3    H251790   1.913   3.152   3.180  0.2345 -0.8879  0.3859
 9199TIP3   OH251791   1.233   2.099   2.132 -0.2374 -0.1451  0.4466
 9199TIP3    H151792   1.287   2.072   2.058 -0.3579 -1.6211  0.8768
 9199TIP3    H251793   1.211   2.191   2.113  2.1517  0.4110  0.1251
 9200TIP3   OH251794   2.657   6.543   2.207 -0.1532  0.3820 -0.4345
 9200TIP3    H151795   2.592   6.611   2.223 -1.1208 -0.3276 -1.2245
 9200TIP3    H251796   2.686   6.517   2.295  0.4444  1.9779 -0.1283
 9201TIP3   OH251797   3.512   6.091   0.362  0.1323 -0.0386  0.1612
 9201TIP3    H151798   3.513   6.010   0.413  0.2851  0.4244  0.9106
 9201TIP3    H251799   3.432   6.086   0.310  0.9983 -1.4689 -1.1304
 9202TIP3   OH251800   2.319   4.211   2.970  0.3665 -0.2901  0.1309
 9202TIP3    H151801   2.363   4.294   2.987  0.3390 -0.3853  0.7082
 9202TIP3    H251802   2.287   4.183   3.056  0.2723 -0.8395 -0.0778
 9203TIP3   OH251803   3.733   3.364   0.729  0.0205  0.5766 -0.1967
 9203TIP3    H151804   3.762   3.455   0.731 -1.5621  1.1142  1.9634
 9203TIP3    H251805   3.640   3.368   0.751  0.4663 -1.6796  2.6796
 9204TIP3   OH251806   1.197   5.329   0.829 -0.1022 -0.4492  0.3229
 9204TIP3    H151807   1.167   5.250   0.783  0.4356 -1.7455  2.0766
 9204TIP3    H251808   1.134   5.396   0.804 -1.1418 -1.6639 -0.4964
 9205TIP3   OH251809   4.368   5.995   0.794 -0.1093  0.0529 -0.5475
 9205TIP3    H151810   4.354   6.000   0.699  1.6240 -0.2714 -0.8500
 9205TIP3    H251811   4.326   5.913   0.820  2.8226 -2.0239 -1.7825
 9206TIP3   OH251812   6.031   1.320   2.138 -0.3404 -0.5409  0.4115
 9206TIP3    H151813   5.995   1.336   2.226  0.1263 -2.1902  0.9229
 9206TIP3    H251814   6.062   1.406   2.110  1.0504 -0.2499  2.5619
 9207TIP3   OH251815   7.077   6.694   1.012  0.1414  0.0479 -0.4524
 9207TIP3    H151816   7.079   6.774   1.064  2.3712 -0.6348  0.6640
 9207TIP3    H251817   7.038   6.628   1.070  0.3690 -0.1638 -0.5354
 9208TIP3   OH251818   1.490   5.586   1.670 -0.4660  0.2109  0.1814
 9208TIP3    H151819   1.497   5.679   1.692 -0.7096  0.1032  0.7404
 9208TIP3    H251820   1.579   5.552   1.681 -0.4229  0.3281  0.2025
 9209TIP3   OH251821   6.114   0.490   1.689 -0.3263 -0.2126  0.3786
 9209TIP3    H151822   6.074   0.457   1.769 -1.1797 -0.2513 -0.0542
 9209TIP3    H251823   6.197   0.443   1.682 -0.6985 -0.9306  0.7217
 9210TIP3   OH251824   3.991   5.410   2.095 -0.8432  0.1754 -0.9788
 9210TIP3    H151825   4.066   5.467   2.112  0.1030 -0.9993 -1.1405
 9210TIP3    H251826   3.985   5.406   2.000  0.8016 -2.1153 -1.0579
 9211TIP3   OH251827   5.625   4.188   2.736 -0.6395 -0.3611 -0.1682
 9211TIP3    H151828   5.691   4.118   2.730  0.1742  0.3791  0.0130
 9211TIP3    H251829   5.671   4.261   2.777 -0.5291  1.4343 -3.2533
 9212TIP3   OH251830   3.118   6.970   0.736 -0.4205 -0.2208  0.0644
 9212TIP3    H151831   3.039   6.972   0.789 -0.2656  1.0738  0.2776
 9212TIP3    H251832   3.121   6.881   0.701 -1.6959 -0.4381  0.4504
 9213TIP3   OH251833   0.547   3.506   1.828  0.0799 -0.0524 -0.5492
 9213TIP3    H151834   0.608   3.529   1.758  0.7468 -1.6484 -0.5375
 9213TIP3    H251835   0.595   3.528   1.908  0.2254 -0.3426 -0.5565
 9214TIP3   OH251836   2.382   2.491   1.034 -0.2497  0.4546 -0.2037
 9214TIP3    H151837   2.451   2.537   1.081 -0.6493  1.2175 -0.3393
 9214TIP3    H251838   2.305   2.498   1.091 -0.1278 -0.6956  0.1101
 9215TIP3   OH251839   4.008   1.355   0.964 -0.6841  0.6378  0.5618
 9215TIP3    H151840   4.050   1.403   1.035 -0.0930 -0.3346  0.8946
 9215TIP3    H251841   4.014   1.413   0.888 -0.1975  1.1752  1.0079
 9216TIP3   OH251842   5.297   7.056   0.831 -0.7423 -0.7302 -0.1041
 9216TIP3    H151843   5.210   7.096   0.838 -0.1923  0.6180 -0.6208
 9216TIP3    H251844   5.354   7.113   0.883  0.1079 -0.7313 -1.0123
 9217TIP3   OH251845   0.821   5.306   2.494 -0.3295 -0.1855 -0.1001
 9217TIP3    H151846   0.914   5.294   2.511 -0.3473  0.8940  0.9245
 9217TIP3    H251847   0.812   5.399   2.472 -1.0902 -0.3937 -0.7313
 9218TIP3   OH251848   7.195   6.651   2.183 -0.2036 -0.1388  0.4335
 9218TIP3    H151849   7.147   6.703   2.248 -1.3256 -0.6836  0.0611
 9218TIP3    H251850   7.169   6.561   2.201 -1.0501 -0.2572 -1.1490
 9219TIP3   OH251851   0.879   6.742   3.775 -0.6274  0.0191 -0.4768
 9219TIP3    H151852   0.939   6.667   3.766 -1.1553 -0.3215 -1.2774
 9219TIP3    H251853   0.879   6.782   3.688 -1.5954 -0.0149 -0.4994
 9220TIP3   OH251854   2.371   5.825   0.526  0.3785  0.0233  0.2262
 9220TIP3    H151855   2.337   5.914   0.511  1.1706  0.3982  0.5689
 9220TIP3    H251856   2.348   5.806   0.617  1.0559  0.2668  0.4492
 9221TIP3   OH251857   3.828   6.964   2.138 -0.0575  0.0498  0.5362
 9221TIP3    H151858   3.745   6.931   2.103 -0.0078 -0.6569  1.0578
 9221TIP3    H251859   3.808   7.053   2.165 -0.6796 -0.1409  0.7355
 9222TIP3   OH251860   3.574   5.822   1.871  0.2097  0.2625 -0.0417
 9222TIP3    H151861   3.480   5.832   1.881  0.1248  0.2421 -0.7532
 9222TIP3    H251862   3.585   5.743   1.818  0.5410  1.2586 -1.5099
 9223TIP3   OH251863   4.488   6.780   1.066 -0.0892 -0.7238 -0.2763
 9223TIP3    H151864   4.527   6.703   1.108 -1.6762 -0.7267  1.3176
 9223TIP3    H251865   4.538   6.854   1.100  1.9412 -1.0036 -2.3929
 9224TIP3   OH251866   5.949   0.324   2.998 -0.1536  0.1655 -0.2699
 9224TIP3    H151867   5.871   0.282   2.962 -0.4671  0.8052 -0.3466
 9224TIP3    H251868   6.021   0.292   2.943 -0.1575 -1.4471  0.5976
 9225TIP3   OH251869   1.533   4.002   0.635 -0.0336 -0.2065 -0.4373
 9225TIP3    H151870   1.439   4.016   0.650  0.3016  0.5717  1.1407
 9225TIP3    H251871   1.552   4.052   0.556 -1.3980 -2.3925 -2.2767
 9226TIP3   OH251872   0.431   1.975   2.573  0.0748 -0.3715  0.5966
 9226TIP3    H151873   0.496   2.002   2.638 -1.5758  2.6436  1.1389
 9226TIP3    H251874   0.456   2.021   2.493 -0.7035 -0.1392  0.4799
 9227TIP3   OH251875   2.980   6.599   1.259  0.1469 -0.1268  0.4365
 9227TIP3    H151876   2.994   6.639   1.345  1.0385  1.2550 -0.3232
 9227TIP3    H251877   3.026   6.515   1.263 -1.6732 -1.1349  2.0242
 9228TIP3   OH251878   6.356   1.444   0.568  0.5215 -0.1217 -0.1340
 9228TIP3    H151879   6.435   1.491   0.544 -0.3973  0.7170 -1.5942
 9228TIP3    H251880   6.387   1.358   0.597  2.1047  0.8843  1.2998
 9229TIP3   OH251881   4.331   4.133   0.438  0.0062 -0.2025  0.0678
 9229TIP3    H151882   4.395   4.096   0.499 -0.0077 -2.8934 -1.4078
 9229TIP3    H251883   4.383   4.191   0.382  1.1272 -1.8736 -0.7214
 9230TIP3   OH251884   3.783   3.548   2.513 -0.2667 -0.8534  0.6851
 9230TIP3    H151885   3.838   3.519   2.586 -1.3642  0.6700  2.1903
 9230TIP3    H251886   3.697   3.511   2.532 -0.5427 -0.5304  0.0916
 9231TIP3   OH251887   0.626   4.798   2.054 -0.1183  0.6359 -0.4396
 9231TIP3    H151888   0.570   4.730   2.091 -1.1108  0.3211 -2.3785
 9231TIP3    H251889   0.648   4.854   2.128 -2.8643  0.6800  0.4545
 9232TIP3   OH251890   0.177   2.006   0.902 -0.4809  0.5049 -0.1644
 9232TIP3    H151891   0.236   2.039   0.970 -1.0432 -2.4934  2.0116
 9232TIP3    H251892   0.224   1.933   0.863 -0.5033  1.7014 -2.5639
 9233TIP3   OH251893   1.218   0.567   0.875  0.3278  0.4286  0.4770
 9233TIP3    H151894   1.251   0.528   0.794 -1.5857  0.1679 -0.2265
 9233TIP3    H251895   1.179   0.494   0.923  1.4991  0.5649  1.7209
 9234TIP3   OH251896   0.264   6.936   0.565 -0.2136 -0.0608  0.0122
 9234TIP3    H151897   0.266   6.870   0.496  1.3436  0.2378 -0.2563
 9234TIP3    H251898   0.187   6.990   0.543 -0.1853 -0.4228 -1.0559
 9235TIP3   OH251899   5.426   0.901   2.077  0.1721  0.2182  0.2386
 9235TIP3    H151900   5.463   0.969   2.021  1.4355  0.0070  0.7945
 9235TIP3    H251901   5.423   0.823   2.021  1.2050  0.0698  0.3662
 9236TIP3   OH251902   5.598   6.332   1.468 -0.2367  0.4219 -0.2904
 9236TIP3    H151903   5.560   6.247   1.487  1.3130  0.0715  1.4725
 9236TIP3    H251904   5.693   6.319   1.475  0.0173  2.5198  1.4344
 9237TIP3   OH251905   6.409   4.920   1.499 -0.1383  0.0392  0.3891
 9237TIP3    H151906   6.352   4.914   1.422 -0.6094 -0.5672  0.7764
 9237TIP3    H251907   6.497   4.924   1.463 -0.2938 -1.0917 -0.1622
 9238TIP3   OH251908   6.489   3.487   0.707  0.6695  0.0418  0.5413
 9238TIP3    H151909   6.402   3.460   0.738  1.4221 -1.0379  1.8469
 9238TIP3    H251910   6.495   3.451   0.619  0.8588 -2.4169  1.4944
 9239TIP3   OH251911   4.187   0.164   2.754 -0.4584  0.4275  0.0071
 9239TIP3    H151912   4.206   0.106   2.680 -0.1094 -0.9195  1.1037
 9239TIP3    H251913   4.269   0.209   2.771 -0.5547  0.7851 -0.4430
 9240TIP3   OH251914   1.583   5.468   1.932 -0.2780 -0.0552 -0.0367
 9240TIP3    H151915   1.509   5.508   1.979 -0.6554 -1.9857  1.1167
 9240TIP3    H251916   1.656   5.475   1.993 -0.2660 -0.7916  0.0392
 9241TIP3   OH251917   6.927   6.374   3.090 -0.1461 -0.3387 -0.4891
 9241TIP3    H151918   7.022   6.360   3.087  0.4422  2.7167  0.6483
 9241TIP3    H251919   6.916   6.467   3.072 -2.9091 -0.4872  0.0545
 9242TIP3   OH251920   2.871   5.070   2.465 -0.1693  0.3456 -0.2821
 9242TIP3    H151921   2.944   5.008   2.461  0.3250  0.9685 -1.3181
 9242TIP3    H251922   2.854   5.081   2.558  1.1212  0.2391 -0.0104
 9243TIP3   OH251923   6.247   6.118   2.398 -0.0416  0.8359 -0.1730
 9243TIP3    H151924   6.217   6.203   2.365 -0.6466  0.7004  0.0195
 9243TIP3    H251925   6.278   6.135   2.486  1.9965  1.2835 -0.9360
 9244TIP3   OH251926   0.114   0.972   0.766 -0.0994  0.1441  0.1970
 9244TIP3    H151927   0.157   0.888   0.751 -2.1595 -0.9103 -0.0972
 9244TIP3    H251928   0.045   0.976   0.700 -0.9619  1.4102  1.1360
 9245TIP3   OH251929   1.860   5.984   3.053  0.7950  0.1052  0.2893
 9245TIP3    H151930   1.813   5.918   3.104 -0.7959 -0.2710 -1.5481
 9245TIP3    H251931   1.821   6.067   3.079 -2.5980 -0.3303 -2.6592
 9246TIP3   OH251932   2.570   6.512   3.343 -0.0483 -0.0935 -0.0654
 9246TIP3    H151933   2.475   6.504   3.336 -0.1074  0.6258 -0.0949
 9246TIP3    H251934   2.600   6.422   3.359 -0.6431 -0.4910 -1.0783
 9247TIP3   OH251935   3.083   6.004   1.213 -0.1485  0.1502  0.8767
 9247TIP3    H151936   3.008   5.950   1.238  0.0339  0.0711  1.2596
 9247TIP3    H251937   3.070   6.020   1.120  0.4735 -1.6631  0.4278
 9248TIP3   OH251938   7.386   5.235   0.793 -0.2251  0.8187 -0.1737
 9248TIP3    H151939   7.403   5.308   0.734  1.2290 -0.5106 -1.4964
 9248TIP3    H251940   7.417   5.266   0.879  0.0982  1.8424 -0.6482
 9249TIP3   OH251941   1.568   1.478   1.655 -0.1386 -0.2035 -0.8761
 9249TIP3    H151942   1.513   1.545   1.613 -1.1030  0.1754  0.8601
 9249TIP3    H251943   1.656   1.516   1.654 -0.2965  0.1536 -1.8039
 9250TIP3   OH251944   5.863   0.902   2.473  0.4526 -0.3536 -0.3458
 9250TIP3    H151945   5.917   0.981   2.469 -0.7072  0.7542  2.7090
 9250TIP3    H251946   5.919   0.837   2.514  0.5232 -0.2515 -0.2792
 9251TIP3   OH251947   5.641   3.824   2.178  0.1377  0.6244  0.0028
 9251TIP3    H151948   5.647   3.884   2.103  1.0703  0.7438  0.1541
 9251TIP3    H251949   5.548   3.819   2.197 -0.0120  1.5876 -0.3807
 9252TIP3   OH251950   5.722   0.208   2.895 -0.0036  0.0700 -0.1689
 9252TIP3    H151951   5.738   0.171   2.808  0.9721  1.7766 -0.7643
 9252TIP3    H251952   5.636   0.173   2.920  1.3014 -3.4721 -0.1303
 9253TIP3   OH251953   2.059   5.807   3.229  0.4789 -0.0675 -0.3806
 9253TIP3    H151954   2.119   5.789   3.157  0.7398 -1.6759  0.2051
 9253TIP3    H251955   1.988   5.743   3.218  1.5881 -1.8643  1.9532
 9254TIP3   OH251956   0.562   3.659   1.504 -0.1574 -0.0298  0.4322
 9254TIP3    H151957   0.617   3.581   1.492  0.1484  0.0932  0.9887
 9254TIP3    H251958   0.566   3.704   1.419 -0.1454 -0.4944  0.1797
 9255TIP3   OH251959   1.373   6.514   1.128 -0.4637 -0.2541  0.0978
 9255TIP3    H151960   1.307   6.502   1.059 -0.0805 -1.7897 -0.0477
 9255TIP3    H251961   1.358   6.603   1.161 -2.4143 -0.4600 -0.1195
 9256TIP3   OH251962   6.050   1.361   0.992  0.4964 -0.6208  0.0146
 9256TIP3    H151963   6.090   1.274   0.992 -0.3749 -1.0597 -1.4331
 9256TIP3    H251964   6.086   1.403   0.914 -1.4166 -0.8590 -1.0672
 9257TIP3   OH251965   3.630   6.795   2.017  0.0806  0.0407  0.2546
 9257TIP3    H151966   3.544   6.833   2.001  0.4753  0.5142 -0.8836
 9257TIP3    H251967   3.639   6.728   1.949 -0.9746 -2.8502  2.7478
 9258TIP3   OH251968   5.556   7.483   1.582 -0.0723  0.2350  0.1303
 9258TIP3    H151969   5.548   7.527   1.497  1.1662  0.5059  0.1258
 9258TIP3    H251970   5.651   7.474   1.595 -0.2068  1.1959  2.0017
 9259TIP3   OH251971   3.765   0.119   2.051 -0.1611  0.1091  0.3467
 9259TIP3    H151972   3.827   0.189   2.031  2.1853 -1.5966  1.0922
 9259TIP3    H251973   3.708   0.155   2.119  1.5932  1.0293  1.4155
 9260TIP3   OH251974   1.795   3.325   1.932 -0.0683  0.5102 -0.6698
 9260TIP3    H151975   1.732   3.375   1.879 -1.5962 -0.4311  0.1858
 9260TIP3    H251976   1.742   3.287   2.002  1.5121 -0.1733  0.1871
 9261TIP3   OH251977   0.376   6.213   1.033 -0.1116  0.1684  0.6205
 9261TIP3    H151978   0.294   6.262   1.022 -0.5474 -0.6409  0.2186
 9261TIP3    H251979   0.360   6.156   1.109 -0.7275 -1.5774 -0.7650
 9262TIP3   OH251980   7.483   1.659   1.179 -0.3719  0.1274 -0.1969
 9262TIP3    H151981   7.498   1.582   1.125  0.1826  0.8202 -1.0650
 9262TIP3    H251982   7.566   1.673   1.224 -1.5969 -2.0601  3.0886
 9263TIP3   OH251983   3.860   5.040   0.498 -0.5928  0.0857  0.2846
 9263TIP3    H151984   3.955   5.042   0.508 -0.1414  1.0061 -2.8526
 9263TIP3    H251985   3.843   4.954   0.458 -0.4001  1.3917 -2.9491
 9264TIP3   OH251986   6.064   6.203   2.027  0.2376  0.8645 -0.0872
 9264TIP3    H151987   6.009   6.193   1.950 -0.1959 -0.7495  0.4130
 9264TIP3    H251988   6.003   6.218   2.099  0.5048  0.0655  0.3125
 9265TIP3   OH251989   1.589   6.439   3.707 -0.0669 -0.0163  0.5501
 9265TIP3    H151990   1.645   6.366   3.681  4.6455  3.2990  0.0386
 9265TIP3    H251991   1.522   6.444   3.638  0.3146 -2.9076 -0.1451
 9266TIP3   OH251992   7.000   2.625   2.088 -0.2196 -0.2307 -0.3552
 9266TIP3    H151993   7.019   2.606   2.180  3.0377  1.3359 -0.5742
 9266TIP3    H251994   7.018   2.543   2.042  0.1083 -0.4656  0.1886
 9267TIP3   OH251995   2.048   1.898   2.363 -0.5328  0.0125 -0.2927
 9267TIP3    H151996   2.129   1.933   2.400 -1.1864  0.6594  0.5587
 9267TIP3    H251997   2.051   1.804   2.382  0.1289 -0.0072 -0.4849
 9268TIP3   OH251998   4.662   4.730   2.019 -0.1825  0.3265 -0.3517
 9268TIP3    H151999   4.653   4.635   2.030 -1.2304  0.4930  0.3840
 9268TIP3    H252000   4.627   4.767   2.100  0.1553  1.3511 -0.6590
 9269TIP3   OH252001   7.505   6.245   1.830  0.1359 -0.6399 -0.0085
 9269TIP3    H152002   7.438   6.312   1.815  2.7880  1.9910 -1.1969
 9269TIP3    H252003   7.561   6.250   1.752  3.7680  0.0156  2.4015
 9270TIP3   OH252004   2.154   4.715   1.341 -0.2999  0.7106  0.6123
 9270TIP3    H152005   2.216   4.715   1.414 -2.3638  0.3719  2.4501
 9270TIP3    H252006   2.181   4.789   1.287  3.8909 -1.4589 -0.7246
 9271TIP3   OH252007   0.223   0.136   0.743 -0.0664  0.1485 -0.4845
 9271TIP3    H152008   0.222   0.226   0.774  0.1350 -0.7317  2.3988
 9271TIP3    H252009   0.144   0.097   0.781  0.3904 -1.1560 -0.8277
 9272TIP3   OH252010   7.456   2.442   1.344 -0.1259 -0.0260  0.1063
 9272TIP3    H152011   7.521   2.511   1.330  1.5790 -1.5541  0.0678
 9272TIP3    H252012   7.378   2.489   1.374  0.2038  2.1144 -2.0525
 9273TIP3   OH252013   2.905   4.588   2.935 -0.7209 -0.3535 -0.2677
 9273TIP3    H152014   2.999   4.601   2.925 -1.1320  1.6684 -2.7316
 9273TIP3    H252015   2.875   4.564   2.847 -2.5273 -0.6941  0.4007
 9274TIP3   OH252016   0.016   4.287   2.396  0.3625 -0.4393 -0.1096
 9274TIP3    H152017   0.047   4.295   2.487  1.5033 -0.0526 -0.5127
 9274TIP3    H252018   0.059   4.207   2.364  0.0293 -0.5267 -0.3359
 9275TIP3   OH252019   6.638   6.617   2.794  0.3777  0.2032  0.1916
 9275TIP3    H152020   6.559   6.641   2.746 -0.0013  0.1290  0.7532
 9275TIP3    H252021   6.606   6.557   2.863  0.5645  1.8953  1.8267
 9276TIP3   OH252022   3.279   1.792   2.937 -0.3372  0.5982  0.2659
 9276TIP3    H152023   3.246   1.872   2.897 -2.0724  0.7118  1.7873
 9276TIP3    H252024   3.222   1.778   3.013 -0.6871 -2.5458 -0.4192
 9277TIP3   OH252025   2.964   4.162   0.577  0.0729 -0.2877 -0.0471
 9277TIP3    H152026   2.991   4.222   0.508 -0.3798  1.6422  1.3443
 9277TIP3    H252027   3.046   4.137   0.620  0.2550 -0.5332 -0.5323
 9278TIP3   OH252028   5.802   0.676   1.900 -0.1050 -0.0933 -0.5661
 9278TIP3    H152029   5.894   0.650   1.901 -0.4023 -1.1997 -0.0694
 9278TIP3    H252030   5.762   0.622   1.832 -0.4913 -0.0047 -0.4129
 9279TIP3   OH252031   6.030   1.825   1.564  0.0248 -0.6026  0.2370
 9279TIP3    H152032   6.004   1.797   1.651 -2.1863 -0.1107 -0.2060
 9279TIP3    H252033   6.008   1.918   1.560  0.0391 -0.6233 -0.8571
 9280TIP3   OH252034   5.140   6.605   0.398 -0.1908 -0.4980  0.2982
 9280TIP3    H152035   5.164   6.523   0.354  0.4517 -0.0209 -0.2603
 9280TIP3    H252036   5.202   6.612   0.471  1.6471  0.8899 -1.3271
 9281TIP3   OH252037   2.519   1.869   2.907 -0.3217  0.3393 -0.1721
 9281TIP3    H152038   2.575   1.821   2.845 -0.9645 -2.0128  0.9455
 9281TIP3    H252039   2.536   1.827   2.992 -1.6173  1.5313  0.7224
 9282TIP3   OH252040   6.229   3.425   0.775  0.0075  0.5266  0.4460
 9282TIP3    H152041   6.183   3.453   0.696  1.2540  0.9448 -0.1612
 9282TIP3    H252042   6.222   3.330   0.774  0.0014  0.5271 -0.1728
 9283TIP3   OH252043   5.498   2.932   1.807  1.0758  0.7683 -0.1464
 9283TIP3    H152044   5.553   2.907   1.733  0.3971  1.0550 -0.7622
 9283TIP3    H252045   5.488   3.026   1.799 -0.0044  0.6496 -0.4135
 9284TIP3   OH252046   4.952   0.337   0.739 -0.0996 -0.0680  0.2780
 9284TIP3    H152047   4.958   0.427   0.772  0.9321  0.4247 -1.1211
 9284TIP3    H252048   4.860   0.326   0.716 -0.5571  0.0436  1.9663
 9285TIP3   OH252049   1.512   2.583   1.514 -0.5009 -0.3493  0.0986
 9285TIP3    H152050   1.519   2.556   1.605 -0.4217  1.4999  0.6716
 9285TIP3    H252051   1.566   2.519   1.466 -1.4071 -1.9920  1.1607
 9286TIP3   OH252052   2.742   2.990   0.931  0.4841  0.4714  0.3876
 9286TIP3    H152053   2.821   2.938   0.945  0.4717  0.4785  0.4860
 9286TIP3    H252054   2.770   3.080   0.946  0.7479  0.5975 -0.7878
 9287TIP3   OH252055   1.172   2.907   1.855  0.6964 -0.6177  0.5585
 9287TIP3    H152056   1.120   2.850   1.797  0.7193 -0.8383  0.7503
 9287TIP3    H252057   1.107   2.961   1.899  0.5672 -1.2891  1.2251
 9288TIP3   OH252058   5.993   6.793   2.147  0.1819  0.5584 -0.5896
 9288TIP3    H152059   6.064   6.731   2.130  0.8141  1.2385 -0.4764
 9288TIP3    H252060   5.964   6.771   2.236  0.2683  0.3050 -0.6218
 9289TIP3   OH252061   2.917   1.763   2.074 -0.1544  0.3589  0.0237
 9289TIP3    H152062   2.914   1.697   2.143  0.3412  1.2782  0.9434
 9289TIP3    H252063   2.838   1.748   2.022 -1.0730  0.3113  1.3961
 9290TIP3   OH252064   3.674   1.067   1.056  0.2344 -0.4033 -0.2596
 9290TIP3    H152065   3.584   1.066   1.024  0.9094 -0.9890 -2.2632
 9290TIP3    H252066   3.694   0.975   1.072  0.0553 -0.1588  1.5509
 9291TIP3   OH252067   2.248   6.623   0.744 -0.2472 -0.5631  0.1674
 9291TIP3    H152068   2.222   6.670   0.823  0.5532  1.7166 -0.8398
 9291TIP3    H252069   2.344   6.624   0.747 -0.1874  0.3802 -1.2486
 9292TIP3   OH252070   2.881   1.731   0.628  0.3224  0.1815  0.0617
 9292TIP3    H152071   2.841   1.656   0.671  2.0838 -0.5918  0.4302
 9292TIP3    H252072   2.821   1.803   0.645 -0.0554 -0.5426  2.0753
 9293TIP3   OH252073   5.294   2.574   1.559 -0.3191 -0.1691 -0.3617
 9293TIP3    H152074   5.388   2.581   1.542 -0.1354  0.2538  0.7524
 9293TIP3    H252075   5.254   2.623   1.488  0.3361  0.1264 -0.5362
 9294TIP3   OH252076   2.385   1.167   1.376  0.0300 -0.2563 -0.4454
 9294TIP3    H152077   2.383   1.085   1.326 -0.7958 -1.3834  1.3024
 9294TIP3    H252078   2.450   1.221   1.331  1.6514 -2.4094 -0.8847
 9295TIP3   OH252079   0.135   5.164   2.129 -0.6512  0.6779  0.0872
 9295TIP3    H152080   0.182   5.231   2.179  0.9117 -0.5082  0.2817
 9295TIP3    H252081   0.121   5.204   2.044 -1.0595  1.7820  0.6477
 9296TIP3   OH252082   2.836   6.678   2.444 -0.5776  0.6930  0.0107
 9296TIP3    H152083   2.846   6.770   2.418  0.8688  0.8596  1.0058
 9296TIP3    H252084   2.763   6.679   2.506  0.7649  1.6051  1.6847
 9297TIP3   OH252085   2.770   7.228   2.137 -0.5683 -0.2379 -0.1754
 9297TIP3    H152086   2.678   7.209   2.117  0.1269 -2.8670 -1.2124
 9297TIP3    H252087   2.815   7.222   2.054  0.5635  1.4862  0.2431
 9298TIP3   OH252088   1.552   4.349   1.145  0.1803 -0.0349  0.4124
 9298TIP3    H152089   1.609   4.424   1.129  2.4312 -1.8833 -0.8906
 9298TIP3    H252090   1.471   4.371   1.099  0.2602  2.1318  1.2028
 9299TIP3   OH252091   0.240   0.236   1.856  0.1246 -0.2243  0.1461
 9299TIP3    H152092   0.154   0.199   1.874 -0.6835  0.7094 -1.6293
 9299TIP3    H252093   0.256   0.216   1.764  0.9962  1.2085 -0.0367
 9300TIP3   OH252094   4.719   3.650   0.470  0.4351 -0.0314 -0.2276
 9300TIP3    H152095   4.757   3.599   0.542  0.0077  3.5225  2.8732
 9300TIP3    H252096   4.628   3.663   0.497 -0.3147 -0.2268 -2.5096
 9301TIP3   OH252097   1.450   3.102   1.488  0.2892 -0.1909  0.1892
 9301TIP3    H152098   1.408   3.017   1.501 -0.8948 -0.0356 -2.0260
 9301TIP3    H252099   1.447   3.144   1.574 -0.4610 -1.7887  0.9864
 9302TIP3   OH252100   5.202   4.676   2.237 -1.3669 -0.3628 -0.3912
 9302TIP3    H152101   5.151   4.755   2.248  0.2946  0.6113  0.8082
 9302TIP3    H252102   5.278   4.688   2.293 -1.4687 -3.1967  0.5233
 9303TIP3   OH252103   3.247   6.485   1.204 -0.3462 -0.2401  0.5376
 9303TIP3    H152104   3.216   6.485   1.113 -0.9244 -0.7493  0.7304
 9303TIP3    H252105   3.241   6.576   1.231 -0.8403 -0.1942  0.2877
 9304TIP3   OH252106   1.286   6.412   2.799 -0.1872  0.1075  0.1360
 9304TIP3    H152107   1.357   6.475   2.784  0.5747 -0.4438  1.2600
 9304TIP3    H252108   1.311   6.368   2.880 -0.6573 -1.7245 -0.6791
 9305TIP3   OH252109   1.167   4.114   3.331 -0.4812  0.2567  0.1241
 9305TIP3    H152110   1.103   4.138   3.398  0.9612  2.0103  0.9703
 9305TIP3    H252111   1.124   4.138   3.248 -1.3428  0.3695  0.5916
 9306TIP3   OH252112   7.050   6.830   2.732  0.0314  0.1263  0.9408
 9306TIP3    H152113   7.078   6.902   2.675 -2.3850 -0.3749 -1.0824
 9306TIP3    H252114   6.967   6.801   2.694 -0.5097 -1.8671  3.3910
 9307TIP3   OH252115   7.122   5.424   0.637  0.0114  0.4858 -0.3627
 9307TIP3    H152116   7.046   5.470   0.601  0.6849  0.4179 -1.9426
 9307TIP3    H252117   7.085   5.360   0.697 -1.1538  0.6824 -0.8400
 9308TIP3   OH252118   0.176   3.803   0.458 -0.5127 -0.3144 -0.0698
 9308TIP3    H152119   0.178   3.783   0.365  0.7931  1.6452 -0.5244
 9308TIP3    H252120   0.105   3.867   0.468  1.2080  1.7723 -0.3299
 9309TIP3   OH252121   2.352   2.921   1.826  0.2218 -0.2796  0.1240
 9309TIP3    H152122   2.282   2.895   1.886 -0.4839  1.3615  0.0598
 9309TIP3    H252123   2.318   2.902   1.739  0.9788 -2.0290  0.1715
 9310TIP3   OH252124   6.910   4.697   0.544 -0.4935 -0.5814  0.8998
 9310TIP3    H152125   6.844   4.727   0.606 -0.0451 -1.7699  2.0078
 9310TIP3    H252126   6.906   4.601   0.550 -1.1188 -0.7999 -1.6635
 9311TIP3   OH252127   6.535   1.866   0.570  0.2461  0.2258  0.0542
 9311TIP3    H152128   6.447   1.893   0.597  0.9651  2.4724  0.3848
 9311TIP3    H252129   6.592   1.898   0.640  1.2929 -1.9036  0.2481
 9312TIP3   OH252130   5.432   5.750   1.368 -0.4166  0.3329  0.4438
 9312TIP3    H152131   5.393   5.751   1.281  0.6027  1.4502 -0.0391
 9312TIP3    H252132   5.361   5.775   1.427 -1.4346 -1.6232  0.1160
 9313TIP3   OH252133   6.060   6.827   1.445 -0.1199 -0.4549 -0.3624
 9313TIP3    H152134   6.001   6.755   1.468  1.0156 -1.2205  0.2701
 9313TIP3    H252135   6.124   6.829   1.517 -0.8956  2.0792  0.3675
 9314TIP3   OH252136   2.958   5.767   2.189 -0.2650 -0.9868  0.3667
 9314TIP3    H152137   2.906   5.838   2.150  0.7919 -0.2602  0.2209
 9314TIP3    H252138   2.949   5.694   2.127  2.1823  0.4449 -1.9145
 9315TIP3   OH252139   1.924   6.406   2.822  0.4613 -0.1976  1.0691
 9315TIP3    H152140   1.917   6.348   2.897  1.5209 -1.9098 -0.1079
 9315TIP3    H252141   1.858   6.374   2.760  2.1849 -1.2988 -0.2825
 9316TIP3   OH252142   2.850   1.414   3.970  0.1185 -0.4792  0.3022
 9316TIP3    H152143   2.903   1.475   3.919 -0.8972  0.9665  0.9088
 9316TIP3    H252144   2.850   1.333   3.919 -0.4058  0.7272 -1.7397
 9317TIP3   OH252145   2.490   1.640   1.199  0.6060 -0.4115  0.4602
 9317TIP3    H152146   2.500   1.735   1.204  0.1688 -0.1802 -1.8451
 9317TIP3    H252147   2.477   1.613   1.289  0.1317  1.7988  1.1282
 9318TIP3   OH252148   3.293   0.108   2.908 -0.2437  0.4946  0.1147
 9318TIP3    H152149   3.239   0.036   2.878  2.3679 -1.6401  0.1241
 9318TIP3    H252150   3.256   0.134   2.992 -1.4329 -0.6090 -0.0539
 9319TIP3   OH252151   1.981   4.666   0.679 -0.1716  0.1927 -0.1087
 9319TIP3    H152152   1.927   4.716   0.618 -0.5870 -0.1708 -0.0463
 9319TIP3    H252153   1.940   4.579   0.682  0.3999 -0.0838 -0.0411
 9320TIP3   OH252154   2.101   4.792   2.271 -0.2944  0.1180 -0.2431
 9320TIP3    H152155   2.088   4.883   2.299 -0.7832 -0.1673  0.5138
 9320TIP3    H252156   2.081   4.792   2.178 -0.4637  0.7555 -0.2114
 9321TIP3   OH252157   4.927   6.274   2.494 -0.3028  0.4153  0.3319
 9321TIP3    H152158   4.874   6.290   2.416  2.6457 -1.8886 -2.3870
 9321TIP3    H252159   4.877   6.212   2.546 -1.9150  1.2965 -0.1018
 9322TIP3   OH252160   2.593   1.412   0.564  0.7407 -0.7283 -0.2628
 9322TIP3    H152161   2.633   1.426   0.478  1.5649  1.4821  0.3947
 9322TIP3    H252162   2.502   1.440   0.554 -0.0251 -3.2703 -1.0955
 9323TIP3   OH252163   5.571   5.296   2.371  0.2212  0.2180  0.5603
 9323TIP3    H152164   5.513   5.372   2.376  0.1782  0.4290 -1.8817
 9323TIP3    H252165   5.632   5.317   2.300  1.2746 -1.3526  0.9451
 9324TIP3   OH252166   4.535   4.924   1.804  0.1174 -0.1543 -0.0113
 9324TIP3    H152167   4.565   4.909   1.893 -0.8075  0.9435  0.5144
 9324TIP3    H252168   4.479   5.002   1.810  0.7111  0.4516 -1.6837
 9325TIP3   OH252169   3.564   6.912   1.395 -0.2211 -0.7704 -0.0508
 9325TIP3    H152170   3.510   6.983   1.428  0.9491  0.2924 -0.3345
 9325TIP3    H252171   3.564   6.924   1.300  2.2703  0.6472  0.0408
 9326TIP3   OH252172   6.917   4.305   1.993 -0.5948 -0.2155 -0.2536
 9326TIP3    H152173   6.862   4.354   1.932  0.4412  0.4606 -0.6747
 9326TIP3    H252174   6.932   4.221   1.949 -0.2597  0.0798 -0.7138
 9327TIP3   OH252175   2.574   5.575   1.825 -0.2411 -0.5099 -0.2019
 9327TIP3    H152176   2.574   5.501   1.885 -1.2104  0.0700  0.5466
 9327TIP3    H252177   2.541   5.540   1.742 -0.0828 -1.0443 -0.0413
 9328TIP3   OH252178   0.881   4.383   0.847  0.5600 -0.0962 -0.2701
 9328TIP3    H152179   0.972   4.408   0.866  0.6496 -0.5128 -0.1437
 9328TIP3    H252180   0.889   4.309   0.787  0.3125 -0.3992  0.0651
 9329TIP3   OH252181   4.026   0.204   1.999 -0.3489 -0.4185 -0.3615
 9329TIP3    H152182   4.121   0.193   1.993 -0.3791 -0.0378 -1.9380
 9329TIP3    H252183   3.992   0.160   1.922 -1.2363  1.6213 -1.2080
 9330TIP3   OH252184   2.557   1.904   1.305 -0.4665 -0.2425 -0.4414
 9330TIP3    H152185   2.528   1.979   1.252  1.8111  0.6406 -0.5221
 9330TIP3    H252186   2.583   1.942   1.388  0.1974 -1.0214 -0.2830
 9331TIP3   OH252187   0.147   4.561   1.119 -0.0839  0.4127  0.4934
 9331TIP3    H152188   0.160   4.494   1.187 -2.4532  0.6251  1.2255
 9331TIP3    H252189   0.075   4.615   1.152  0.0892  1.7923 -1.2652
 9332TIP3   OH252190   4.552   1.370   2.088  0.5968  0.1714 -0.5685
 9332TIP3    H152191   4.502   1.385   2.168  0.9888  0.7165 -0.4224
 9332TIP3    H252192   4.564   1.275   2.085 -1.6921 -0.1316 -1.3749
 9333TIP3   OH252193   2.057   0.723   0.811  0.2358  0.4543  0.0176
 9333TIP3    H152194   2.133   0.750   0.863 -0.9000  0.2943  1.8280
 9333TIP3    H252195   2.022   0.804   0.774 -0.5790  0.9821  1.8404
 9334TIP3   OH252196   0.870   5.954   2.271 -0.2905 -0.0718  0.4018
 9334TIP3    H152197   0.807   5.989   2.334  1.0372  0.8165  1.3243
 9334TIP3    H252198   0.949   5.938   2.324  0.4433 -0.5617 -0.8070
 9335TIP3   OH252199   4.894   1.831   1.682  0.1150 -0.3080 -0.6319
 9335TIP3    H152200   4.808   1.790   1.692 -0.5461  0.9847 -0.8374
 9335TIP3    H252201   4.924   1.849   1.771  0.4513 -1.2805 -0.5357
 9336TIP3   OH252202   5.629   0.769   1.412 -0.1024 -0.7962 -0.4495
 9336TIP3    H152203   5.613   0.714   1.489  1.9831 -0.9122 -0.0554
 9336TIP3    H252204   5.591   0.854   1.435 -1.7801 -1.5197 -0.3648
 9337TIP3   OH252205   6.483   5.987   2.305  0.0528 -0.3431  0.5609
 9337TIP3    H152206   6.406   6.044   2.313  2.1194  2.7334  0.3705
 9337TIP3    H252207   6.531   5.998   2.387  2.6742  1.8479 -1.0708
 9338TIP3   OH252208   5.858   1.066   0.533 -0.7715 -0.1420 -0.3347
 9338TIP3    H152209   5.924   1.077   0.602 -0.6686 -0.7258 -0.3347
 9338TIP3    H252210   5.864   0.973   0.510 -1.0216 -0.0152 -0.9109
 9339TIP3   OH252211   7.237   2.588   1.423 -0.0943  0.1251  0.8466
 9339TIP3    H152212   7.143   2.602   1.414 -0.0329 -0.4941 -1.4408
 9339TIP3    H252213   7.272   2.675   1.443 -1.0101  0.7197  0.0138
 9340TIP3   OH252214   2.791   4.764   2.122 -0.2200 -0.4245 -0.0706
 9340TIP3    H152215   2.749   4.850   2.121 -2.9290 -1.6344 -1.0364
 9340TIP3    H252216   2.726   4.706   2.163  0.9081 -2.2661 -0.7698
 9341TIP3   OH252217   0.137   5.697   0.492 -0.5578 -0.3153  0.3651
 9341TIP3    H152218   0.093   5.764   0.544  0.8045 -0.8677  2.3628
 9341TIP3    H252219   0.067   5.638   0.464 -1.3810  0.1989  1.2874
 9342TIP3   OH252220   1.124   1.124   3.028  0.5403 -0.4666  0.5649
 9342TIP3    H152221   1.164   1.084   2.951  0.1741 -0.1245  0.1911
 9342TIP3    H252222   1.179   1.096   3.101 -0.2849 -2.5144  0.4671
 9343TIP3   OH252223   7.044   6.247   1.882  0.1191 -0.2610 -0.0651
 9343TIP3    H152224   7.067   6.166   1.836 -1.7848 -0.1787 -1.2836
 9343TIP3    H252225   6.950   6.239   1.898  0.6741 -0.4915  4.3773
 9344TIP3   OH252226   1.503   7.415   1.553  0.2789  0.0550  0.4531
 9344TIP3    H152227   1.483   7.351   1.485 -0.8706 -0.0762  0.8944
 9344TIP3    H252228   1.533   7.492   1.505  1.3320 -0.6733 -0.1026
 9345TIP3   OH252229   7.055   2.519   0.493  0.3358 -0.2363  0.1790
 9345TIP3    H152230   7.083   2.532   0.583  0.6761 -3.6184  0.7212
 9345TIP3    H252231   7.137   2.516   0.443  0.1280  2.0593 -0.3919
 9346TIP3   OH252232   5.049   6.896   0.387 -0.2468 -0.0913 -0.3157
 9346TIP3    H152233   5.085   6.813   0.355 -0.2919 -0.4337  0.4797
 9346TIP3    H252234   5.106   6.920   0.460  1.9266  2.3990 -2.5994
 9347TIP3   OH252235   2.901   5.288   1.053  0.7068 -0.3716 -0.2552
 9347TIP3    H152236   2.822   5.304   1.001  3.3480  1.2432 -4.3186
 9347TIP3    H252237   2.929   5.201   1.026  0.1691 -1.1109  1.4904
 9348TIP3   OH252238   2.567   7.434   1.853 -0.6442  0.2570  0.0755
 9348TIP3    H152239   2.510   7.413   1.779  1.2390  0.1458 -1.4272
 9348TIP3    H252240   2.532   7.515   1.889 -1.8905  0.0513 -0.6326
 9349TIP3   OH252241   3.113   6.952   1.193  0.3342 -0.2521 -0.2353
 9349TIP3    H152242   3.185   6.987   1.246  0.4466 -2.1476  0.9536
 9349TIP3    H252243   3.146   6.869   1.159 -0.9601 -0.7106 -0.4398
 9350TIP3   OH252244   0.032   6.774   1.333  0.1582  1.1341  0.0319
 9350TIP3    H152245  -0.020   6.711   1.282 -0.2681  1.4271  0.1003
 9350TIP3    H252246   0.002   6.860   1.302  0.1824  1.3093  0.4946
 9351TIP3   OH252247   2.268   3.885   2.281  0.3347 -0.7240  0.1241
 9351TIP3    H152248   2.233   3.824   2.216  0.3170 -1.1309  0.5096
 9351TIP3    H252249   2.356   3.905   2.250  0.0743 -0.3637 -0.3966
 9352TIP3   OH252250   2.681   1.820   2.296 -0.2725 -0.5485 -0.2548
 9352TIP3    H152251   2.764   1.836   2.342  0.3644 -0.0329 -1.5309
 9352TIP3    H252252   2.667   1.899   2.244  0.0787 -1.8506 -2.4550
 9353TIP3   OH252253   0.558   0.269   1.823  0.1755  0.1402  0.5270
 9353TIP3    H152254   0.462   0.266   1.830  0.2625 -1.5540  1.7759
 9353TIP3    H252255   0.577   0.232   1.736 -0.3206  2.4423 -0.6318
 9354TIP3   OH252256   5.281   7.177   1.780  0.9737  0.4398 -0.2567
 9354TIP3    H152257   5.306   7.106   1.720  0.2219  0.5027 -0.6566
 9354TIP3    H252258   5.197   7.209   1.746  1.5988  1.9384 -0.4384
 9355TIP3   OH252259   2.428   7.379   1.158  0.4289  0.1847 -0.1632
 9355TIP3    H152260   2.516   7.373   1.120  0.7761 -1.2308  0.7737
 9355TIP3    H252261   2.369   7.367   1.084  0.9636  1.9288 -0.9385
 9356TIP3   OH252262   0.367   7.377   1.688  0.1720 -0.2572 -0.1393
 9356TIP3    H152263   0.390   7.289   1.719 -1.4437 -0.8211 -0.4222
 9356TIP3    H252264   0.280   7.394   1.726 -0.3732  0.4224 -1.6102
 9357TIP3   OH252265   2.379   3.732   1.047  0.5099  0.3497 -0.2144
 9357TIP3    H152266   2.456   3.676   1.060  0.6071  0.1377 -1.5294
 9357TIP3    H252267   2.308   3.671   1.029  0.1954  0.5811  0.2248
 9358TIP3   OH252268   4.420   1.420   2.339 -0.3459  0.0766 -0.6328
 9358TIP3    H152269   4.454   1.394   2.424  0.0749 -0.9568 -1.1017
 9358TIP3    H252270   4.453   1.510   2.327 -0.5036  0.2731  0.3282
 9359TIP3   OH252271   4.957   3.838   2.342 -0.0346 -0.5432 -0.3861
 9359TIP3    H152272   4.949   3.814   2.434  1.3529  0.1294 -0.0584
 9359TIP3    H252273   4.867   3.846   2.311 -0.5597  0.3342  1.2336
 9360TIP3   OH252274   1.732   4.512   2.541  0.2860  0.2786  0.0325
 9360TIP3    H152275   1.761   4.596   2.577 -0.4628  0.0448  1.2442
 9360TIP3    H252276   1.700   4.534   2.453 -0.8019  1.4542  0.6868
 9361TIP3   OH252277   0.529   2.119   2.107  0.2513 -0.0625  0.0876
 9361TIP3    H152278   0.574   2.203   2.118 -1.2256  0.7330  0.3523
 9361TIP3    H252279   0.600   2.055   2.100  1.4464  0.8473  2.5229
 9362TIP3   OH252280   3.160   1.250   1.135  0.1199 -0.4243 -0.3273
 9362TIP3    H152281   3.124   1.163   1.120  0.0654 -0.6308  0.9245
 9362TIP3    H252282   3.248   1.234   1.169 -0.6389 -0.0693  1.9322
 9363TIP3   OH252283   1.277   6.084   1.976 -0.3654  0.5376 -0.5120
 9363TIP3    H152284   1.367   6.118   1.968  0.0681 -0.7149 -1.2668
 9363TIP3    H252285   1.285   6.011   2.037 -0.5483 -0.5870 -1.7920
 9364TIP3   OH252286   4.832   0.868   0.416  0.0386  0.4560  0.0913
 9364TIP3    H152287   4.839   0.846   0.323 -0.4572 -1.5749  0.4836
 9364TIP3    H252288   4.749   0.915   0.423 -0.1387  0.2329 -0.4339
 9365TIP3   OH252289   6.245   7.005   1.017  0.0190 -0.6953 -0.0713
 9365TIP3    H152290   6.198   7.019   1.100 -1.2509  1.3504 -1.0499
 9365TIP3    H252291   6.176   6.987   0.954  0.9301 -1.6523 -0.8111
 9366TIP3   OH252292   4.663   3.405   0.836 -0.3979 -0.1745 -0.2067
 9366TIP3    H152293   4.724   3.334   0.818 -2.0386 -1.6046 -0.3551
 9366TIP3    H252294   4.581   3.378   0.794 -1.8791  0.4705  2.0897
 9367TIP3   OH252295   3.983   6.971   2.383 -0.5805  0.1901  0.8800
 9367TIP3    H152296   4.064   6.947   2.339 -0.8835 -1.3436  1.0969
 9367TIP3    H252297   3.914   6.946   2.321 -0.9298  0.0782  1.3097
 9368TIP3   OH252298   1.010   3.099   1.954 -0.1928  0.1078  0.7247
 9368TIP3    H152299   0.949   3.140   1.893  0.2688  0.2838  0.3803
 9368TIP3    H252300   1.052   3.172   2.000  0.2119  0.0127  0.5156
 9369TIP3   OH252301   3.439   3.537   1.409 -0.5524  0.5480 -0.1545
 9369TIP3    H152302   3.356   3.564   1.369 -1.4753  0.7957  1.8055
 9369TIP3    H252303   3.455   3.603   1.477  2.3340  1.6663 -1.7559
 9370TIP3   OH252304   2.326   4.715   2.781  0.0029  0.0743  0.3608
 9370TIP3    H152305   2.326   4.740   2.688 -0.1002 -1.8196 -0.1956
 9370TIP3    H252306   2.307   4.621   2.780 -1.5655  0.3120  2.4079
 9371TIP3   OH252307   5.348   1.073   1.683 -0.3215 -0.2922 -0.2479
 9371TIP3    H152308   5.303   1.122   1.614 -0.1110 -0.7261 -0.7067
 9371TIP3    H252309   5.323   0.982   1.667 -1.2123 -0.2800  0.9734
 9372TIP3   OH252310   4.264   5.455   1.128  0.7011 -0.2208 -0.4207
 9372TIP3    H152311   4.357   5.430   1.124  0.4223 -1.3364 -0.0544
 9372TIP3    H252312   4.219   5.377   1.158  0.0706  1.2627  3.0613
 9373TIP3   OH252313   4.590   1.049   1.121 -0.2368  0.1068 -0.0186
 9373TIP3    H152314   4.509   1.001   1.104 -0.5137 -0.5796  2.7488
 9373TIP3    H252315   4.575   1.135   1.082 -1.8645 -0.3591 -0.5073
 9374TIP3   OH252316   5.790   5.660   2.664 -0.6945 -0.7266  0.7984
 9374TIP3    H152317   5.867   5.689   2.713 -1.8694  0.6703  1.9265
 9374TIP3    H252318   5.737   5.739   2.656 -0.6316 -0.8966 -2.7202
 9375TIP3   OH252319   0.041   4.425   1.988 -0.4019 -0.2655  0.2415
 9375TIP3    H152320  -0.030   4.479   2.024 -0.0021 -0.6459  1.6656
 9375TIP3    H252321   0.091   4.486   1.934  0.5719  1.1308  2.5286
 9376TIP3   OH252322   0.270   2.367   0.856  0.5849  0.1294 -0.2964
 9376TIP3    H152323   0.276   2.311   0.779  0.3198 -0.7642  0.3160
 9376TIP3    H252324   0.355   2.410   0.861  0.4610  0.5319 -1.3205
 9377TIP3   OH252325   1.347   6.770   0.878  0.1206 -0.0951  0.3341
 9377TIP3    H152326   1.252   6.781   0.882  0.2098  0.4827  1.6571
 9377TIP3    H252327   1.360   6.676   0.871 -0.5507 -0.3955  2.4237
 9378TIP3   OH252328   2.478   2.951   0.692 -0.0282  0.2428  0.2742
 9378TIP3    H152329   2.394   2.960   0.736  0.1219 -1.1278  0.9135
 9378TIP3    H252330   2.526   2.886   0.744  0.6618 -0.4634 -1.1593
 9379TIP3   OH252331   2.635   4.541   2.804 -0.3394  0.5630 -0.0524
 9379TIP3    H152332   2.636   4.587   2.888 -0.8317  1.0888 -0.3287
 9379TIP3    H252333   2.709   4.578   2.756  2.0388 -2.0117  1.3074
 9380TIP3   OH252334   7.137   5.151   0.822  0.0352  0.1047  0.3134
 9380TIP3    H152335   7.221   5.168   0.779  0.1716 -1.3939 -0.0643
 9380TIP3    H252336   7.161   5.127   0.912  0.2871 -2.7124 -0.3999
 9381TIP3   OH252337   3.894   5.358   1.521  0.3294 -0.2760 -0.1328
 9381TIP3    H152338   3.808   5.318   1.536 -0.0466 -0.1813 -1.8260
 9381TIP3    H252339   3.899   5.370   1.426  1.8178  0.6305  0.0213
 9382TIP3   OH252340   2.121   0.353   2.086 -0.4665 -0.2282  0.3008
 9382TIP3    H152341   2.129   0.279   2.146  0.2337 -0.3448  0.0757
 9382TIP3    H252342   2.031   0.383   2.096 -0.4760 -0.5055  1.1091
 9383TIP3   OH252343   2.867   0.022   2.469  0.6775  0.0787  1.0177
 9383TIP3    H152344   2.926   0.045   2.541 -1.2980  1.1453  2.3959
 9383TIP3    H252345   2.782   0.011   2.510 -0.6805  1.3792 -1.2145
 9384TIP3   OH252346   4.386   2.002   0.850  0.0525 -0.2651  0.0990
 9384TIP3    H152347   4.372   1.982   0.942 -1.4655  1.4798  0.3058
 9384TIP3    H252348   4.308   1.970   0.805 -0.8588  1.9506 -0.0242
 9385TIP3   OH252349   6.354   2.046   0.708 -0.1929 -0.2757  0.0307
 9385TIP3    H152350   6.284   2.014   0.764 -0.0502  0.6682  0.7767
 9385TIP3    H252351   6.331   2.138   0.691 -0.4808 -0.6469 -1.8460
 9386TIP3   OH252352   6.067   1.872   0.787 -0.0134  0.6908  0.1559
 9386TIP3    H152353   6.095   1.835   0.703  1.0318  3.8359 -1.0556
 9386TIP3    H252354   6.061   1.797   0.846  1.0387 -1.4344 -2.2417
 9387TIP3   OH252355   0.210   0.377   3.335  0.1388 -0.4592  0.1906
 9387TIP3    H152356   0.197   0.416   3.249  0.2028 -0.5207  0.1531
 9387TIP3    H252357   0.262   0.441   3.383  0.7542 -0.7619 -0.0658
 9388TIP3   OH252358   6.789   3.369   0.926 -0.6203  0.5791 -0.3089
 9388TIP3    H152359   6.859   3.424   0.892  1.3045 -0.6087  1.5680
 9388TIP3    H252360   6.789   3.292   0.868  0.3479  0.1168  0.2854
 9389TIP3   OH252361   7.089   3.707   1.594 -0.7098 -0.5100  0.2936
 9389TIP3    H152362   7.117   3.674   1.679 -1.3413 -0.5731  0.4750
 9389TIP3    H252363   7.115   3.799   1.594 -1.6110 -0.2516  0.9483
 9390TIP3   OH252364   3.578   4.786   2.104 -0.6060  0.1674 -0.5129
 9390TIP3    H152365   3.580   4.854   2.171  3.8554  1.2135 -1.3649
 9390TIP3    H252366   3.578   4.834   2.021  0.9024 -0.8324 -1.1461
 9391TIP3   OH252367   5.438   4.540   2.425  0.3427  0.0819 -0.7690
 9391TIP3    H152368   5.475   4.571   2.508  0.8439  1.5051 -1.4783
 9391TIP3    H252369   5.344   4.536   2.441  0.5805 -1.6362  0.4539
 9392TIP3   OH252370   4.728   3.514   2.140 -0.2895  0.5279  0.3212
 9392TIP3    H152371   4.767   3.428   2.122  0.3177  0.8084  0.2819
 9392TIP3    H252372   4.691   3.541   2.056 -3.3718 -1.1031  0.9985
 9393TIP3   OH252373   4.207   3.752   0.575  0.0187 -0.5010 -0.3240
 9393TIP3    H152374   4.296   3.757   0.541  0.0546  1.2201 -0.0641
 9393TIP3    H252375   4.217   3.736   0.668  0.1007  0.8410 -0.0949
 9394TIP3   OH252376   1.388   1.550   1.252 -0.0620 -0.5556 -0.1742
 9394TIP3    H152377   1.476   1.565   1.287 -0.6168  1.9789  0.3539
 9394TIP3    H252378   1.340   1.513   1.326  0.4653 -1.6792 -0.3773
 9395TIP3   OH252379   0.139   1.861   2.762 -0.2768 -0.4348  0.6141
 9395TIP3    H152380   0.093   1.808   2.827 -1.9475 -1.8899 -1.5890
 9395TIP3    H252381   0.100   1.948   2.769 -2.6443 -1.3278 -0.3534
 9396TIP3   OH252382   2.397   0.344   1.203  0.0909 -0.2551  0.3435
 9396TIP3    H152383   2.474   0.380   1.247  0.5319 -1.4983  0.6319
 9396TIP3    H252384   2.430   0.311   1.119  0.3607 -2.7346  1.3447
 9397TIP3   OH252385   6.815   4.883   2.195 -0.1492 -0.2341  0.5509
 9397TIP3    H152386   6.746   4.881   2.129 -0.1822  0.2852  0.5643
 9397TIP3    H252387   6.864   4.802   2.181  0.0883  0.0584 -0.3813
 9398TIP3   OH252388   0.802   2.908   3.200 -0.1944 -0.3208 -0.2531
 9398TIP3    H152389   0.838   2.865   3.277 -2.6970 -0.3744  0.9955
 9398TIP3    H252390   0.788   2.836   3.138 -1.2112 -0.8442  0.5375
 9399TIP3   OH252391   5.106   5.718   2.224  0.5561 -0.5515  0.1232
 9399TIP3    H152392   5.065   5.802   2.201  2.3435  0.4680  0.4553
 9399TIP3    H252393   5.056   5.653   2.175 -1.3827  0.5965  0.4501
 9400TIP3   OH252394   2.574   6.612   1.505  0.1950  0.5977  0.0865
 9400TIP3    H152395   2.659   6.639   1.538 -0.8977  3.7270  0.7046
 9400TIP3    H252396   2.588   6.598   1.411  1.7367 -0.8252  0.4989
 9401TIP3   OH252397   6.356   5.232   1.731  0.1063 -0.4601 -0.1588
 9401TIP3    H152398   6.387   5.308   1.683 -1.4420  0.5981  0.4340
 9401TIP3    H252399   6.413   5.226   1.807  0.0219  0.3404 -0.0259
 9402TIP3   OH252400   3.796   0.433   2.633  0.1466 -0.2241  0.6220
 9402TIP3    H152401   3.833   0.345   2.641 -0.3223 -0.5985 -0.9345
 9402TIP3    H252402   3.727   0.424   2.567  0.9106  1.5410 -0.4901
 9403TIP3   OH252403   6.299   3.547   2.252  0.2433  0.4498  0.0867
 9403TIP3    H152404   6.255   3.529   2.169  0.2358  2.1927 -0.3182
 9403TIP3    H252405   6.318   3.460   2.288 -0.1882 -0.3355 -1.4880
 9404TIP3   OH252406   6.456   2.699   1.163  0.2558 -0.2357  0.5660
 9404TIP3    H152407   6.434   2.754   1.088  0.6990 -0.4375  0.2840
 9404TIP3    H252408   6.395   2.625   1.156  0.3157 -0.2681  0.3914
 9405TIP3   OH252409   0.865   6.019   1.836  0.1962  0.4691 -0.1001
 9405TIP3    H152410   0.893   6.055   1.752  0.2796 -2.9141 -1.6921
 9405TIP3    H252411   0.945   5.981   1.873 -0.0224  1.1461  1.1352
 9406TIP3   OH252412   0.247   7.184   1.190 -0.1762 -0.0378  0.4905
 9406TIP3    H152413   0.207   7.222   1.111  0.2539  1.7929  1.1162
 9406TIP3    H252414   0.212   7.095   1.193 -1.2339  0.2751 -1.0483
 9407TIP3   OH252415   2.065   3.440   3.268 -0.2538  0.1446 -0.3093
 9407TIP3    H152416   2.139   3.494   3.241 -0.3503  1.1623  1.3486
 9407TIP3    H252417   1.989   3.497   3.258 -0.4456  0.0984  0.7442
 9408TIP3   OH252418   1.112   3.672   2.327 -0.2200  0.6765 -0.0167
 9408TIP3    H152419   1.061   3.608   2.377  2.0622 -0.9041  0.4845
 9408TIP3    H252420   1.055   3.698   2.255 -0.9122 -2.9801 -1.0284
 9409TIP3   OH252421   2.848   6.153   1.683 -0.2908  0.0955  0.0822
 9409TIP3    H152422   2.855   6.132   1.590  0.6181  0.1912  0.1222
 9409TIP3    H252423   2.923   6.209   1.701  0.8345 -1.7275  1.3780
 9410TIP3   OH252424   2.138   3.214   1.484 -0.0225  0.5998 -0.2532
 9410TIP3    H152425   2.094   3.233   1.567  1.3154  0.4694  0.4991
 9410TIP3    H252426   2.171   3.299   1.455  1.4348  0.3012  0.4811
 9411TIP3   OH252427   6.648   1.027   1.268  0.1666 -0.2257 -0.1357
 9411TIP3    H152428   6.725   1.083   1.262 -0.1295  0.0951 -1.1392
 9411TIP3    H252429   6.661   0.960   1.202 -0.1952 -0.4344  0.0010
 9412TIP3   OH252430   5.511   1.998   1.615  0.3764 -0.5076  0.1148
 9412TIP3    H152431   5.523   2.089   1.589  0.9936 -0.2103  1.3783
 9412TIP3    H252432   5.434   1.969   1.566 -0.2030  0.8751  0.1685
 9413TIP3   OH252433   2.593   0.777   2.129  0.0119  0.2298  0.1579
 9413TIP3    H152434   2.545   0.697   2.145  1.6601 -1.2816 -1.8943
 9413TIP3    H252435   2.617   0.809   2.216 -0.0037 -1.9450  1.0029
 9414TIP3   OH252436   2.490   6.318   1.240 -0.0738  0.1790  0.2220
 9414TIP3    H152437   2.425   6.314   1.170 -1.0037 -0.1450  1.0691
 9414TIP3    H252438   2.554   6.383   1.210  0.1140 -0.6759 -1.3582
 9415TIP3   OH252439   2.343   7.256   2.892  0.0630  0.3269 -0.0222
 9415TIP3    H152440   2.250   7.256   2.871 -0.0239 -0.1047  0.3576
 9415TIP3    H252441   2.381   7.319   2.830 -0.8427  2.5249  1.5104
 9416TIP3   OH252442   3.346   5.760   0.450 -0.0199 -0.1438  0.0169
 9416TIP3    H152443   3.264   5.759   0.402  1.0891  0.6769 -2.0528
 9416TIP3    H252444   3.359   5.670   0.480 -1.5325 -0.3220  0.1923
 9417TIP3   OH252445   3.120   3.633   2.173 -0.1438 -0.2400  0.3349
 9417TIP3    H152446   3.088   3.638   2.083 -0.3387 -1.0136  0.3566
 9417TIP3    H252447   3.145   3.541   2.185  0.7524  0.0487  0.7733
 9418TIP3   OH252448   4.474   3.771   0.586  0.1259 -0.0669 -0.2684
 9418TIP3    H152449   4.512   3.740   0.668 -0.1737 -2.1567 -0.8563
 9418TIP3    H252450   4.510   3.859   0.574 -0.9808  0.9441  2.8203
 9419TIP3   OH252451   5.667   6.490   0.760 -0.0931  0.1648  0.4713
 9419TIP3    H152452   5.585   6.525   0.796 -0.6881  0.0542 -0.6978
 9419TIP3    H252453   5.721   6.471   0.836 -1.0579  0.4898  1.2622
 9420TIP3   OH252454   4.305   5.083   3.339  0.0639  0.6184  0.0028
 9420TIP3    H152455   4.239   5.020   3.309 -1.4667  1.7706  0.8220
 9420TIP3    H252456   4.387   5.033   3.338 -0.8617 -0.9885 -0.6494
 9421TIP3   OH252457   2.886   7.267   3.246  0.0993 -0.3826  0.0817
 9421TIP3    H152458   2.840   7.259   3.330 -0.1663 -1.2805 -0.1332
 9421TIP3    H252459   2.979   7.262   3.270  0.0242 -2.9920  0.1774
 9422TIP3   OH252460   6.811   0.647   0.906  0.4907  0.2661 -0.1302
 9422TIP3    H152461   6.874   0.661   0.836 -1.2123 -1.3664 -2.1104
 9422TIP3    H252462   6.830   0.560   0.940  0.0761  0.2787  0.1450
 9423TIP3   OH252463   4.592   3.282   1.247  0.3988  0.4570  0.6021
 9423TIP3    H152464   4.566   3.190   1.261  1.1741  0.3230  1.2550
 9423TIP3    H252465   4.512   3.332   1.259 -0.2921 -0.2230 -0.9487
 9424TIP3   OH252466   3.018   4.459   0.659  0.1470 -0.4480  0.6179
 9424TIP3    H152467   2.985   4.531   0.713  2.1472 -0.6862  2.2814
 9424TIP3    H252468   2.961   4.459   0.582 -0.8316  1.9602  1.2366
 9425TIP3   OH252469   4.849   1.375   1.794  0.0559 -0.5218  0.5226
 9425TIP3    H152470   4.945   1.376   1.801  0.0427 -0.6256  0.7352
 9425TIP3    H252471   4.819   1.425   1.870 -0.0486 -0.1423  0.2319
 9426TIP3   OH252472   6.614   5.222   0.570 -0.7347  0.4206 -0.1769
 9426TIP3    H152473   6.599   5.294   0.632 -0.8503  0.3270 -0.0959
 9426TIP3    H252474   6.703   5.192   0.590 -0.5541  0.7696 -0.4453
 9427TIP3   OH252475   1.664   3.340   2.705 -0.1154 -0.4518  0.0654
 9427TIP3    H152476   1.683   3.324   2.798  0.2711 -0.9090 -0.0842
 9427TIP3    H252477   1.587   3.396   2.705 -0.3368 -0.7437  0.6593
 9428TIP3   OH252478   3.504   0.531   1.240 -0.1278  0.3428 -0.9035
 9428TIP3    H152479   3.448   0.563   1.311 -0.2015 -0.6243 -0.5083
 9428TIP3    H252480   3.532   0.445   1.269  0.9540  0.4946 -1.4475
 9429TIP3   OH252481   6.178   0.505   0.657  0.1306  0.3565 -0.0112
 9429TIP3    H152482   6.165   0.413   0.634  0.6282  0.4279 -0.5907
 9429TIP3    H252483   6.161   0.508   0.751  1.6797 -0.6419  0.3430
 9430TIP3   OH252484   6.395   1.898   2.215 -0.3060  0.2892 -0.4209
 9430TIP3    H152485   6.381   1.882   2.309 -0.2109 -2.4014 -0.7793
 9430TIP3    H252486   6.487   1.925   2.209  0.0266 -0.6400  0.1917
 9431TIP3   OH252487   0.534   5.098   1.074  0.0251  0.0347 -0.1314
 9431TIP3    H152488   0.516   5.151   0.996  1.7204  0.9538  0.0692
 9431TIP3    H252489   0.629   5.093   1.078 -0.0398 -2.6571  0.1330
 9432TIP3   OH252490   4.704   1.330   0.638  0.1537  0.0562 -0.0050
 9432TIP3    H152491   4.705   1.403   0.700  0.4856  0.1397 -0.1067
 9432TIP3    H252492   4.754   1.261   0.681 -0.5321 -0.2770  0.2807
 9433TIP3   OH252493   7.457   5.002   0.875 -0.1473  0.0266 -0.6988
 9433TIP3    H152494   7.422   5.084   0.842 -3.5702  0.7106  3.5820
 9433TIP3    H252495   7.534   5.027   0.925 -0.8673  0.6662  0.1400
 9434TIP3   OH252496   2.067   7.050   3.472 -0.0237 -0.1682 -0.5505
 9434TIP3    H152497   2.151   7.014   3.500  0.1515  1.6234  1.5389
 9434TIP3    H252498   2.003   7.011   3.531 -0.3259  0.1777 -0.6416
 9435TIP3   OH252499   1.798   3.267   1.155 -0.2082 -0.3603 -0.3495
 9435TIP3    H152500   1.801   3.219   1.237 -0.2434  0.5391  0.1844
 9435TIP3    H252501   1.738   3.339   1.171  0.5247  0.3798 -0.8669
 9436TIP3   OH252502   4.369   3.421   1.907  0.3875 -0.1305  0.1405
 9436TIP3    H152503   4.288   3.471   1.910  0.5553  0.2197 -0.8736
 9436TIP3    H252504   4.350   3.345   1.852  0.5206 -0.4824  0.5699
 9437TIP3   OH252505   3.047   3.238   2.745 -0.4378  0.1035 -0.0846
 9437TIP3    H152506   2.984   3.244   2.673  0.6268  1.8821 -0.9352
 9437TIP3    H252507   3.128   3.208   2.704  0.0080  0.4901  0.4954
 9438TIP3   OH252508   6.530   4.546   1.292 -0.1315 -0.1575 -0.0423
 9438TIP3    H152509   6.482   4.492   1.230 -0.7483 -2.1933  2.0627
 9438TIP3    H252510   6.469   4.618   1.313 -0.7602 -0.6359 -0.2067
 9439TIP3   OH252511   5.030   0.719   0.577  0.1542 -0.9539  0.0647
 9439TIP3    H152512   4.955   0.748   0.526 -0.3822 -0.8683  0.8704
 9439TIP3    H252513   4.994   0.654   0.638  0.8876 -1.5243 -0.0887
 9440TIP3   OH252514   2.456   5.100   2.771  0.2801 -0.0789  0.1807
 9440TIP3    H152515   2.388   5.145   2.721  1.1759  0.3898 -0.6530
 9440TIP3    H252516   2.508   5.170   2.809  0.3739 -0.4338  0.7057
 9441TIP3   OH252517   1.246   1.449   1.448  0.5328 -0.2875 -0.3949
 9441TIP3    H152518   1.229   1.434   1.541 -1.2398  2.5855 -0.1292
 9441TIP3    H252519   1.161   1.434   1.405  0.2369  2.3996 -0.8836
 9442TIP3   OH252520   2.316   2.191   0.526  0.0662 -0.0216 -0.2286
 9442TIP3    H152521   2.233   2.159   0.490 -0.6800 -1.3765  2.4511
 9442TIP3    H252522   2.293   2.275   0.565 -0.2685 -0.7078  1.1140
 9443TIP3   OH252523   0.663   5.187   0.554 -0.2922 -0.5963 -0.3778
 9443TIP3    H152524   0.576   5.151   0.542  0.7324 -2.8382 -1.9140
 9443TIP3    H252525   0.688   5.161   0.643 -1.4787  0.9216  0.4536
 9444TIP3   OH252526   2.097   1.060   0.686  0.6215  0.7824 -0.6770
 9444TIP3    H152527   2.030   1.056   0.618  0.0616 -0.8983 -0.0578
 9444TIP3    H252528   2.048   1.070   0.767  1.0220 -1.3274 -0.1220
 9445TIP3   OH252529   6.336   6.666   1.240  0.1107  0.1294  0.3985
 9445TIP3    H152530   6.350   6.572   1.247  0.4070  0.2394  1.3654
 9445TIP3    H252531   6.250   6.674   1.198 -1.5520 -0.6264  3.4087
 9446TIP3   OH252532   0.022   2.800   2.021 -0.1583  0.3007 -0.3178
 9446TIP3    H152533   0.117   2.814   2.024 -0.4796  3.0554  1.2217
 9446TIP3    H252534  -0.002   2.779   2.111 -0.9891 -0.6561 -0.7470
 9447TIP3   OH252535   0.137   5.650   2.998  0.1286 -0.3411  0.2430
 9447TIP3    H152536   0.057   5.599   3.012  0.7407 -1.3999 -0.0481
 9447TIP3    H252537   0.114   5.738   3.027 -1.4785 -0.3593 -0.8402
 9448TIP3   OH252538   4.605   4.257   2.721 -0.1850  0.0789  0.0941
 9448TIP3    H152539   4.645   4.249   2.808  0.2399  0.9576 -0.0047
 9448TIP3    H252540   4.554   4.177   2.711  1.2548 -0.9138  0.3749
 9449TIP3   OH252541   2.406   3.489   2.904  0.0704  0.1908 -0.1827
 9449TIP3    H152542   2.374   3.406   2.871 -2.2239  0.1587  1.8862
 9449TIP3    H252543   2.501   3.477   2.912 -0.1378 -1.9872 -0.4760
 9450TIP3   OH252544   3.167   4.883   2.747  0.1244  0.2378  0.0102
 9450TIP3    H152545   3.224   4.842   2.812 -0.9929 -0.9261  0.2991
 9450TIP3    H252546   3.078   4.859   2.775 -0.4623  1.2318 -0.9432
 9451TIP3   OH252547   0.500   0.425   2.915 -0.0268 -0.0277  0.8140
 9451TIP3    H152548   0.441   0.372   2.862 -0.4130 -1.5050  2.5934
 9451TIP3    H252549   0.470   0.515   2.902  0.2107 -0.2509 -1.7650
 9452TIP3   OH252550   1.130   2.500   1.836  0.1511 -0.2982 -0.4639
 9452TIP3    H152551   1.054   2.557   1.838 -0.6471 -1.2829 -1.3226
 9452TIP3    H252552   1.126   2.451   1.918  1.1642  1.2292  0.5475
 9453TIP3   OH252553   3.190   2.341   1.332 -0.0966 -0.0590 -0.1460
 9453TIP3    H152554   3.234   2.424   1.351  0.9198 -0.3498 -1.1301
 9453TIP3    H252555   3.107   2.366   1.292 -1.5657  0.5346  2.9810
 9454TIP3   OH252556   3.230   4.478   0.864 -0.3416 -0.3417 -0.1228
 9454TIP3    H152557   3.189   4.550   0.913 -1.2671  0.1556 -1.5734
 9454TIP3    H252558   3.182   4.474   0.782  1.6584 -0.6293 -1.3553
 9455TIP3   OH252559   5.912   6.709   0.585 -0.0791  0.3288  0.0775
 9455TIP3    H152560   5.863   6.641   0.539 -2.4931  1.2490  1.0837
 9455TIP3    H252561   5.876   6.791   0.550 -0.1891  1.0406  1.7381
 9456TIP3   OH252562   0.406   3.422   1.556  0.7965  0.0272  0.3434
 9456TIP3    H152563   0.445   3.509   1.550 -1.8171  1.3818  1.6305
 9456TIP3    H252564   0.435   3.377   1.476  2.4839  1.9149 -0.1791
 9457TIP3   OH252565   4.989   0.639   1.860  0.3248 -0.5519  0.4498
 9457TIP3    H152566   5.029   0.594   1.786  0.0184  0.9228 -0.6674
 9457TIP3    H252567   4.910   0.589   1.879  0.4124 -0.9582 -0.2209
 9458TIP3   OH252568   7.298   0.441   3.056 -0.0746  0.0697  0.6659
 9458TIP3    H152569   7.277   0.366   3.000  1.9095  1.1630 -1.7322
 9458TIP3    H252570   7.221   0.497   3.051 -0.0257  0.0447 -0.8935
 9459TIP3   OH252571   5.935   5.760   0.821 -0.5945 -0.1592 -0.4897
 9459TIP3    H152572   5.956   5.748   0.728 -0.5561  2.7249 -0.9484
 9459TIP3    H252573   5.847   5.797   0.821 -0.3435  0.4809  0.5708
 9460TIP3   OH252574   0.590   4.619   1.813  0.3361 -0.0941 -0.6503
 9460TIP3    H152575   0.522   4.636   1.748 -1.0640 -0.3412  0.6716
 9460TIP3    H252576   0.579   4.690   1.878  0.7526 -0.6383  0.0293
 9461TIP3   OH252577   0.711   2.335   1.355  0.2211  0.0489 -0.3178
 9461TIP3    H152578   0.767   2.291   1.291 -1.1487 -1.9585 -0.2099
 9461TIP3    H252579   0.664   2.265   1.400 -0.9562  1.5502  0.9567
 9462TIP3   OH252580   2.047   0.278   3.408  0.3071 -0.8416  0.1168
 9462TIP3    H152581   1.985   0.224   3.458  0.9955 -0.5892  1.2756
 9462TIP3    H252582   1.997   0.356   3.385 -0.4800 -1.6347 -0.9445
 9463TIP3   OH252583   5.998   4.635   1.040  0.6211 -0.1046  0.7142
 9463TIP3    H152584   6.044   4.551   1.046  0.0813 -0.7397 -2.4435
 9463TIP3    H252585   6.053   4.689   0.983  0.2875  1.2501  1.6205
 9464TIP3   OH252586   1.909   4.077   0.685  0.2461 -0.5190 -0.0269
 9464TIP3    H152587   1.828   4.041   0.722 -0.7051 -0.8126 -2.2143
 9464TIP3    H252588   1.948   4.004   0.637  0.3131  0.3385 -1.3238
 9465TIP3   OH252589   2.043   0.298   2.907  0.6914 -0.1817  0.0548
 9465TIP3    H152590   2.049   0.373   2.965 -0.5654 -0.7878  1.0205
 9465TIP3    H252591   1.952   0.296   2.879  1.4965  0.8897 -3.1086
 9466TIP3   OH252592   5.256   1.768   0.580 -0.2957 -0.2814  0.0434
 9466TIP3    H152593   5.181   1.709   0.586 -0.5760  0.1134  0.4687
 9466TIP3    H252594   5.231   1.844   0.632  0.0302  0.2517 -0.5713
 9467TIP3   OH252595   4.162   0.269   0.960 -0.3080  0.3319  0.4701
 9467TIP3    H152596   4.199   0.304   0.879 -0.4074 -1.6795 -0.5052
 9467TIP3    H252597   4.149   0.346   1.015  0.2812  1.7035 -1.1980
 9468TIP3   OH252598   7.464   2.113   0.823 -0.3949 -0.2590  0.0673
 9468TIP3    H152599   7.434   2.163   0.899 -1.4682  0.3158 -0.7069
 9468TIP3    H252600   7.551   2.082   0.847 -0.4106  0.5496  1.2316
 9469TIP3   OH252601   0.595   3.942   2.492  0.1994 -0.2332 -0.4247
 9469TIP3    H152602   0.587   3.847   2.494 -1.9332 -0.0841  0.9606
 9469TIP3    H252603   0.541   3.970   2.418  1.4175 -0.0946 -1.2997
 9470TIP3   OH252604   5.628   4.117   0.666  0.4075  0.0080  0.0282
 9470TIP3    H152605   5.603   4.111   0.758  0.1878  0.6731  0.0209
 9470TIP3    H252606   5.710   4.167   0.667  0.2313  0.3049 -0.1561
 9471TIP3   OH252607   1.093   6.825   0.896 -0.0207  0.2445  0.6354
 9471TIP3    H152608   1.032   6.759   0.862 -0.8848  0.9339  0.7867
 9471TIP3    H252609   1.059   6.847   0.982  1.5415 -0.6993  1.5334
 9472TIP3   OH252610   6.167   2.359   0.911 -0.3881 -0.0774  0.1444
 9472TIP3    H152611   6.125   2.274   0.899 -1.5574  0.4746  0.2150
 9472TIP3    H252612   6.177   2.394   0.822 -0.3499 -0.0754  0.1492
 9473TIP3   OH252613   5.770   3.941   2.832 -0.3273  0.2312 -0.1276
 9473TIP3    H152614   5.701   3.888   2.872  1.4366 -0.9149  1.5713
 9473TIP3    H252615   5.852   3.900   2.861  1.0931  1.9229 -1.5216
 9474TIP3   OH252616   1.131   2.357   2.116  0.5450 -0.4601 -0.6662
 9474TIP3    H152617   1.169   2.444   2.122 -0.7324  0.0952 -0.1949
 9474TIP3    H252618   1.055   2.359   2.175  0.5373 -1.9174 -0.5734
 9475TIP3   OH252619   2.084   3.771   1.160  0.7470 -0.0842  0.2521
 9475TIP3    H152620   2.163   3.794   1.208  1.1119  0.1656 -0.4592
 9475TIP3    H252621   2.036   3.712   1.219  0.5772  1.1939  1.4298
 9476TIP3   OH252622   3.833   2.033   1.875  0.2436  0.5657 -0.4944
 9476TIP3    H152623   3.887   1.997   1.945  0.9469  0.8465 -0.8918
 9476TIP3    H252624   3.813   2.122   1.903  1.1931  0.9547 -1.0103
 9477TIP3   OH252625   3.176   2.498   1.950  0.2288 -0.2193 -0.6348
 9477TIP3    H152626   3.088   2.460   1.950  0.6702 -1.4384  1.6588
 9477TIP3    H252627   3.176   2.558   2.025  0.6268  1.7352 -2.1233
 9478TIP3   OH252628   7.424   1.871   3.013  0.2180 -0.2549  0.1590
 9478TIP3    H152629   7.453   1.787   2.977  2.2319  0.9473 -1.1379
 9478TIP3    H252630   7.433   1.933   2.941 -0.8675  1.1835  1.2093
 9479TIP3   OH252631   7.166   5.754   2.249  0.4788  0.5325  0.3263
 9479TIP3    H152632   7.254   5.782   2.275  0.6159  0.5636 -0.1515
 9479TIP3    H252633   7.111   5.776   2.323  0.9675  0.0096  0.8583
 9480TIP3   OH252634   2.993   2.270   2.385  0.5774  0.4521 -0.2602
 9480TIP3    H152635   3.061   2.212   2.353 -1.0082 -1.3885 -0.4719
 9480TIP3    H252636   2.998   2.265   2.481  1.6874  1.5368 -0.2413
 9481TIP3   OH252637   1.685   0.933   2.758 -0.0981  0.0712  0.6979
 9481TIP3    H152638   1.780   0.944   2.765 -0.0978  0.1431  0.5978
 9481TIP3    H252639   1.673   0.875   2.683 -0.1453  0.3396  0.4929
 9482TIP3   OH252640   2.267   4.129   1.782  0.5534  0.0521 -0.2941
 9482TIP3    H152641   2.286   4.207   1.834  1.0064 -0.8186  0.8783
 9482TIP3    H252642   2.323   4.137   1.705  1.5326  0.2794  0.4206
 9483TIP3   OH252643   2.729   2.314   2.349  0.1361  0.6717  0.0275
 9483TIP3    H152644   2.818   2.282   2.368  0.2959  1.2436  0.2709
 9483TIP3    H252645   2.725   2.399   2.393 -0.7418  0.3872  0.5090
 9484TIP3   OH252646   6.602   5.309   1.418  0.1519  0.5634  0.3653
 9484TIP3    H152647   6.665   5.247   1.454  2.0422  1.5632 -1.0121
 9484TIP3    H252648   6.517   5.273   1.440  1.1864 -1.0741  1.9629
 9485TIP3   OH252649   0.130   0.654   2.337 -0.5405 -0.1886  0.3343
 9485TIP3    H152650   0.073   0.643   2.261  1.6650 -1.5416 -1.2228
 9485TIP3    H252651   0.171   0.740   2.324 -1.3991  0.3246  0.9150
 9486TIP3   OH252652   7.218   4.397   1.999 -0.1426 -0.1186 -0.2243
 9486TIP3    H152653   7.124   4.379   1.994  0.0856 -1.6052  0.1887
 9486TIP3    H252654   7.253   4.323   2.048  1.0014  1.3401  1.2824
 9487TIP3   OH252655   3.500   1.789   3.677  0.1157 -0.6869 -0.3287
 9487TIP3    H152656   3.460   1.770   3.761 -0.7013 -0.7212 -0.7160
 9487TIP3    H252657   3.439   1.849   3.634  1.3188  0.6578 -0.2445
 9488TIP3   OH252658   3.306   3.637   0.771  0.0666 -0.7135 -0.4606
 9488TIP3    H152659   3.286   3.550   0.807  0.1497  0.1562  1.8582
 9488TIP3    H252660   3.220   3.676   0.754 -0.0892 -0.2507  1.1782
 9489TIP3   OH252661   0.758   6.117   2.487  0.7047  0.1519 -0.0490
 9489TIP3    H152662   0.835   6.161   2.450 -0.4615  1.7447 -0.6954
 9489TIP3    H252663   0.767   6.129   2.581  1.4772 -0.1173 -0.0758
 9490TIP3   OH252664   6.199   6.908   1.671 -0.0195 -0.2141  0.5777
 9490TIP3    H152665   6.293   6.904   1.690  0.2718  0.3568 -0.5972
 9490TIP3    H252666   6.157   6.913   1.757  1.2012  2.5606  1.1232
 9491TIP3   OH252667   4.935   4.390   0.656 -0.2847  0.1064  0.3637
 9491TIP3    H152668   4.840   4.390   0.642 -0.3389 -1.9336  0.3949
 9491TIP3    H252669   4.961   4.481   0.644 -2.3451  0.8651  1.1229
 9492TIP3   OH252670   1.426   5.654   0.598 -0.1201 -0.0048  0.9196
 9492TIP3    H152671   1.428   5.559   0.611  2.1296 -0.5115 -1.9233
 9492TIP3    H252672   1.370   5.667   0.522 -2.3069  1.2859  2.6544
 9493TIP3   OH252673   4.957   6.515   2.631  0.0897 -0.4770 -0.2707
 9493TIP3    H152674   4.932   6.432   2.590 -0.5566 -1.0042  1.1187
 9493TIP3    H252675   5.046   6.531   2.601 -0.5362 -0.5315 -2.3035
 9494TIP3   OH252676   0.754   6.537   1.096 -0.1082  0.8555  0.2749
 9494TIP3    H152677   0.825   6.512   1.038 -0.3491  0.9607 -0.0680
 9494TIP3    H252678   0.687   6.574   1.038 -0.3884  0.8769  0.6069
 9495TIP3   OH252679   3.984   4.478   1.194  0.6176 -0.3129  0.1935
 9495TIP3    H152680   4.024   4.502   1.111  2.7267 -0.0329  1.2107
 9495TIP3    H252681   4.038   4.521   1.260 -1.7054  0.4585  1.7083
 9496TIP3   OH252682   1.976   6.048   1.567  0.1782 -0.4883  0.0904
 9496TIP3    H152683   1.885   6.040   1.595 -0.5455 -2.2327 -2.4882
 9496TIP3    H252684   1.972   6.101   1.487  1.6958  1.0227  0.9514
 9497TIP3   OH252685   1.447   1.080   1.050  0.5198 -0.2437 -0.3779
 9497TIP3    H152686   1.353   1.088   1.033  0.7060  1.7330 -0.7032
 9497TIP3    H252687   1.487   1.073   0.964  0.7186 -0.4989 -0.2663
 9498TIP3   OH252688   3.161   2.866   0.563 -0.0790  0.1245  0.6014
 9498TIP3    H152689   3.182   2.902   0.649 -0.4454  1.8715  0.0038
 9498TIP3    H252690   3.111   2.935   0.520  0.2748 -0.6341 -1.1058
 9499TIP3   OH252691   3.534   0.947   2.499  0.2772 -0.1749 -0.4558
 9499TIP3    H152692   3.621   0.982   2.480  0.9876 -1.4625  0.3437
 9499TIP3    H252693   3.544   0.852   2.494 -0.8123 -0.3844  0.7153
 9500TIP3   OH252694   4.337   6.234   1.701 -0.3673  0.0521 -0.1579
 9500TIP3    H152695   4.256   6.275   1.671  0.3886  3.4282  1.9498
 9500TIP3    H252696   4.307   6.162   1.758 -1.8280 -0.0750 -1.0334
 9501TIP3   OH252697   6.403   6.138   1.314  0.4033 -0.3546  0.6989
 9501TIP3    H152698   6.464   6.181   1.374 -1.2934  1.4666  1.2114
 9501TIP3    H252699   6.405   6.193   1.235 -1.4935  0.5540  1.2140
 9502TIP3   OH252700   1.841   1.341   1.285 -0.3750  0.4212 -0.1675
 9502TIP3    H152701   1.898   1.401   1.238  3.2849 -1.0161  1.9686
 9502TIP3    H252702   1.804   1.284   1.218  3.1308 -0.3966 -1.5988
 9503TIP3   OH252703   3.478   5.649   2.090 -0.3481  0.3862 -0.0700
 9503TIP3    H152704   3.454   5.739   2.115  1.6034  0.9206  0.0123
 9503TIP3    H252705   3.572   5.653   2.076 -0.4141 -1.4112 -1.1993
 9504TIP3   OH252706   5.398   7.050   2.703  0.3908 -0.0822  0.4166
 9504TIP3    H152707   5.330   7.116   2.690  1.2166  0.6148 -0.5462
 9504TIP3    H252708   5.398   7.033   2.797 -1.8486 -0.9292  0.3249
 9505TIP3   OH252709   5.489   0.473   1.385 -0.0298 -0.1757 -0.2469
 9505TIP3    H152710   5.509   0.491   1.476  1.7108  1.7126 -0.9305
 9505TIP3    H252711   5.398   0.500   1.374 -0.2056 -0.2839  0.8673
 9506TIP3   OH252712   4.091   2.042   0.872 -0.2234  0.5036 -0.0038
 9506TIP3    H152713   4.149   2.082   0.937 -0.4428  0.6216  0.1200
 9506TIP3    H252714   4.054   2.116   0.824 -0.0043  0.4153 -0.3189
 9507TIP3   OH252715   6.571   0.529   0.504  0.2062 -0.8455 -0.1568
 9507TIP3    H152716   6.588   0.459   0.567  0.5479  0.0208  0.7288
 9507TIP3    H252717   6.595   0.610   0.550 -0.9071 -0.0683 -0.8862
 9508TIP3   OH252718   5.414   2.021   2.153 -0.0793  0.3551  0.2902
 9508TIP3    H152719   5.439   1.943   2.202  0.6332  0.7955  0.6441
 9508TIP3    H252720   5.482   2.085   2.174 -1.1136  1.3519  0.7121
 9509TIP3   OH252721   3.722   1.170   1.829  0.0005 -0.6370  0.4487
 9509TIP3    H152722   3.749   1.079   1.842  0.1948 -0.6438  0.0212
 9509TIP3    H252723   3.665   1.168   1.752  1.3979 -0.1625 -0.6455
 9510TIP3   OH252724   6.553   5.250   1.955 -0.2212 -0.7526 -0.0596
 9510TIP3    H152725   6.626   5.305   1.984 -1.1329  1.9912 -2.5311
 9510TIP3    H252726   6.475   5.294   1.989 -0.9076 -2.2704  0.4481
 9511TIP3   OH252727   5.455   1.720   3.148 -0.1358  0.7007 -0.1698
 9511TIP3    H152728   5.388   1.739   3.083 -0.3025 -0.5210 -0.3960
 9511TIP3    H252729   5.425   1.639   3.190  1.6734 -0.4463 -0.9865
 9512TIP3   OH252730   7.248   5.840   2.682 -0.2428 -0.6694 -0.1843
 9512TIP3    H152731   7.157   5.830   2.710 -0.4271  0.2774 -0.4023
 9512TIP3    H252732   7.300   5.810   2.756 -0.7315 -1.0548  0.0081
 9513TIP3   OH252733   5.259   6.700   1.188 -0.7323 -0.4677 -0.0477
 9513TIP3    H152734   5.275   6.606   1.200 -0.7949 -0.2066  2.7089
 9513TIP3    H252735   5.224   6.729   1.273 -1.7097  1.8650 -1.1681
 9514TIP3   OH252736   5.270   6.998   2.384  0.0139 -0.5060  0.1467
 9514TIP3    H152737   5.346   6.941   2.374  0.2997  0.0544 -1.1441
 9514TIP3    H252738   5.230   6.999   2.297 -0.8035  0.1201  0.5228
 9515TIP3   OH252739   4.513   5.839   1.067  0.2232  0.2945  0.1416
 9515TIP3    H152740   4.451   5.851   1.139 -0.3891 -0.4062 -0.2548
 9515TIP3    H252741   4.576   5.910   1.078 -0.3929  0.7557  0.8200
 9516TIP3   OH252742   5.353   4.400   2.789 -0.2497 -0.1346 -0.1649
 9516TIP3    H152743   5.274   4.440   2.823  1.4949  2.6693  0.9292
 9516TIP3    H252744   5.367   4.322   2.843 -1.4382  0.1664  0.5978
 9517TIP3   OH252745   3.003   2.559   2.843 -0.0527 -0.2836 -0.0167
 9517TIP3    H152746   2.922   2.574   2.893 -0.6037 -1.5974 -0.4842
 9517TIP3    H252747   2.998   2.468   2.816  0.8547  0.0488 -1.3899
 9518TIP3   OH252748   4.253   0.919   3.156  0.4800  0.1141 -0.3125
 9518TIP3    H152749   4.176   0.920   3.212  0.5991  0.8696 -0.1558
 9518TIP3    H252750   4.225   0.870   3.078  0.1923 -0.5833  0.2130
 9519TIP3   OH252751   0.631   6.314   1.666 -0.1255  0.3118  0.6107
 9519TIP3    H152752   0.590   6.355   1.590 -0.8121 -0.2004  0.6913
 9519TIP3    H252753   0.718   6.353   1.671  0.0473  0.1245 -0.6212
 9520TIP3   OH252754   1.993   6.162   2.518  0.4273  0.2467 -0.5503
 9520TIP3    H152755   1.926   6.231   2.516  1.4737  1.2935 -2.7775
 9520TIP3    H252756   2.073   6.206   2.545  0.6626 -0.5993  0.2030
 9521TIP3   OH252757   3.149   3.337   2.262 -0.6109 -0.1489  0.1415
 9521TIP3    H152758   3.060   3.359   2.291 -0.8643 -1.2524  0.2415
 9521TIP3    H252759   3.169   3.255   2.307  0.0359 -0.4748 -0.7098
 9522TIP3   OH252760   3.989   1.865   1.319  0.2545 -0.0262 -0.0794
 9522TIP3    H152761   4.013   1.792   1.375  1.3578  0.8312  0.5993
 9522TIP3    H252762   3.900   1.887   1.345  0.5487 -0.0112  0.9475
 9523TIP3   OH252763   2.808   6.651   3.343  0.1839  0.0260  0.0176
 9523TIP3    H152764   2.730   6.596   3.335 -1.4058  2.3140 -1.0954
 9523TIP3    H252765   2.841   6.659   3.254  1.2686 -0.2916  0.3777
 9524TIP3   OH252766   3.811   3.821   1.258 -0.0119 -0.3011  0.0139
 9524TIP3    H152767   3.728   3.810   1.212 -0.5467 -1.8900  1.2907
 9524TIP3    H252768   3.800   3.902   1.308  0.4392  1.2571 -2.2245
 9525TIP3   OH252769   5.116   1.691   0.871 -0.2201 -0.3620 -0.1471
 9525TIP3    H152770   5.077   1.695   0.783 -1.0988 -1.2768  0.1811
 9525TIP3    H252771   5.201   1.650   0.857 -0.8200 -1.5567 -0.4472
 9526TIP3   OH252772   6.731   4.982   1.161 -0.1766 -0.3299 -0.4619
 9526TIP3    H152773   6.710   4.903   1.111  1.0842 -1.2906  0.4387
 9526TIP3    H252774   6.803   4.955   1.219 -0.1199  1.3247  0.3029
 9527TIP3   OH252775   1.107   0.142   0.667 -0.2970  0.5548  0.2657
 9527TIP3    H152776   1.014   0.146   0.687 -0.8386 -2.6018 -1.0018
 9527TIP3    H252777   1.115   0.184   0.582 -0.7109  0.2764  0.0829
 9528TIP3   OH252778   7.218   4.194   1.247 -0.4400  0.0346 -0.0569
 9528TIP3    H152779   7.164   4.152   1.314 -2.2136  1.6168 -0.4180
 9528TIP3    H252780   7.155   4.227   1.183  1.1328 -0.4214 -1.9506
 9529TIP3   OH252781   2.680   4.896   0.527 -0.5611  0.1049  0.7319
 9529TIP3    H152782   2.655   4.985   0.550 -0.1857 -0.0744  1.9026
 9529TIP3    H252783   2.602   4.843   0.545 -1.2434  0.3632 -1.2715
 9530TIP3   OH252784   5.400   4.550   0.687  0.1105 -0.3574 -0.0366
 9530TIP3    H152785   5.430   4.639   0.674 -1.4024  0.1555 -0.2351
 9530TIP3    H252786   5.357   4.526   0.605  0.7348 -1.3823 -0.0903
 9531TIP3   OH252787   5.181   6.813   1.718 -0.5836  0.3090 -0.0535
 9531TIP3    H152788   5.221   6.879   1.662 -3.3562  1.4052 -0.8953
 9531TIP3    H252789   5.141   6.862   1.789  0.9731 -0.9038  1.7857
 9532TIP3   OH252790   1.453   5.182   0.508 -0.3379 -0.3052 -0.2259
 9532TIP3    H152791   1.482   5.197   0.418 -1.4620  0.9552 -0.4196
 9532TIP3    H252792   1.374   5.128   0.498  0.7807 -2.0803  0.1698
 9533TIP3   OH252793   3.525   1.331   3.383  0.4548 -0.1650 -0.2822
 9533TIP3    H152794   3.596   1.341   3.320  0.8720 -1.9449 -0.1450
 9533TIP3    H252795   3.447   1.320   3.329  0.6851 -0.8435 -0.4829
 9534TIP3   OH252796   2.813   1.084   0.710 -0.4136 -0.6064 -0.3130
 9534TIP3    H152797   2.739   1.125   0.666  1.3799  1.6060 -1.4670
 9534TIP3    H252798   2.816   1.125   0.796  0.1038  0.1293 -0.6747
 9535TIP3   OH252799   1.273   0.051   1.826 -0.3427 -0.6150  0.6185
 9535TIP3    H152800   1.302  -0.037   1.803  1.5519 -0.1093  0.9407
 9535TIP3    H252801   1.293   0.104   1.749  1.0035  0.0225  1.3723
 9536TIP3   OH252802   6.382   5.274   0.972 -0.0177 -0.0761 -0.4810
 9536TIP3    H152803   6.460   5.292   1.025  0.5100 -0.3178 -1.1658
 9536TIP3    H252804   6.356   5.186   0.998  0.7883 -0.5641 -1.2742
 9537TIP3   OH252805   3.379   3.328   1.040 -0.0113 -0.5194 -0.1161
 9537TIP3    H152806   3.435   3.275   1.095  0.7787  0.2257 -0.1910
 9537TIP3    H252807   3.433   3.350   0.964 -0.2036  0.6286  0.0479
 9538TIP3   OH252808   2.975   2.570   3.236  0.7456 -0.5627 -0.1598
 9538TIP3    H152809   3.035   2.609   3.299  2.2652  0.4063 -2.1116
 9538TIP3    H252810   2.966   2.635   3.166 -0.3077 -1.8524 -1.3041
 9539TIP3   OH252811   0.900   6.104   2.742  0.6050  1.0083 -0.1868
 9539TIP3    H152812   0.994   6.117   2.759  0.4215 -0.2002  2.1055
 9539TIP3    H252813   0.882   6.015   2.770 -0.9063  0.5601 -2.3577
 9540TIP3   OH252814   5.716   5.645   2.392 -0.0022 -0.0310 -0.0074
 9540TIP3    H152815   5.629   5.606   2.401  0.6344 -1.7515 -0.8870
 9540TIP3    H252816   5.738   5.675   2.480 -1.1340 -0.3340  0.3945
 9541TIP3   OH252817   3.625   0.547   0.439 -0.2010 -0.5137 -0.0479
 9541TIP3    H152818   3.590   0.462   0.412 -2.2586  0.0249  0.7185
 9541TIP3    H252819   3.683   0.527   0.512  1.5342 -1.4751 -1.5997
 9542TIP3   OH252820   3.704   6.718   0.927  0.7617  0.7640 -0.5196
 9542TIP3    H152821   3.756   6.679   0.996 -0.5923  0.4072  0.3460
 9542TIP3    H252822   3.655   6.788   0.971 -0.6058  0.1080 -0.9482
 9543TIP3   OH252823   2.611   7.287   3.656  0.1446 -0.1101 -0.2564
 9543TIP3    H152824   2.667   7.236   3.598  0.0201  0.1183 -0.5820
 9543TIP3    H252825   2.635   7.259   3.744  0.5033 -0.2864 -0.4102
 9544TIP3   OH252826   2.853   6.628   0.891 -0.5444  0.4582 -0.4479
 9544TIP3    H152827   2.772   6.633   0.840 -0.6514  0.2411 -0.3046
 9544TIP3    H252828   2.826   6.654   0.980 -0.9503 -1.6966  0.1319
 9545TIP3   OH252829   5.161   2.718   0.886 -0.4024  0.8438 -0.1848
 9545TIP3    H152830   5.195   2.634   0.855 -0.5891  0.9900 -0.7981
 9545TIP3    H252831   5.084   2.734   0.832 -0.9366  0.9442  0.5942
 9546TIP3   OH252832   6.908   1.441   1.818 -0.1839  0.2864 -0.5018
 9546TIP3    H152833   6.847   1.374   1.848 -0.2268  0.4743 -0.1593
 9546TIP3    H252834   6.942   1.481   1.899 -2.0442  2.3878 -0.6687
 9547TIP3   OH252835   2.011   5.311   1.429 -0.1345  0.0178  0.0132
 9547TIP3    H152836   2.089   5.366   1.423  1.0747 -1.7771 -2.0902
 9547TIP3    H252837   1.962   5.347   1.503  2.1229  1.8891  0.7180
 9548TIP3   OH252838   3.488   4.309   1.439 -0.6735  0.0175  0.1797
 9548TIP3    H152839   3.565   4.352   1.476 -0.6817  0.5718 -0.4361
 9548TIP3    H252840   3.508   4.215   1.447  0.0293  0.1521  0.1000
 9549TIP3   OH252841   0.026   6.331   0.714  0.3801 -0.0702  0.1574
 9549TIP3    H152842  -0.030   6.257   0.689  1.1829 -0.8913  0.7138
 9549TIP3    H252843  -0.026   6.381   0.777  0.7030 -1.5330  1.6604
 9550TIP3   OH252844   6.994   5.536   3.227  0.1081 -0.2861 -0.6948
 9550TIP3    H152845   7.076   5.560   3.185 -0.2523  0.5972 -0.9194
 9550TIP3    H252846   6.995   5.440   3.230  1.3895 -0.2693 -0.1810
 9551TIP3   OH252847   2.618   1.116   1.868  0.0227  0.2908 -0.9149
 9551TIP3    H152848   2.553   1.047   1.883 -0.5949  1.2768  1.4963
 9551TIP3    H252849   2.571   1.198   1.883  1.5027  1.0968 -0.3662
 9552TIP3   OH252850   5.632   3.904   0.532 -0.0632  0.4444  0.3760
 9552TIP3    H152851   5.587   3.917   0.449  2.2899  1.1341 -0.8759
 9552TIP3    H252852   5.616   3.986   0.580  0.8617  1.2145 -0.5818
 9553TIP3   OH252853   6.917   0.123   1.481  0.0285 -0.7471 -0.9202
 9553TIP3    H152854   6.946   0.111   1.571  1.0255 -0.3194 -1.1650
 9553TIP3    H252855   6.899   0.216   1.474  0.4410 -0.6880 -1.2843
 9554TIP3   OH252856   2.883   5.628   1.965  0.4011  0.1833 -0.1619
 9554TIP3    H152857   2.906   5.680   1.889  1.7689 -2.0196 -1.3889
 9554TIP3    H252858   2.847   5.547   1.929 -1.4430  0.1267  1.6278
 9555TIP3   OH252859   1.921   0.835   2.060 -0.1379  0.6289 -0.5457
 9555TIP3    H152860   2.015   0.840   2.073  0.2748 -0.4268 -2.6382
 9555TIP3    H252861   1.908   0.863   1.969 -1.5623 -1.2440 -0.9830
 9556TIP3   OH252862   7.246   4.329   0.619  0.1420  0.0870  0.5065
 9556TIP3    H152863   7.266   4.421   0.605  0.2031 -0.0278 -0.1809
 9556TIP3    H252864   7.298   4.304   0.695  1.2313  0.2503 -0.1781
 9557TIP3   OH252865   4.637   3.930   1.014 -0.0851  0.5002  0.6557
 9557TIP3    H152866   4.660   3.898   1.101 -1.4151  1.7247  1.5068
 9557TIP3    H252867   4.545   3.908   1.003 -0.1280  1.0073 -0.1397
 9558TIP3   OH252868   6.966   5.837   0.562  0.4924  0.4433 -0.4604
 9558TIP3    H152869   6.929   5.878   0.483 -0.5696  1.3705  0.4851
 9558TIP3    H252870   6.937   5.746   0.557 -0.4561  0.7450 -0.6246
 9559TIP3   OH252871   5.722   0.118   2.614  0.9563  0.6922 -0.2398
 9559TIP3    H152872   5.756   0.073   2.537  0.6718 -0.0935  0.0796
 9559TIP3    H252873   5.660   0.182   2.579  0.3087 -0.1320 -0.6403
 9560TIP3   OH252874   5.622   2.885   1.587  0.1141  0.0414  0.2645
 9560TIP3    H152875   5.715   2.866   1.580 -0.4038 -2.5063 -0.5421
 9560TIP3    H252876   5.592   2.896   1.497 -0.6665 -0.9595  0.3787
 9561TIP3   OH252877   1.131   2.226   0.670  0.6171 -0.7080  0.1709
 9561TIP3    H152878   1.145   2.143   0.625  0.6603 -0.2021 -0.7876
 9561TIP3    H252879   1.060   2.268   0.622  2.0572  0.7727 -0.7775
 9562TIP3   OH252880   2.623   6.101   2.489 -0.7369 -0.0911 -0.9393
 9562TIP3    H152881   2.598   6.164   2.422  1.2423 -0.3720 -2.0041
 9562TIP3    H252882   2.622   6.016   2.444 -0.8026 -0.4849 -0.2186
 9563TIP3   OH252883   0.690   5.745   1.636  0.1486  0.4420  0.0327
 9563TIP3    H152884   0.643   5.824   1.661 -0.9943  1.0600 -3.5196
 9563TIP3    H252885   0.753   5.774   1.570 -0.0491 -1.5177 -1.1091
 9564TIP3   OH252886   1.517   6.572   2.792 -0.6714 -0.9367 -0.0654
 9564TIP3    H152887   1.602   6.613   2.776 -0.3839 -1.5773 -0.2044
 9564TIP3    H252888   1.519   6.549   2.885 -0.6600 -1.0155 -0.0847
 9565TIP3   OH252889   1.565   1.657   2.400  0.3551  0.2513 -0.1256
 9565TIP3    H152890   1.540   1.749   2.395  1.2873  0.4909 -0.5034
 9565TIP3    H252891   1.659   1.658   2.415  0.3105 -0.6441  0.2854
 9566TIP3   OH252892   5.779   5.366   0.969  0.5611 -0.1348 -0.4155
 9566TIP3    H152893   5.688   5.396   0.967 -0.2725 -2.3813 -0.1861
 9566TIP3    H252894   5.808   5.385   1.058 -0.9321 -2.4758  0.6870
 9567TIP3   OH252895   3.162   4.546   2.637  0.3812  0.0494  0.1242
 9567TIP3    H152896   3.209   4.572   2.716  1.4348 -0.8679 -0.1808
 9567TIP3    H252897   3.167   4.451   2.635  1.4189  0.0901 -1.6358
 9568TIP3   OH252898   4.963   1.568   1.241 -0.3287 -0.1599 -0.0149
 9568TIP3    H152899   4.962   1.561   1.336  2.3613  3.0525  0.4327
 9568TIP3    H252900   4.923   1.654   1.224 -0.2427 -0.4328 -1.7450
 9569TIP3   OH252901   0.760   0.749   1.554  0.0302  0.6510  0.5021
 9569TIP3    H152902   0.810   0.830   1.553  2.5049 -0.7455  1.5976
 9569TIP3    H252903   0.826   0.680   1.555 -1.9729 -1.4543 -1.2329
 9570TIP3   OH252904   2.956   2.697   2.070 -0.6395  0.1797  0.1383
 9570TIP3    H152905   2.986   2.647   2.146 -2.0630 -1.4956 -0.3236
 9570TIP3    H252906   2.909   2.771   2.106 -0.4585 -0.0599  0.8844
 9571TIP3   OH252907   1.212   2.475   1.492 -0.2882  0.2653  0.0296
 9571TIP3    H152908   1.203   2.502   1.584 -1.8939 -0.3022  0.0744
 9571TIP3    H252909   1.299   2.504   1.467  0.3012  0.2013  1.8257
 9572TIP3   OH252910   2.859   7.485   2.206 -0.5964 -0.0819  0.1194
 9572TIP3    H152911   2.880   7.497   2.299  2.1234 -0.2927 -0.3842
 9572TIP3    H252912   2.798   7.411   2.205  1.2957 -1.7853  1.6107
 9573TIP3   OH252913   6.013   5.625   1.528  0.3316  0.6931 -0.0448
 9573TIP3    H152914   6.081   5.680   1.488 -0.0861  0.0933 -1.6487
 9573TIP3    H252915   5.931   5.664   1.498 -0.0499  1.0492  1.3878
 9574TIP3   OH252916   0.055   6.408   1.319 -0.3784  0.1142 -0.2483
 9574TIP3    H152917   0.113   6.448   1.254 -0.4483 -0.3322 -0.5867
 9574TIP3    H252918  -0.007   6.357   1.268 -1.2838  0.8405  0.0853
 9575TIP3   OH252919   2.688   5.432   2.612 -0.6113  0.0599 -0.6737
 9575TIP3    H152920   2.626   5.436   2.540 -1.9389  0.8680  0.4593
 9575TIP3    H252921   2.635   5.445   2.691  0.6846 -1.4711  0.5300
 9576TIP3   OH252922   3.001   5.788   1.758  0.1678 -0.3051  0.0711
 9576TIP3    H152923   3.019   5.874   1.721 -0.8784 -0.4264 -0.7827
 9576TIP3    H252924   2.908   5.772   1.738 -0.4925 -0.3778  2.7366
 9577TIP3   OH252925   3.441   1.593   2.523 -0.1331 -0.1289 -0.1828
 9577TIP3    H152926   3.431   1.647   2.601  2.2705 -0.5209  0.4691
 9577TIP3    H252927   3.354   1.554   2.510 -0.7508  0.3826  1.9590
 9578TIP3   OH252928   3.267   5.998   0.636  0.1825 -0.6091 -0.2436
 9578TIP3    H152929   3.304   5.929   0.580  0.1390 -1.6395  0.9458
 9578TIP3    H252930   3.173   5.979   0.638  0.1675 -0.4996  0.0606
 9579TIP3   OH252931   5.172   0.500   2.378 -0.4662  0.1720  0.3023
 9579TIP3    H152932   5.194   0.433   2.441 -0.3825  0.5571  0.6890
 9579TIP3    H252933   5.076   0.498   2.372 -0.4083 -0.8233 -0.6322
 9580TIP3   OH252934   2.201   3.472   1.690 -0.0195 -0.5005 -0.1144
 9580TIP3    H152935   2.107   3.484   1.675 -0.3316 -1.0632  1.2013
 9580TIP3    H252936   2.206   3.406   1.759  1.2742  0.9088  1.2420
 9581TIP3   OH252937   0.312   5.483   1.703  0.3524  0.0975  0.3766
 9581TIP3    H152938   0.234   5.456   1.654  0.7843  0.0030 -0.2647
 9581TIP3    H252939   0.367   5.527   1.638  0.4223  1.0080  1.0256
 9582TIP3   OH252940   6.023   2.334   1.732  0.3381 -0.0107  0.3415
 9582TIP3    H152941   6.080   2.293   1.666  0.2259 -1.0902  0.8813
 9582TIP3    H252942   5.956   2.268   1.750 -0.8303  1.0694  0.0580
 9583TIP3   OH252943   1.278   2.919   1.228  0.1820 -0.2510 -0.6330
 9583TIP3    H152944   1.352   2.979   1.241 -0.3698  0.2834  0.1826
 9583TIP3    H252945   1.230   2.955   1.153 -0.9777  1.2571  0.7335
 9584TIP3   OH252946   3.530   3.143   1.793  0.5496  0.2328  0.5919
 9584TIP3    H152947   3.508   3.189   1.874 -1.6371  0.6629 -0.1768
 9584TIP3    H252948   3.479   3.188   1.726  2.5444  0.0806 -1.1063
 9585TIP3   OH252949   3.509   2.908   2.307  0.3649  0.1355 -0.0755
 9585TIP3    H152950   3.446   2.921   2.236 -1.2388 -3.7699  0.3870
 9585TIP3    H252951   3.471   2.839   2.361  3.2840  0.3352  2.5163
 9586TIP3   OH252952   1.910   4.810   2.562 -0.1279 -0.0594 -0.2267
 9586TIP3    H152953   1.957   4.821   2.645 -1.8829 -0.5185  0.8879
 9586TIP3    H252954   1.849   4.884   2.559 -0.5775 -0.4416 -0.7491
 9587TIP3   OH252955   6.594   5.927   0.773  0.3017  0.2777 -0.2361
 9587TIP3    H152956   6.668   5.952   0.828  0.3621  2.8322 -1.3092
 9587TIP3    H252957   6.523   5.986   0.801 -0.8334 -1.0150 -0.3189
 9588TIP3   OH252958   1.366   6.358   1.356  0.1209  0.5028 -0.6839
 9588TIP3    H152959   1.440   6.354   1.416 -0.7605  0.3221  0.4199
 9588TIP3    H252960   1.400   6.404   1.279  1.2432  0.8274 -0.0123
 9589TIP3   OH252961   2.111   3.813   2.875  0.1838 -0.1106  0.0101
 9589TIP3    H152962   2.146   3.902   2.879 -0.8217  0.2697  1.1350
 9589TIP3    H252963   2.172   3.761   2.926 -0.1246  0.2812  0.8003
 9590TIP3   OH252964   0.800   4.201   1.353  0.5194  0.3624 -0.7416
 9590TIP3    H152965   0.714   4.208   1.394 -0.2309 -3.3640 -1.3404
 9590TIP3    H252966   0.797   4.262   1.280 -1.3197  0.8260 -0.3334
 9591TIP3   OH252967   5.559   0.309   2.463 -0.1162 -0.2407 -0.1332
 9591TIP3    H152968   5.505   0.336   2.538  0.4740  0.6374 -0.0099
 9591TIP3    H252969   5.531   0.366   2.391 -1.2514 -1.6285 -0.8267
 9592TIP3   OH252970   1.827   3.408   2.472  0.4522 -0.5100  0.2850
 9592TIP3    H152971   1.779   3.489   2.453  1.6403  0.6222  1.8466
 9592TIP3    H252972   1.777   3.365   2.541  0.0272 -0.9244 -0.2757
 9593TIP3   OH252973   0.800   3.137   0.919  0.3468 -0.2021  0.3562
 9593TIP3    H152974   0.810   3.044   0.940 -2.1213 -0.9039 -1.2241
 9593TIP3    H252975   0.708   3.156   0.936  0.5777  1.7469 -0.2644
 9594TIP3   OH252976   5.917   2.014   0.518 -0.2264 -0.5039  0.2208
 9594TIP3    H152977   5.836   2.062   0.502 -0.9367 -2.0314 -0.9477
 9594TIP3    H252978   5.896   1.957   0.592  0.4441  0.5205  1.2388
 9595TIP3   OH252979   4.817   4.686   0.778 -0.6309 -0.0389  0.2337
 9595TIP3    H152980   4.766   4.681   0.860  0.4662 -0.1679  0.9260
 9595TIP3    H252981   4.908   4.691   0.807 -0.1824 -0.7178 -1.0065
 9596TIP3   OH252982   0.562   5.819   1.362  0.1898 -0.5440  0.0987
 9596TIP3    H152983   0.564   5.780   1.274  0.5621  0.1893 -0.2213
 9596TIP3    H252984   0.621   5.893   1.357 -0.0948 -0.2556  0.8647
 9597TIP3   OH252985   6.206   5.715   0.975  0.0559  0.3822  0.0194
 9597TIP3    H152986   6.280   5.764   1.012  0.2248  1.1039 -1.2075
 9597TIP3    H252987   6.135   5.778   0.971 -1.0896 -0.6307  2.3585
 9598TIP3   OH252988   6.594   1.976   0.848 -0.3026 -0.3622 -0.0740
 9598TIP3    H152989   6.529   2.040   0.817 -0.7296 -1.2496 -1.0380
 9598TIP3    H252990   6.542   1.901   0.877  0.2334 -0.5297  0.4699
 9599TIP3   OH252991   4.587   6.633   1.643  0.6981  0.2135 -0.9135
 9599TIP3    H152992   4.513   6.681   1.607 -0.3654 -0.2399  0.5988
 9599TIP3    H252993   4.648   6.700   1.672 -1.1441  0.7828  1.9710
 9600TIP3   OH252994   1.693   5.263   1.175 -0.0162  0.2406 -0.0056
 9600TIP3    H152995   1.686   5.340   1.119  0.0009  1.2263  1.2881
 9600TIP3    H252996   1.607   5.255   1.217  1.0787  2.0952  2.9572
 9601TIP3   OH252997   3.814   7.172   1.582 -0.2266 -0.3583 -0.4830
 9601TIP3    H152998   3.788   7.087   1.617  0.6092 -1.0955 -1.5923
 9601TIP3    H252999   3.771   7.235   1.639 -0.5419 -1.5159  0.6054
 9602TIP3   OH253000   4.987   1.473   1.527  0.0281 -0.6834 -0.0286
 9602TIP3    H153001   4.909   1.520   1.557 -0.1593 -0.1365 -1.3003
 9602TIP3    H253002   5.060   1.517   1.570 -0.1962  0.3691 -0.6929
 9603TIP3   OH253003   0.042   5.530   2.506 -0.3508  0.1132 -0.9246
 9603TIP3    H153004   0.011   5.567   2.422  2.1882 -1.5581 -2.7461
 9603TIP3    H253005   0.119   5.582   2.527 -0.0368 -0.5320 -0.4710
 9604TIP3   OH253006   3.616   0.514   0.903 -0.3737 -0.1319 -0.1482
 9604TIP3    H153007   3.666   0.466   0.970 -0.0005  0.5946  0.1021
 9604TIP3    H253008   3.525   0.503   0.930 -0.4168 -1.7596 -0.7977
 9605TIP3   OH253009   3.180   4.965   1.994 -0.1903  0.3944 -0.3734
 9605TIP3    H153010   3.153   4.882   2.033 -0.9884  0.1800 -1.3426
 9605TIP3    H253011   3.275   4.959   1.988 -0.2369 -0.4468 -0.4002
 9606TIP3   OH253012   1.188   6.251   2.594 -0.2943 -0.0135  0.5768
 9606TIP3    H153013   1.229   6.292   2.670  1.1443 -0.1514 -0.0912
 9606TIP3    H253014   1.109   6.303   2.578 -0.3864  0.2808  1.8832
 9607TIP3   OH253015   5.881   4.483   1.883  0.1696 -0.2447  0.2757
 9607TIP3    H153016   5.825   4.559   1.900  1.2559  0.6297  0.0471
 9607TIP3    H253017   5.910   4.455   1.970  0.3708  0.0732  0.3116
 9608TIP3   OH253018   5.614   3.462   1.264 -0.4596  0.0886  0.3718
 9608TIP3    H153019   5.535   3.473   1.213 -0.5514  0.2270  0.5420
 9608TIP3    H253020   5.617   3.368   1.284 -0.4569  0.0457  0.1701
 9609TIP3   OH253021   4.428   7.009   2.445  0.1172  0.1371  0.3070
 9609TIP3    H153022   4.444   6.993   2.538 -1.4120  0.5144  0.6618
 9609TIP3    H253023   4.489   6.950   2.400  0.9947  0.0689  1.5328
 9610TIP3   OH253024   1.010   6.485   2.559  0.3882 -0.6383 -0.0828
 9610TIP3    H153025   0.983   6.506   2.470  0.5898  1.1020  0.2275
 9610TIP3    H253026   1.009   6.569   2.605  0.9999 -1.3814  1.3650
 9611TIP3   OH253027   2.187   4.626   0.433  0.1368 -0.2798  0.1119
 9611TIP3    H153028   2.184   4.720   0.418 -2.9602 -0.4131 -0.8060
 9611TIP3    H253029   2.142   4.614   0.517 -0.5789 -0.9933 -0.3578
 9612TIP3   OH253030   3.735   4.748   1.042 -0.5508  0.7414 -0.3153
 9612TIP3    H153031   3.663   4.686   1.046 -0.7187  0.9825  0.7559
 9612TIP3    H253032   3.754   4.758   0.949 -0.7377 -0.6612 -0.5211
 9613TIP3   OH253033   1.804   2.534   1.599 -0.2284  0.2557  0.3232
 9613TIP3    H153034   1.768   2.622   1.609  0.6376  0.8341 -1.3285
 9613TIP3    H253035   1.802   2.497   1.687 -0.1675  2.0951  1.1376
 9614TIP3   OH253036   5.054   2.971   1.269 -0.2324 -0.1322 -0.0635
 9614TIP3    H153037   5.006   3.050   1.246 -0.1096 -0.3700 -1.1776
 9614TIP3    H253038   5.133   2.975   1.215  0.5320 -0.2498  1.0025
 9615TIP3   OH253039   0.085   5.650   1.511 -0.1852  0.3286 -0.1762
 9615TIP3    H153040   0.063   5.647   1.418  0.1497 -1.1032 -0.2291
 9615TIP3    H253041   0.180   5.640   1.514 -0.3356 -1.1783  0.3622
 9616TIP3   OH253042   4.132   4.920   2.285  0.1921 -0.1569  0.2725
 9616TIP3    H153043   4.082   4.966   2.352  1.6017 -0.2685  1.4576
 9616TIP3    H253044   4.212   4.893   2.330  0.4944 -1.6004 -1.0547
 9617TIP3   OH253045   3.046   3.273   0.684 -0.0004  0.1200 -0.4533
 9617TIP3    H153046   3.081   3.339   0.744  0.5454  0.3286 -0.9971
 9617TIP3    H253047   2.953   3.267   0.707 -0.1312  1.3102 -0.6184
 9618TIP3   OH253048   3.833   3.003   1.503  0.5217  0.0882  0.4628
 9618TIP3    H153049   3.876   2.935   1.451 -1.1236 -1.2742  0.8198
 9618TIP3    H253050   3.763   2.958   1.549 -0.5092  1.9983  0.8721
 9619TIP3   OH253051   4.186   3.679   1.418  0.2470  0.1898 -0.2103
 9619TIP3    H153052   4.103   3.660   1.374 -0.6243  1.3056  0.8908
 9619TIP3    H253053   4.163   3.685   1.511  1.7546 -0.5089  0.2459
 9620TIP3   OH253054   6.167   7.327   1.653  0.5889  0.2781 -0.2096
 9620TIP3    H153055   6.096   7.282   1.607  0.2056 -1.4227  1.8833
 9620TIP3    H253056   6.190   7.268   1.725  4.9633  0.1336 -1.4121
 9621TIP3   OH253057   2.120   5.956   2.670  0.0118  0.1185  0.2773
 9621TIP3    H153058   2.123   6.009   2.750  0.2661  1.5456 -0.6334
 9621TIP3    H253059   2.028   5.955   2.645  0.1617  1.2894 -0.4085
 9622TIP3   OH253060   5.982   2.489   1.085 -0.4601  0.4214 -0.1196
 9622TIP3    H153061   6.056   2.434   1.060 -0.7316 -0.6482  1.3004
 9622TIP3    H253062   5.908   2.455   1.035 -0.3730  0.2827 -0.1532
 9623TIP3   OH253063   5.160   5.919   0.729  0.0354 -0.1804 -0.0326
 9623TIP3    H153064   5.092   5.963   0.780  0.4107  0.5974 -0.1921
 9623TIP3    H253065   5.241   5.966   0.751  0.2362  0.0296 -1.1868
 9624TIP3   OH253066   6.710   4.847   0.753 -0.2397  0.2259 -0.3242
 9624TIP3    H153067   6.646   4.918   0.764 -0.3155  0.0084  0.7543
 9624TIP3    H253068   6.724   4.813   0.841  2.0302  0.8347 -0.3717
 9625TIP3   OH253069   1.822   1.074   2.177 -0.1829 -0.3219  0.1134
 9625TIP3    H153070   1.851   0.985   2.158  3.7212  0.5059  1.2548
 9625TIP3    H253071   1.739   1.083   2.131 -0.1808 -4.1435 -0.9585
 9626TIP3   OH253072   1.727   4.248   2.478  0.4888 -0.1396  0.1623
 9626TIP3    H153073   1.771   4.259   2.394  0.5547  1.1016  0.3422
 9626TIP3    H253074   1.701   4.336   2.504 -1.3044 -0.7237  0.5084
 9627TIP3   OH253075   0.988   7.181   2.359  0.2096 -0.3017  0.4034
 9627TIP3    H153076   1.035   7.265   2.359  3.6578 -1.9778  2.6093
 9627TIP3    H253077   0.957   7.171   2.269  1.1694  2.5567 -0.3704
 9628TIP3   OH253078   3.217   1.121   2.673  0.4407 -0.4046 -0.9320
 9628TIP3    H153079   3.154   1.052   2.653  2.2552 -2.2762 -0.5608
 9628TIP3    H253080   3.269   1.130   2.593 -1.0845  2.1314 -1.7349
 9629TIP3   OH253081   5.381   0.402   1.762  0.1494 -0.1281  0.3097
 9629TIP3    H153082   5.310   0.405   1.697 -0.7161  0.6599  1.2666
 9629TIP3    H253083   5.436   0.478   1.741  0.1345 -0.1433  0.2121
 9630TIP3   OH253084   1.034   0.298   2.983 -0.2411 -0.2762 -0.3293
 9630TIP3    H153085   1.054   0.238   3.055  1.0990 -1.5061 -1.6545
 9630TIP3    H253086   0.939   0.310   2.988 -0.3044 -1.0783  1.0422
 9631TIP3   OH253087   6.382   0.762   1.673 -0.6781  0.0562 -0.1404
 9631TIP3    H153088   6.453   0.703   1.647 -0.1237  0.2638  0.8527
 9631TIP3    H253089   6.427   0.835   1.716 -1.5017  0.1908  0.4946
 9632TIP3   OH253090   5.270   6.954   2.076  0.2947 -0.3533  0.6942
 9632TIP3    H153091   5.324   6.875   2.072  0.2443 -0.3432 -0.7836
 9632TIP3    H253092   5.318   7.018   2.023 -0.7307 -0.0765  0.0891
 9633TIP3   OH253093   2.230   3.509   0.932  0.5313  0.2148 -0.1333
 9633TIP3    H153094   2.264   3.486   0.846  0.0986  0.2871 -0.3263
 9633TIP3    H253095   2.135   3.516   0.920  0.4775  0.3375  0.3213
 9634TIP3   OH253096   4.286   4.172   1.770 -0.1866  0.1163 -0.1972
 9634TIP3    H153097   4.281   4.106   1.701  0.6178  1.9934 -2.1696
 9634TIP3    H253098   4.357   4.142   1.827  0.0921 -0.7635 -0.9846
 9635TIP3   OH253099   2.173   2.547   2.686  0.2538 -0.0108  0.0403
 9635TIP3    H153100   2.189   2.639   2.668 -0.4051  0.6764  2.5769
 9635TIP3    H253101   2.091   2.527   2.640  0.9691  0.3295 -1.4205
 9636TIP3   OH253102   5.532   1.480   0.635 -0.2103  0.3136  1.2008
 9636TIP3    H153103   5.600   1.415   0.618  0.2947  1.2840 -0.7791
 9636TIP3    H253104   5.457   1.451   0.583 -0.7271  0.1623  2.0233
 9637TIP3   OH253105   2.255   0.609   3.168  0.0523  0.2004 -0.7799
 9637TIP3    H153106   2.343   0.641   3.185 -0.6636  1.8391  0.0621
 9637TIP3    H253107   2.250   0.525   3.213  0.3696  1.3249  1.4636
 9638TIP3   OH253108   3.768   2.183   0.977  0.0767  0.5692  0.7846
 9638TIP3    H153109   3.832   2.254   0.971 -1.7120  2.1465 -1.5552
 9638TIP3    H253110   3.685   2.227   0.994 -1.3434 -0.6742 -2.1629
 9639TIP3   OH253111   1.544   2.954   3.375  0.0084 -0.4270  0.1660
 9639TIP3    H153112   1.516   2.975   3.286 -0.4273 -0.9440  0.1795
 9639TIP3    H253113   1.467   2.917   3.417  0.6924 -1.8701  0.2123
 9640TIP3   OH253114   1.709   0.765   1.579  0.5748  0.4525 -0.5762
 9640TIP3    H153115   1.678   0.697   1.519  1.5117  1.0477 -1.7821
 9640TIP3    H253116   1.722   0.842   1.524  3.7150  0.3708 -0.1481
 9641TIP3   OH253117   6.315   7.279   0.949  0.3902 -0.1653 -0.6139
 9641TIP3    H153118   6.290   7.189   0.969 -3.8115  0.3249 -2.5371
 9641TIP3    H253119   6.233   7.328   0.953  2.2729  3.3408 -1.0189
 9642TIP3   OH253120   4.307   5.928   2.080  0.5137 -0.3461 -0.0589
 9642TIP3    H153121   4.389   5.970   2.107  0.1526 -0.6269  1.5381
 9642TIP3    H253122   4.296   5.955   1.988  2.4452 -0.4008 -0.3448
 9643TIP3   OH253123   4.022   6.717   0.615 -0.0009  0.2934  0.1532
 9643TIP3    H153124   3.998   6.801   0.577  1.1669  0.0821 -1.1424
 9643TIP3    H253125   4.043   6.737   0.706 -0.8151  1.1963  0.1595
 9644TIP3   OH253126   1.607   4.560   2.260 -0.2166 -0.4813  0.3912
 9644TIP3    H153127   1.596   4.613   2.181  0.5229  0.0143  0.6109
 9644TIP3    H253128   1.564   4.477   2.239  0.3340 -0.5131 -0.6908
 9645TIP3   OH253129   0.002   0.459   0.656 -0.1827  0.1043  0.5796
 9645TIP3    H153130  -0.032   0.370   0.665 -0.0069 -0.1960 -1.3883
 9645TIP3    H253131  -0.074   0.515   0.670 -0.9202 -0.4692 -0.9032
 9646TIP3   OH253132   6.799   0.774   2.516  0.3322 -0.7409  0.3531
 9646TIP3    H153133   6.860   0.846   2.498 -1.1023  0.3575 -0.4238
 9646TIP3    H253134   6.824   0.741   2.602  1.7756 -0.0951  0.2033
 9647TIP3   OH253135   6.066   0.044   1.721 -0.0861 -0.0195 -0.0500
 9647TIP3    H153136   6.076   0.108   1.651 -1.0077  0.0757 -0.1023
 9647TIP3    H253137   6.144  -0.011   1.714  0.6151  0.9597 -0.1313
 9648TIP3   OH253138   3.550   3.804   2.425  0.2993  0.7224  0.0310
 9648TIP3    H153139   3.518   3.833   2.339 -1.0359  1.9590  0.9080
 9648TIP3    H253140   3.505   3.721   2.441  0.1649  0.7452 -0.2261
 9649TIP3   OH253141   5.733   7.131   1.547  0.0970 -0.7114  0.1240
 9649TIP3    H153142   5.692   7.159   1.629 -0.1948 -0.2483 -0.1721
 9649TIP3    H253143   5.683   7.177   1.479  0.1024 -1.3730 -0.3335
 9650TIP3   OH253144   0.459   1.575   1.411 -0.1175 -0.1037  0.1218
 9650TIP3    H153145   0.490   1.628   1.337 -0.1753 -0.1994  0.0298
 9650TIP3    H253146   0.511   1.606   1.485  1.6116 -1.6023 -0.3990
 9651TIP3   OH253147   3.626   0.539   1.592 -0.1984 -0.2272 -0.1801
 9651TIP3    H153148   3.720   0.554   1.579  0.3092 -0.6643  2.3684
 9651TIP3    H253149   3.600   0.486   1.518  1.4760  0.2578 -1.1785
 9652TIP3   OH253150   1.245   5.002   0.616  0.2966  0.4412 -0.1878
 9652TIP3    H153151   1.166   5.048   0.647  0.6389  1.2957 -0.5632
 9652TIP3    H253152   1.214   4.914   0.593 -0.6042  0.8506 -0.5818
 9653TIP3   OH253153   2.855   0.428   0.597 -1.1111 -0.3275  0.8564
 9653TIP3    H153154   2.831   0.364   0.530  0.3476 -0.0938  0.0674
 9653TIP3    H253155   2.784   0.424   0.661 -1.3746 -2.2496  0.4848
 9654TIP3   OH253156   5.165   0.393   1.572  0.2956 -0.0849  0.2555
 9654TIP3    H153157   5.149   0.340   1.494  0.7729 -0.7915  0.6184
 9654TIP3    H253158   5.164   0.483   1.541 -0.1544 -0.3270 -0.4481
 9655TIP3   OH253159   4.728   2.140   2.765 -0.0863  0.8331  0.0199
 9655TIP3    H153160   4.749   2.231   2.744  1.0193  0.9606  1.4596
 9655TIP3    H253161   4.723   2.139   2.861  1.4610 -0.9024  0.1378
 9656TIP3   OH253162   0.889   7.348   3.069 -0.2515  0.8198  0.1045
 9656TIP3    H153163   0.913   7.291   3.142 -0.5533 -0.9413 -1.1127
 9656TIP3    H253164   0.805   7.386   3.096 -0.9393 -0.7103  0.2185
 9657TIP3   OH253165   0.530   5.494   2.247  0.1046 -0.1148  0.1609
 9657TIP3    H153166   0.571   5.532   2.169 -0.0248 -0.1848  0.0596
 9657TIP3    H253167   0.452   5.449   2.214 -1.7911  2.5409  0.6525
 9658TIP3   OH253168   4.168   4.949   0.958 -0.6751  0.0210  0.3954
 9658TIP3    H153169   4.228   5.004   0.908  0.7570 -2.0522 -0.2904
 9658TIP3    H253170   4.104   5.011   0.994  0.5668  2.0574 -0.6723
 9659TIP3   OH253171   0.092   6.231   0.985 -0.4032  0.2123  0.0333
 9659TIP3    H153172   0.045   6.149   1.002 -0.1725  0.4265  1.9818
 9659TIP3    H253173   0.060   6.260   0.900 -1.8706 -0.9524  0.1409
 9660TIP3   OH253174   5.266   3.043   1.107 -0.3413 -0.0678  0.4800
 9660TIP3    H153175   5.345   3.095   1.099 -0.8395  0.6676  0.2149
 9660TIP3    H253176   5.284   2.963   1.057  0.0619  0.3079  0.0183
 9661TIP3   OH253177   6.825   3.560   1.673  0.4425  0.2628  0.2481
 9661TIP3    H153178   6.742   3.563   1.721  0.2581 -1.1155  0.0436
 9661TIP3    H253179   6.824   3.476   1.629  1.4687  0.7009 -0.6546
 9662TIP3   OH253180   3.699   1.161   1.416 -0.5368 -0.0225 -0.2175
 9662TIP3    H153181   3.700   1.250   1.451 -0.2261 -0.8560  2.0905
 9662TIP3    H253182   3.774   1.156   1.358 -1.5131  1.6632 -1.7260
 9663TIP3   OH253183   2.143   6.057   2.938 -0.1397  0.2595  0.1328
 9663TIP3    H153184   2.165   6.007   3.017  0.8456 -0.5654 -0.6371
 9663TIP3    H253185   2.085   6.126   2.969 -0.4344 -0.5420  1.4476
 9664TIP3   OH253186   0.381   4.397   2.424  0.6384  0.0567 -0.5747
 9664TIP3    H153187   0.337   4.352   2.497  1.9638 -1.5600 -0.7110
 9664TIP3    H253188   0.318   4.463   2.396 -0.5751 -0.3604  0.9814
 9665TIP3   OH253189   3.409   0.893   1.278 -0.4197 -1.0665  0.3435
 9665TIP3    H153190   3.342   0.829   1.301 -0.8960 -0.4713  0.6732
 9665TIP3    H253191   3.474   0.844   1.228 -1.4933 -1.4931 -0.6642
 9666TIP3   OH253192   6.925   1.936   1.193 -0.1519 -0.6927  0.4921
 9666TIP3    H153193   6.985   1.887   1.249  1.3780 -0.1113 -0.5812
 9666TIP3    H253194   6.970   2.018   1.174 -1.1286 -0.3792 -0.6286
 9667TIP3   OH253195   2.050   6.087   3.271 -0.1531  0.2232  0.2317
 9667TIP3    H153196   2.038   6.014   3.210  0.9623  1.9222 -2.1825
 9667TIP3    H253197   1.965   6.130   3.274 -0.5167 -0.4935  0.8305
 9668TIP3   OH253198   7.419   2.736   2.289  0.1771  0.3754  0.5272
 9668TIP3    H153199   7.403   2.656   2.340  1.2402  0.3658  0.8748
 9668TIP3    H253200   7.502   2.770   2.324  0.5459  0.7747 -0.7054
 9669TIP3   OH253201   7.011   4.142   1.430 -0.1402  0.1178 -0.4012
 9669TIP3    H153202   7.007   4.187   1.514  1.6439  0.2145 -0.3373
 9669TIP3    H253203   6.935   4.084   1.430  0.4699 -0.7507  1.7988
 9670TIP3   OH253204   2.051   5.489   2.681  0.0382  0.2693 -0.3294
 9670TIP3    H153205   2.051   5.550   2.754  0.4333  0.2945 -0.3475
 9670TIP3    H253206   1.967   5.504   2.637 -0.3045  0.0888  0.2495
 9671TIP3   OH253207   1.773   1.406   2.591  0.0826 -0.0744 -0.4122
 9671TIP3    H153208   1.840   1.472   2.611  0.5490 -0.7567  0.3515
 9671TIP3    H253209   1.822   1.324   2.584 -0.8376 -0.9578  2.1939
 9672TIP3   OH253210   3.282   5.435   2.866 -0.1115  0.0462  0.5632
 9672TIP3    H153211   3.287   5.460   2.958 -1.1138 -1.6526  1.1222
 9672TIP3    H253212   3.307   5.514   2.818  1.5596  0.6417  2.2953
 9673TIP3   OH253213   3.690   4.589   2.331  0.2256 -0.0821  0.0339
 9673TIP3    H153214   3.769   4.635   2.361 -0.7193  1.7160 -0.0714
 9673TIP3    H253215   3.678   4.620   2.241  0.5372 -1.9776 -0.7172
 9674TIP3   OH253216   6.674   5.392   2.582  0.0494 -0.3614 -0.0084
 9674TIP3    H153217   6.607   5.337   2.541 -0.0876 -0.2002 -0.0046
 9674TIP3    H253218   6.680   5.468   2.524 -0.3947  0.0329  0.4557
 9675TIP3   OH253219   3.071   6.326   1.669 -0.2562  0.1716 -0.6243
 9675TIP3    H153220   3.134   6.259   1.697 -0.2866  0.9081  1.3629
 9675TIP3    H253221   3.099   6.350   1.581  1.4033 -0.5129 -0.3185
 9676TIP3   OH253222   5.836   2.763   2.601 -0.2379 -0.0384  0.7523
 9676TIP3    H153223   5.835   2.761   2.506 -0.9332 -1.6200  0.7813
 9676TIP3    H253224   5.750   2.797   2.626  0.3925  1.6021  0.8294
 9677TIP3   OH253225   1.179   7.281   2.056 -0.6983 -0.5981 -0.4604
 9677TIP3    H153226   1.245   7.294   1.988 -0.4640 -1.5945 -0.4439
 9677TIP3    H253227   1.170   7.366   2.099  0.1620 -0.3144 -0.8391
 9678TIP3   OH253228   2.002   6.953   2.714 -0.3950  0.3774 -0.1924
 9678TIP3    H153229   2.020   6.907   2.797  1.0521  2.9413  1.0335
 9678TIP3    H253230   1.907   6.948   2.704 -0.5368 -0.5694  1.2493
 9679TIP3   OH253231   5.689   3.990   2.404  0.1241 -0.3948 -0.0128
 9679TIP3    H153232   5.678   3.927   2.333  2.8337 -1.9464  0.8032
 9679TIP3    H253233   5.680   4.075   2.362 -1.0340 -1.2677 -1.6609
 9680TIP3   OH253234   2.317   3.527   2.163 -0.5257  0.1932 -0.3738
 9680TIP3    H153235   2.253   3.598   2.154 -0.1933  0.6506  0.6869
 9680TIP3    H253236   2.397   3.570   2.193 -0.2686 -0.6157  0.1393
 9681TIP3   OH253237   5.171   2.769   1.389 -0.4795 -0.2816 -0.1306
 9681TIP3    H153238   5.105   2.720   1.437 -1.0920  1.8508  1.3426
 9681TIP3    H253239   5.124   2.843   1.351  0.5918 -0.1935 -1.3560
 9682TIP3   OH253240   3.869   3.941   2.131  0.3058  0.8141  0.2082
 9682TIP3    H153241   3.949   3.986   2.157  1.9160 -1.5548 -0.3025
 9682TIP3    H253242   3.858   3.872   2.197 -0.8207  0.5260 -0.2544
 9683TIP3   OH253243   6.661   3.394   1.296 -0.0786 -0.5242  0.2055
 9683TIP3    H153244   6.665   3.483   1.260 -0.9823 -0.9384 -0.9646
 9683TIP3    H253245   6.599   3.401   1.369  0.3965 -0.0501  0.5694
 9684TIP3   OH253246   3.189   4.776   0.642  0.1722  0.3161 -0.2515
 9684TIP3    H153247   3.151   4.759   0.728  0.6329  0.2246 -0.0608
 9684TIP3    H253248   3.184   4.692   0.596  1.5907 -0.1214  0.3521
 9685TIP3   OH253249   1.712   1.544   0.974  0.5778 -0.3487 -0.0066
 9685TIP3    H153250   1.738   1.455   0.953  1.2068  0.0305 -0.8746
 9685TIP3    H253251   1.716   1.548   1.070 -0.1682 -1.4517  0.0956
 9686TIP3   OH253252   3.667   5.881   2.640  0.1463 -0.0371  0.0184
 9686TIP3    H153253   3.588   5.926   2.671 -0.1484 -1.1367  0.9125
 9686TIP3    H253254   3.738   5.943   2.658 -0.5768  1.4150 -1.7342
 9687TIP3   OH253255   1.388   4.310   0.692 -0.1922  0.2383 -0.0975
 9687TIP3    H153256   1.325   4.368   0.649 -0.5105 -0.0773 -0.0602
 9687TIP3    H253257   1.455   4.369   0.727 -0.6156  0.5995  0.1116
 9688TIP3   OH253258   4.208   4.400   0.818  0.2451 -0.0091 -0.2497
 9688TIP3    H153259   4.132   4.446   0.853 -0.0968  1.0047 -2.1973
 9688TIP3    H253260   4.199   4.311   0.851  0.5240  1.0452  3.0150
 9689TIP3   OH253261   0.291   6.693   0.415 -0.0506 -0.2543 -0.4241
 9689TIP3    H153262   0.364   6.665   0.359 -0.1014  1.5633 -1.4973
 9689TIP3    H253263   0.242   6.613   0.433  1.5656 -1.3324 -0.6330
 9690TIP3   OH253264   7.438   0.845   0.504  0.0687  0.1535 -0.2120
 9690TIP3    H153265   7.369   0.882   0.560  0.1034  0.4817 -0.3841
 9690TIP3    H253266   7.418   0.752   0.501 -1.4946  0.4791 -1.7784
 9691TIP3   OH253267   3.516   6.763   2.428  0.3182 -0.3131  0.4631
 9691TIP3    H153268   3.585   6.735   2.368  1.0182 -1.4274  1.7362
 9691TIP3    H253269   3.437   6.722   2.393  0.1373  1.4125 -1.3116
 9692TIP3   OH253270   0.136   7.208   0.720 -0.2518 -0.1210  0.2970
 9692TIP3    H153271   0.144   7.302   0.737 -2.4076  0.5927 -2.0526
 9692TIP3    H253272   0.153   7.167   0.804 -1.0019  2.4823  1.8284
 9693TIP3   OH253273   1.362   2.314   1.804 -0.7816  0.0215  0.7095
 9693TIP3    H153274   1.285   2.370   1.792 -1.9155 -1.6973 -0.4386
 9693TIP3    H253275   1.332   2.227   1.779  1.7891 -0.5647 -0.6758
 9694TIP3   OH253276   2.377   6.004   3.229 -0.0427 -0.9710 -0.1307
 9694TIP3    H153277   2.361   6.097   3.215  0.9445 -0.6427  0.8757
 9694TIP3    H253278   2.335   5.985   3.313  1.5969 -0.9253  0.7305
 9695TIP3   OH253279   3.887   4.882   2.122  0.2875  0.1374 -0.0652
 9695TIP3    H153280   3.897   4.938   2.045  1.0042  0.1346  0.0231
 9695TIP3    H253281   3.958   4.909   2.181  1.0016 -1.2508 -0.2585
 9696TIP3   OH253282   7.266   4.156   2.142 -0.3833  0.3849 -0.3561
 9696TIP3    H153283   7.242   4.118   2.057 -0.5988  0.2310 -0.2266
 9696TIP3    H253284   7.281   4.080   2.198  0.3070  0.4816 -0.4060
 9697TIP3   OH253285   4.624   2.750   0.608  0.3659 -0.0796  0.8884
 9697TIP3    H153286   4.704   2.744   0.556  0.1903  1.7525  0.3175
 9697TIP3    H253287   4.597   2.659   0.622  0.1487 -0.7062 -2.6667
 9698TIP3   OH253288   1.514   6.481   3.050 -0.7159 -0.6676  0.5620
 9698TIP3    H153289   1.546   6.415   3.112  0.0635  0.5829  1.5449
 9698TIP3    H253290   1.439   6.521   3.094  0.5676  1.0590  1.3055
 9699TIP3   OH253291   5.353   0.753   0.847 -0.5136 -0.3686  0.0796
 9699TIP3    H153292   5.267   0.793   0.857 -0.6907 -0.5730 -0.6095
 9699TIP3    H253293   5.360   0.731   0.754  0.6154  0.4055 -0.0408
 9700TIP3   OH253294   2.591   4.025   1.360 -0.2574  0.5620 -0.0305
 9700TIP3    H153295   2.557   4.063   1.280  1.1967  0.8747 -0.5311
 9700TIP3    H253296   2.587   3.930   1.345 -1.5555  0.5673  0.2187
 9701TIP3   OH253297   6.823   6.718   2.627  0.0918 -0.0500 -0.3017
 9701TIP3    H153298   6.772   6.665   2.689 -0.1601 -0.4963 -0.8813
 9701TIP3    H253299   6.758   6.749   2.564  0.7898 -2.3969 -2.3156
 9702TIP3   OH253300   7.096   0.765   1.087 -0.0403  0.6139 -0.4593
 9702TIP3    H153301   7.078   0.859   1.096 -0.1468  0.5457  0.0724
 9702TIP3    H253302   7.073   0.745   0.996 -0.9737  0.8990 -0.2998
 9703TIP3   OH253303   3.732   5.543   0.584 -0.4775 -0.3482 -0.2907
 9703TIP3    H153304   3.682   5.557   0.503 -1.0303 -1.0837 -0.0911
 9703TIP3    H253305   3.776   5.459   0.570 -1.7555 -1.2237  0.7386
 9704TIP3   OH253306   7.029   5.092   1.142  0.5442 -0.0200 -0.0364
 9704TIP3    H153307   7.123   5.101   1.125  0.8951 -1.1022  1.1735
 9704TIP3    H253308   7.013   4.998   1.136 -0.2949  0.0710  0.6316
 9705TIP3   OH253309   6.886   6.465   2.202  0.1886 -0.3837 -0.1430
 9705TIP3    H153310   6.971   6.454   2.244 -0.2586 -1.5831  0.4895
 9705TIP3    H253311   6.824   6.426   2.264 -0.6844 -0.5896 -1.1275
 9706TIP3   OH253312   6.865   0.482   2.866  0.5396 -0.1582  0.4040
 9706TIP3    H153313   6.885   0.400   2.910  0.0862 -0.5876 -0.1741
 9706TIP3    H253314   6.794   0.520   2.917 -2.8154 -2.5359 -2.0010
 9707TIP3   OH253315   6.146   1.490   0.743 -0.3217  0.2773 -0.3209
 9707TIP3    H153316   6.210   1.468   0.675  0.6826  2.4509 -0.1352
 9707TIP3    H253317   6.063   1.496   0.696 -0.3163 -1.8240 -0.6935
 9708TIP3   OH253318   0.217   2.069   2.316 -0.1305  0.0130  0.2797
 9708TIP3    H153319   0.267   2.023   2.248 -2.2148 -1.7891 -0.1325
 9708TIP3    H253320   0.248   2.160   2.311  0.4999 -0.2674 -2.3770
 9709TIP3   OH253321   3.877   6.542   1.050  0.5050  0.1255 -0.0441
 9709TIP3    H153322   3.937   6.614   1.029  2.4100 -0.8185  1.7905
 9709TIP3    H253323   3.885   6.482   0.977  0.3487  0.8922 -0.7005
 9710TIP3   OH253324   0.667   4.277   1.666  0.3013  0.1559 -0.1227
 9710TIP3    H153325   0.624   4.343   1.612 -0.9222 -1.8679 -1.7748
 9710TIP3    H253326   0.635   4.193   1.632 -0.6936 -1.3193  3.8249
 9711TIP3   OH253327   3.922   2.867   1.262  0.2868 -0.3951 -0.2243
 9711TIP3    H153328   3.913   2.955   1.226 -1.1684 -0.3161  0.2559
 9711TIP3    H253329   3.842   2.822   1.234 -0.3173 -0.7015  1.8082
 9712TIP3   OH253330   0.013   4.807   2.315 -0.1469  0.1638 -0.3100
 9712TIP3    H153331  -0.052   4.871   2.345  1.5389  1.1408  1.5652
 9712TIP3    H253332   0.045   4.843   2.232 -1.0490  0.3644 -0.5820
 9713TIP3   OH253333   5.515   1.376   0.990  0.1228 -0.0761  0.7038
 9713TIP3    H153334   5.440   1.337   0.945  2.0323 -0.8048 -2.1377
 9713TIP3    H253335   5.584   1.310   0.984  1.7524  1.5042  0.9805
 9714TIP3   OH253336   0.674   0.826   0.946 -0.4366 -0.3096  0.2189
 9714TIP3    H153337   0.689   0.877   0.867 -0.1567 -0.3986  0.2120
 9714TIP3    H253338   0.719   0.876   1.015  0.3930 -0.8669  0.1007
 9715TIP3   OH253339   5.819   7.119   1.036 -0.3356 -0.5751 -0.1300
 9715TIP3    H153340   5.727   7.094   1.045 -0.6770  1.2722  2.4063
 9715TIP3    H253341   5.858   7.096   1.120  0.8287  1.2598 -0.1292
 9716TIP3   OH253342   1.111   4.603   1.489  0.1359  0.0099  0.1739
 9716TIP3    H153343   1.187   4.609   1.432  1.4637  1.9244  1.9875
 9716TIP3    H253344   1.092   4.694   1.512 -1.1029 -0.6161  1.8048
 9717TIP3   OH253345   7.348   7.203   3.209 -0.1174  0.0007 -0.5448
 9717TIP3    H153346   7.340   7.269   3.141 -2.6865  1.7888  1.2995
 9717TIP3    H253347   7.370   7.252   3.288 -0.5062 -1.5452  0.5853
 9718TIP3   OH253348   2.339   2.650   2.877  0.7209  0.1294  0.3025
 9718TIP3    H153349   2.317   2.625   2.967  2.4189 -2.4810  0.1116
 9718TIP3    H253350   2.272   2.607   2.823  2.4123 -2.5127  0.1176
 9719TIP3   OH253351   2.133   5.995   2.194 -0.7092  0.1249 -0.2316
 9719TIP3    H153352   2.181   5.969   2.273 -1.0775  1.8887  0.6267
 9719TIP3    H253353   2.201   6.026   2.134 -0.6746  2.1355  0.7851
 9720TIP3   OH253354   5.091   0.477   0.487  0.1405 -0.5726 -0.8871
 9720TIP3    H153355   5.092   0.571   0.502 -1.4359 -0.6845  0.1984
 9720TIP3    H253356   5.053   0.441   0.567  0.9724 -2.1658 -1.1666
 9721TIP3   OH253357   2.832   1.020   2.041  0.1273 -0.2949 -0.0603
 9721TIP3    H153358   2.766   1.032   1.973  1.4148 -2.2549 -1.7812
 9721TIP3    H253359   2.868   0.933   2.024  0.7656 -0.7382  2.9689
 9722TIP3   OH253360   2.987   4.112   3.095 -0.3019  0.0781  0.6308
 9722TIP3    H153361   3.017   4.163   3.019 -0.6393  0.6702  0.8832
 9722TIP3    H253362   2.979   4.023   3.063 -0.9080  0.4059 -0.1707
 9723TIP3   OH253363   4.294   0.805   1.796 -0.0036  0.4768  0.2263
 9723TIP3    H153364   4.220   0.826   1.739 -2.1791 -1.3063  2.1720
 9723TIP3    H253365   4.310   0.885   1.846  0.9538  1.5851 -1.7706
 9724TIP3   OH253366   3.814   1.307   2.122 -0.1117 -0.2595  0.7004
 9724TIP3    H153367   3.721   1.330   2.128 -0.0160  0.5466 -0.5819
 9724TIP3    H253368   3.821   1.257   2.041  0.5046 -0.6708  1.0094
 9725TIP3   OH253369   2.802   4.615   1.208 -0.7688  0.1734 -0.0059
 9725TIP3    H153370   2.751   4.552   1.157 -1.0042 -0.5981  1.1322
 9725TIP3    H253371   2.883   4.568   1.230  0.0262  1.0502 -0.9752
 9726TIP3   OH253372   6.394   3.842   1.226 -0.4765  0.0544 -0.0608
 9726TIP3    H153373   6.350   3.860   1.309 -0.7174  2.4589 -0.6469
 9726TIP3    H253374   6.370   3.751   1.205 -0.5809 -0.5472  2.3500
 9727TIP3   OH253375   0.642   6.848   0.685  0.8235  0.1520 -0.3815
 9727TIP3    H153376   0.610   6.913   0.622  1.8630  0.4325 -0.6480
 9727TIP3    H253377   0.617   6.883   0.770  1.3622  0.9090 -0.5244
 9728TIP3   OH253378   5.055   1.369   0.564  0.3615  0.1989  0.2079
 9728TIP3    H153379   5.036   1.461   0.580 -0.5722 -0.0581  0.6095
 9728TIP3    H253380   5.079   1.365   0.472  1.4500  1.0020  0.4345
 9729TIP3   OH253381   1.434   3.085   0.940  0.5133  0.2498  0.3943
 9729TIP3    H153382   1.499   3.014   0.937  1.9383  1.4885  0.7388
 9729TIP3    H253383   1.438   3.118   1.029  2.7821  3.2606 -0.6340
 9730TIP3   OH253384   7.138   0.370   2.797 -0.5160 -0.3406 -0.2365
 9730TIP3    H153385   7.058   0.423   2.806 -0.7258 -0.7816  0.5506
 9730TIP3    H253386   7.110   0.293   2.748 -0.4618 -0.2749 -0.3731
 9731TIP3   OH253387   0.123   6.635   2.322  0.0860 -0.0585 -0.4568
 9731TIP3    H153388   0.214   6.619   2.296 -0.0750  0.7360 -1.5709
 9731TIP3    H253389   0.076   6.649   2.240 -1.5118 -2.5709 -0.0850
 9732TIP3   OH253390   3.276   2.334   2.655 -0.1626  0.1574 -0.4181
 9732TIP3    H153391   3.313   2.321   2.742  1.9546 -1.4579 -1.4388
 9732TIP3    H253392   3.186   2.302   2.662 -0.8391  2.2404  1.6727
 9733TIP3   OH253393   5.423   4.499   1.913  0.1978  0.2739  0.0098
 9733TIP3    H153394   5.360   4.456   1.971  1.5704  0.7366  1.9326
 9733TIP3    H253395   5.403   4.592   1.921 -1.0804  0.2576 -2.1341
 9734TIP3   OH253396   2.042   5.486   1.676  0.3917 -0.3510  0.0200
 9734TIP3    H153397   2.076   5.400   1.698 -0.3780 -1.0475 -1.4054
 9734TIP3    H253398   2.116   5.546   1.690  0.8716 -1.1867  1.2034
 9735TIP3   OH253399   7.253   1.832   1.119 -0.0124  0.9924  0.2432
 9735TIP3    H153400   7.329   1.781   1.149 -1.4760 -1.3337  0.2118
 9735TIP3    H253401   7.268   1.842   1.025  0.9483  1.8670  0.4632
 9736TIP3   OH253402   3.802   0.808   2.666 -0.2122  0.4051  0.0299
 9736TIP3    H153403   3.814   0.888   2.615  0.1621  0.5281  0.3044
 9736TIP3    H253404   3.858   0.744   2.622 -1.5606 -0.1008 -1.0208
 9737TIP3   OH253405   5.514   5.832   2.325  0.2197 -0.4856  0.3621
 9737TIP3    H153406   5.519   5.786   2.241 -4.0235 -2.1311  0.7453
 9737TIP3    H253407   5.534   5.765   2.391  0.5973  0.0060  0.7534
 9738TIP3   OH253408   4.531   0.505   0.992 -0.3592 -0.4813  0.2431
 9738TIP3    H153409   4.522   0.442   1.063 -1.6235 -0.2324  0.3150
 9738TIP3    H253410   4.540   0.590   1.036 -0.8900 -0.3567  0.1162
 9739TIP3   OH253411   1.631   6.812   0.515  0.6774  0.4192  0.1274
 9739TIP3    H153412   1.538   6.832   0.528  0.5897 -0.3779  0.8265
 9739TIP3    H253413   1.634   6.717   0.509  1.2735  0.5151 -1.4875
 9740TIP3   OH253414   2.017   2.592   3.561  0.4505  0.5855  0.3322
 9740TIP3    H153415   2.086   2.614   3.498 -0.2872  0.4188 -0.5404
 9740TIP3    H253416   1.940   2.640   3.532  0.0851  0.4688  1.0804
 9741TIP3   OH253417   5.592   6.984   2.036  0.0452 -0.5599 -0.0798
 9741TIP3    H153418   5.558   6.956   1.951 -1.1489  2.8434 -0.8914
 9741TIP3    H253419   5.652   7.056   2.015  0.4177 -0.2367  1.9236
 9742TIP3   OH253420   4.297   1.650   0.421 -0.2358 -0.8483 -0.1558
 9742TIP3    H153421   4.345   1.681   0.344 -0.2674  1.4106  0.6451
 9742TIP3    H253422   4.357   1.591   0.465  1.0654  0.3254 -0.2669
 9743TIP3   OH253423   2.533   5.019   1.263 -0.5448 -0.3111  0.2192
 9743TIP3    H153424   2.594   4.998   1.333  1.1591  2.2279 -0.3482
 9743TIP3    H253425   2.588   5.026   1.185 -1.3866  2.4110 -0.2494
 9744TIP3   OH253426   3.062   3.671   2.557 -0.3825 -0.0115 -0.1638
 9744TIP3    H153427   3.048   3.764   2.572 -1.3510  0.2728 -2.3576
 9744TIP3    H253428   3.040   3.629   2.640  0.4180  1.7118  0.9808
 9745TIP3   OH253429   7.057   5.393   1.547 -0.0439 -0.0486  0.5962
 9745TIP3    H153430   7.103   5.328   1.493  0.7514  0.0326  1.1557
 9745TIP3    H253431   7.088   5.377   1.636 -0.1857  0.8010  0.8112
 9746TIP3   OH253432   5.951   0.549   2.811 -0.7869  0.2652 -0.1706
 9746TIP3    H153433   5.979   0.457   2.817  1.1180  0.7835 -0.3241
 9746TIP3    H253434   5.884   0.558   2.878 -0.9265 -1.2124 -0.0699
 9747TIP3   OH253435   3.670   3.471   1.980  0.7950 -0.0806  0.2438
 9747TIP3    H153436   3.728   3.405   1.943  0.1090 -0.9933  0.7645
 9747TIP3    H253437   3.707   3.492   2.065  0.9213  0.0886  0.1480
 9748TIP3   OH253438   7.344   5.038   2.197  0.2929  0.3107 -0.9649
 9748TIP3    H153439   7.297   5.091   2.261  1.2221 -1.8125  1.6198
 9748TIP3    H253440   7.425   5.087   2.181  0.0443  0.8615 -0.5645
 9749TIP3   OH253441   6.020   2.206   2.420 -0.0264 -0.1143 -0.1937
 9749TIP3    H153442   6.038   2.136   2.357  0.5227  0.4882 -0.7284
 9749TIP3    H253443   6.092   2.200   2.483 -0.1725 -0.2592 -0.0429
 9750TIP3   OH253444   5.682   0.983   1.612  0.5544 -0.1132 -0.6058
 9750TIP3    H153445   5.772   0.961   1.587  1.0340  0.3333  0.6514
 9750TIP3    H253446   5.657   0.912   1.671  0.3129  0.1106 -0.4423
 9751TIP3   OH253447   2.192   2.225   1.654  0.0351  0.1541 -0.2089
 9751TIP3    H153448   2.117   2.242   1.597  0.4703 -0.3064 -0.9325
 9751TIP3    H253449   2.217   2.134   1.634 -0.0191 -0.1391  0.9678
 9752TIP3   OH253450   4.041   0.234   1.472  0.2623  0.3644 -0.6749
 9752TIP3    H153451   3.975   0.219   1.404 -0.8286  0.5342  0.3103
 9752TIP3    H253452   4.064   0.147   1.503 -1.2229  0.3699  0.5452
 9753TIP3   OH253453   1.057   0.438   1.264 -0.1414 -0.4880  0.0341
 9753TIP3    H153454   1.046   0.346   1.287  1.3000 -0.8364 -0.5456
 9753TIP3    H253455   1.122   0.471   1.326  0.8910 -0.4366 -1.0224
 9754TIP3   OH253456   7.286   0.240   2.245 -0.0020 -0.5630  0.3375
 9754TIP3    H153457   7.214   0.185   2.216  0.4387 -0.9288 -0.0703
 9754TIP3    H253458   7.308   0.206   2.332 -0.7561 -0.0167  0.7531
 9755TIP3   OH253459   0.071   5.078   1.553 -0.0610 -0.0530  0.0419
 9755TIP3    H153460  -0.022   5.069   1.572  0.0391 -2.7963 -0.3331
 9755TIP3    H253461   0.111   5.000   1.593  2.3453  1.8317  1.6061
 9756TIP3   OH253462   2.407   2.058   3.163  0.2789 -0.2658 -0.0418
 9756TIP3    H153463   2.313   2.040   3.154  0.0835  0.0636  1.1448
 9756TIP3    H253464   2.443   1.980   3.204  0.3871 -0.0793  0.2175
 9757TIP3   OH253465   4.140   4.415   1.776 -0.6462  0.3031  0.2661
 9757TIP3    H153466   4.063   4.358   1.780 -0.6970  0.3354 -0.2381
 9757TIP3    H253467   4.214   4.357   1.795 -0.8891  0.5304  2.1980
 9758TIP3   OH253468   1.685   7.470   2.614 -0.4674 -1.0423  0.0181
 9758TIP3    H153469   1.670   7.400   2.677  0.9501 -1.9728 -0.6108
 9758TIP3    H253470   1.649   7.436   2.532 -0.4018 -0.7451 -0.1334
 9759TIP3   OH253471   4.337   4.418   1.116 -0.1478  0.6538 -0.3925
 9759TIP3    H153472   4.432   4.405   1.118 -0.1886  0.3720  0.2765
 9759TIP3    H253473   4.305   4.357   1.050  0.1035  0.4505 -0.3287
 9760TIP3   OH253474   0.083   3.230   2.080  0.2308 -0.0556 -0.1505
 9760TIP3    H153475  -0.012   3.232   2.076  0.1747 -0.1744  0.7825
 9760TIP3    H253476   0.103   3.154   2.135  0.9106 -0.7089 -1.2743
 9761TIP3   OH253477   4.137   0.469   2.139 -0.0260 -0.6343 -0.2097
 9761TIP3    H153478   4.131   0.557   2.102 -0.7927 -0.2546  0.7580
 9761TIP3    H253479   4.097   0.412   2.073  2.6969 -0.6577 -1.9712
 9762TIP3   OH253480   3.648   3.436   1.576  0.2059  0.0943  0.1416
 9762TIP3    H153481   3.612   3.398   1.495  0.8410  0.8643 -0.5235
 9762TIP3    H253482   3.588   3.508   1.597 -1.8235 -2.0203  2.1926
 9763TIP3   OH253483   4.171   2.586   1.923  0.2862  0.1835  0.2413
 9763TIP3    H153484   4.224   2.589   1.843  2.4402 -0.2319  1.5682
 9763TIP3    H253485   4.180   2.496   1.954 -0.9081  0.2167  0.7253
 9764TIP3   OH253486   0.606   3.724   0.528  0.3737  0.3470 -0.3149
 9764TIP3    H153487   0.546   3.675   0.584 -0.1754  0.5710 -0.6936
 9764TIP3    H253488   0.691   3.682   0.539 -0.0677 -0.6216 -0.5529
 9765TIP3   OH253489   1.176   2.429   2.571 -0.1512  0.1434  0.4063
 9765TIP3    H153490   1.251   2.392   2.524 -0.2532  1.8612 -1.2183
 9765TIP3    H253491   1.199   2.522   2.583 -0.3000 -0.1072  3.4952
 9766TIP3   OH253492   1.228   5.901   2.173  0.5800 -0.1586  0.1550
 9766TIP3    H153493   1.199   5.903   2.264  1.7816  0.0749  0.5421
 9766TIP3    H253494   1.148   5.881   2.123 -0.1022 -0.2132  1.2409
 9767TIP3   OH253495   3.825   0.953   1.652  0.3159 -0.2050 -0.0127
 9767TIP3    H153496   3.740   0.957   1.609  0.1180  2.5750  0.4328
 9767TIP3    H253497   3.888   0.971   1.582  0.4026 -0.4617 -0.0027
 9768TIP3   OH253498   5.185   4.773   1.242 -0.4490 -0.6501 -0.0710
 9768TIP3    H153499   5.110   4.803   1.191 -0.1044  0.8677  0.2670
 9768TIP3    H253500   5.261   4.786   1.184 -0.4139 -2.1916 -0.4197
 9769TIP3   OH253501   0.523   4.357   1.897  0.7689 -0.4439  0.0709
 9769TIP3    H153502   0.559   4.329   1.813  1.4753  0.8834 -0.0958
 9769TIP3    H253503   0.568   4.439   1.916 -1.5962  0.9197  0.2314
 9770TIP3   OH253504   1.326   5.954   0.649  0.2437  0.0563 -0.0738
 9770TIP3    H153505   1.372   5.870   0.650 -0.3241 -0.2661  0.9892
 9770TIP3    H253506   1.353   5.997   0.731 -0.2358  0.4795 -0.1346
 9771TIP3   OH253507   3.302   4.049   1.676  0.7251  0.2843 -0.0620
 9771TIP3    H153508   3.306   3.962   1.717  0.0318  0.8560  1.2713
 9771TIP3    H253509   3.267   4.106   1.744  1.2926  1.6532 -0.8794
 9772TIP3   OH253510   2.145   5.070   2.296 -0.3207  0.3190  0.1781
 9772TIP3    H153511   2.159   5.149   2.348 -2.2596  2.2070 -1.9129
 9772TIP3    H253512   2.227   5.058   2.248  0.1875  0.7366  0.9299
 9773TIP3   OH253513   6.544   7.218   2.244  0.5318 -0.1026 -0.3920
 9773TIP3    H153514   6.603   7.177   2.181  1.2849 -1.7321  1.2689
 9773TIP3    H253515   6.462   7.168   2.236  0.1874  0.5452 -0.9752
 9774TIP3   OH253516   5.354   4.983   1.345  0.6960  0.2780  0.4089
 9774TIP3    H153517   5.287   4.916   1.334  1.3927 -0.1521 -1.7958
 9774TIP3    H253518   5.405   4.955   1.421 -0.4008 -0.4346  0.8977
 9775TIP3   OH253519   1.812   3.625   3.280 -0.6118 -0.4101 -0.2951
 9775TIP3    H153520   1.758   3.547   3.292 -0.9820 -0.3017 -1.1657
 9775TIP3    H253521   1.750   3.695   3.259 -0.1533 -0.3439 -1.5746
 9776TIP3   OH253522   4.372   1.591   3.455 -0.0847 -0.1159  0.2828
 9776TIP3    H153523   4.359   1.577   3.361 -0.0089 -2.3096  0.5552
 9776TIP3    H253524   4.440   1.659   3.460  0.6788 -0.7136 -1.2674
 9777TIP3   OH253525   4.535   7.409   0.419 -0.3609 -0.1772 -0.1245
 9777TIP3    H153526   4.603   7.432   0.481  1.3463 -1.2754 -1.5057
 9777TIP3    H253527   4.490   7.492   0.400  1.8243  0.9601 -0.6136
 9778TIP3   OH253528   3.869   6.043   2.709 -0.1997  0.3969 -0.4940
 9778TIP3    H153529   3.928   6.040   2.784 -0.7278  0.4736 -0.0752
 9778TIP3    H253530   3.918   6.092   2.643 -0.5573  2.2149  0.5266
 9779TIP3   OH253531   3.751   2.365   1.558 -0.2517  0.1357 -0.7085
 9779TIP3    H153532   3.689   2.436   1.571  0.4339  0.5620  0.4506
 9779TIP3    H253533   3.813   2.373   1.631 -0.4757 -1.9968 -0.2036
 9780TIP3   OH253534   0.324   6.935   3.152  0.2514  0.1116 -0.1089
 9780TIP3    H153535   0.335   6.880   3.075  0.3050 -2.3334  1.5212
 9780TIP3    H253536   0.231   6.959   3.151  0.5904  1.5748 -1.7701
 9781TIP3   OH253537   7.179   1.458   1.080  0.0097 -0.2327  0.6888
 9781TIP3    H153538   7.249   1.393   1.077 -1.0136 -1.3847  1.2308
 9781TIP3    H253539   7.187   1.498   1.167  0.4186  0.1444  0.4850
 9782TIP3   OH253540   6.011   0.436   1.126  0.5937 -0.2621  0.3428
 9782TIP3    H153541   5.917   0.440   1.140  0.3144 -0.8107 -1.1782
 9782TIP3    H253542   6.043   0.522   1.151 -0.5087  0.3963 -0.4356
 9783TIP3   OH253543   6.737   2.421   1.967 -0.2007 -0.3658 -0.3289
 9783TIP3    H153544   6.748   2.437   2.061 -0.9615  0.4017 -0.3551
 9783TIP3    H253545   6.657   2.368   1.961 -0.3032 -0.1875 -0.5551
 9784TIP3   OH253546   2.458   2.401   2.633  0.7920 -0.1891 -0.1515
 9784TIP3    H153547   2.384   2.455   2.660  0.0566 -0.9856 -0.5004
 9784TIP3    H253548   2.519   2.406   2.706  0.2733  0.2783  0.2608
 9785TIP3   OH253549   5.555   4.515   0.920 -0.6045  0.2259 -0.2308
 9785TIP3    H153550   5.499   4.528   0.843 -0.2380 -0.3018 -0.5965
 9785TIP3    H253551   5.557   4.601   0.963 -0.3377  0.6862 -1.1369
 9786TIP3   OH253552   2.699   2.332   1.724 -0.1172  0.3395  0.5730
 9786TIP3    H153553   2.713   2.252   1.675  0.4375  1.2906 -0.8737
 9786TIP3    H253554   2.615   2.366   1.692 -0.7454 -0.0249  1.7433
 9787TIP3   OH253555   3.453   5.344   2.544  0.9542  0.2225  0.0100
 9787TIP3    H153556   3.398   5.269   2.520  0.2820  0.5669  0.4386
 9787TIP3    H253557   3.391   5.411   2.574  1.4894  1.1662 -0.8981
 9788TIP3   OH253558   5.442   0.972   1.303  0.1877  0.0533 -0.1762
 9788TIP3    H153559   5.513   1.037   1.312 -0.3470  0.6820 -0.4331
 9788TIP3    H253560   5.362   1.024   1.302 -0.4783 -0.7902  2.4418
 9789TIP3   OH253561   2.928   7.241   2.625  0.5495 -0.3905  0.1158
 9789TIP3    H153562   2.867   7.219   2.555  0.4849  1.1154 -0.3483
 9789TIP3    H253563   2.976   7.161   2.642 -1.4151 -1.5947  0.3747
 9790TIP3   OH253564   2.387   3.398   3.352  0.3182 -0.1729  0.3317
 9790TIP3    H153565   2.312   3.345   3.377  1.2404 -2.0364 -0.6599
 9790TIP3    H253566   2.354   3.454   3.281 -0.2560 -0.5884  0.2664
 9791TIP3   OH253567   2.926   2.965   1.498 -0.0301  0.7056 -0.1228
 9791TIP3    H153568   2.859   3.018   1.540 -0.5758  0.7983 -1.0685
 9791TIP3    H253569   2.918   2.986   1.405 -1.3939 -2.1807 -0.7927
 9792TIP3   OH253570   1.336   1.563   2.635  0.1002  0.0264 -0.1745
 9792TIP3    H153571   1.323   1.504   2.560  1.3693 -0.8426  0.2736
 9792TIP3    H253572   1.283   1.524   2.705 -2.9146  2.0184 -1.1172
 9793TIP3   OH253573   1.852   5.953   2.390  0.2413  0.3049  0.3508
 9793TIP3    H153574   1.765   5.993   2.386 -0.0687 -0.4378 -1.1713
 9793TIP3    H253575   1.909   6.023   2.422 -0.7185  1.1486  0.2832
 9794TIP3   OH253576   6.017   2.625   2.327  0.0723  0.5506 -1.0973
 9794TIP3    H153577   5.960   2.702   2.339  0.4557  0.7204 -0.3243
 9794TIP3    H253578   6.106   2.660   2.335  0.2465 -0.2875  1.4600
 9795TIP3   OH253579   3.006   3.752   3.216 -0.1136 -0.2968  0.0538
 9795TIP3    H153580   2.922   3.798   3.205 -0.1791 -0.7483 -1.4723
 9795TIP3    H253581   3.072   3.815   3.186  0.1252  0.0403  1.2082
 9796TIP3   OH253582   1.429   0.182   0.580  0.5875  0.1466 -0.1205
 9796TIP3    H153583   1.390   0.267   0.559  1.4309  0.7009  0.4932
 9796TIP3    H253584   1.520   0.202   0.601  0.6513 -0.8331  0.6121
 9797TIP3   OH253585   0.886   3.865   0.744 -0.4252 -0.5394 -0.2654
 9797TIP3    H153586   0.935   3.783   0.732  0.5176  0.0186 -0.2945
 9797TIP3    H253587   0.799   3.836   0.774 -0.5186 -1.6069 -1.4883
 9798TIP3   OH253588   4.115   4.707   1.810  0.8512  0.4905  0.5939
 9798TIP3    H153589   4.159   4.623   1.796  0.8618  0.5360  0.3565
 9798TIP3    H253590   4.047   4.710   1.743 -1.4302 -0.8839  2.6883
 9799TIP3   OH253591   5.600   3.404   0.500 -0.4951  0.4010 -0.2606
 9799TIP3    H153592   5.520   3.451   0.475  0.2252  1.1167 -1.2595
 9799TIP3    H253593   5.671   3.453   0.458  0.6617  0.8635  2.0810
 9800TIP3   OH253594   6.904   0.776   2.165 -0.3553  0.0803  0.0397
 9800TIP3    H153595   6.998   0.794   2.154  0.2289 -1.0189  2.4832
 9800TIP3    H253596   6.869   0.856   2.205 -0.0851 -0.0793  0.6187
 9801TIP3   OH253597   0.599   3.995   0.460  0.6200 -0.0289 -0.6797
 9801TIP3    H153598   0.607   3.902   0.441 -0.5393 -0.1621 -0.5569
 9801TIP3    H253599   0.512   4.005   0.497  1.4487  0.7906  1.1913
 9802TIP3   OH253600   6.584   0.588   1.386 -0.1481 -0.1112 -0.2433
 9802TIP3    H153601   6.532   0.669   1.388 -1.0196 -0.6483 -0.3385
 9802TIP3    H253602   6.674   0.617   1.376 -0.3340  0.8887  0.8393
 9803TIP3   OH253603   3.244   3.751   1.714  0.9048  0.7219 -0.4768
 9803TIP3    H153604   3.241   3.657   1.693  0.3843  0.6673 -0.1771
 9803TIP3    H253605   3.206   3.757   1.801  0.7846  1.2308 -0.5627
 9804TIP3   OH253606   2.091   2.639   1.765  0.1672 -0.1541 -0.1535
 9804TIP3    H153607   2.134   2.622   1.848  0.1816 -1.3714 -0.3869
 9804TIP3    H253608   2.162   2.645   1.701  0.0830 -0.6784 -0.3019
 9805TIP3   OH253609   3.576   3.834   2.720  0.1814  0.1830  0.6844
 9805TIP3    H153610   3.569   3.863   2.629 -0.0564  0.0958  0.6753
 9805TIP3    H253611   3.513   3.762   2.728 -1.1266  1.3704  1.3939
 9806TIP3   OH253612   2.944   6.922   2.382 -0.0286  0.2654  0.3119
 9806TIP3    H153613   3.035   6.951   2.373 -0.3785  1.4143  0.2331
 9806TIP3    H253614   2.894   7.004   2.388 -1.1438 -0.3308 -0.5116
 9807TIP3   OH253615   1.504   7.106   3.416  0.0751 -0.0784  0.0254
 9807TIP3    H153616   1.421   7.120   3.463  0.3545 -0.6080  0.6974
 9807TIP3    H253617   1.512   7.182   3.358 -0.0549  0.8382  1.1669
 9808TIP3   OH253618   1.752   5.433   2.638 -0.5673  0.4251  0.1500
 9808TIP3    H153619   1.782   5.514   2.597  0.2554 -0.1524 -0.4207
 9808TIP3    H253620   1.775   5.443   2.731 -1.1779  1.1589  0.2286
 9809TIP3   OH253621   5.719   1.715   1.232  0.5759 -0.5122 -0.0842
 9809TIP3    H153622   5.718   1.625   1.198  0.4478 -0.8450  0.7756
 9809TIP3    H253623   5.799   1.753   1.195  1.8066 -1.6829  1.2724
 9810TIP3   OH253624   4.517   7.498   0.971  0.3527 -0.1134 -0.1130
 9810TIP3    H153625   4.576   7.423   0.970 -0.1054 -0.4854  0.4719
 9810TIP3    H253626   4.450   7.477   0.906 -0.8678 -1.1184  1.4045
 9811TIP3   OH253627   7.331   1.143   2.338 -0.3729  0.1740  0.0737
 9811TIP3    H153628   7.312   1.067   2.283 -0.0587  1.3071 -1.7080
 9811TIP3    H253629   7.256   1.150   2.397 -0.2128 -1.7205  0.5643
 9812TIP3   OH253630   3.902   4.985   3.110 -0.2845 -0.0767  0.6970
 9812TIP3    H153631   3.836   4.927   3.148  0.8347 -1.6315  0.4011
 9812TIP3    H253632   3.857   5.068   3.098 -2.1131 -1.0031  0.7378
 9813TIP3   OH253633   6.143   6.389   2.417  0.6642  0.2827  0.5036
 9813TIP3    H153634   6.185   6.382   2.503 -1.3409  0.1037  1.5317
 9813TIP3    H253635   6.092   6.470   2.422  0.8165  0.4604 -0.6656
 9814TIP3   OH253636   2.295   5.183   1.432  0.2745  0.9460 -0.6613
 9814TIP3    H153637   2.328   5.185   1.342 -0.2687 -1.7789 -1.0352
 9814TIP3    H253638   2.205   5.152   1.423 -0.1798  1.7769  0.7707
 9815TIP3   OH253639   1.948   7.488   2.686  0.0946 -0.0721  0.2991
 9815TIP3    H153640   1.947   7.486   2.782  0.7519 -0.0683  0.3113
 9815TIP3    H253641   1.856   7.493   2.661 -0.1730 -1.5647  0.8947
 9816TIP3   OH253642   4.580   4.802   2.284  0.4267  0.3359  0.0003
 9816TIP3    H153643   4.574   4.707   2.271 -0.9139 -0.0408  2.7942
 9816TIP3    H253644   4.506   4.824   2.339  1.7759  2.7074  1.0135
 9817TIP3   OH253645   4.147   7.270   1.699  0.6184  0.4700  0.3809
 9817TIP3    H153646   4.127   7.208   1.769 -2.3609  0.5108 -0.3264
 9817TIP3    H253647   4.160   7.215   1.621 -0.3651  0.6221  0.0998
 9818TIP3   OH253648   4.146   7.431   2.968  0.4689 -0.4334 -0.0995
 9818TIP3    H153649   4.117   7.451   2.879  0.6396  1.5976  0.2461
 9818TIP3    H253650   4.093   7.489   3.023  2.4821  0.6301  0.8284
 9819TIP3   OH253651   7.505   3.433   1.857 -0.0802  0.2932 -0.0087
 9819TIP3    H153652   7.598   3.450   1.844 -0.5983  2.7774 -1.0493
 9819TIP3    H253653   7.480   3.492   1.928 -1.5486  2.4561 -2.2059
 9820TIP3   OH253654   1.968   3.541   0.977  0.6759 -1.0088 -0.3170
 9820TIP3    H153655   1.887   3.512   0.934 -0.4545  1.7622 -0.2089
 9820TIP3    H253656   1.942   3.559   1.067  1.5924 -0.7236 -0.1027
 9821TIP3   OH253657   2.680   4.692   0.922 -0.0594  0.5289  0.1023
 9821TIP3    H153658   2.643   4.762   0.977  0.0687 -0.3249  1.3157
 9821TIP3    H253659   2.604   4.647   0.886 -0.2387 -0.6179  1.8181
 9822TIP3   OH253660   6.758   6.240   1.181  0.3569  0.2810 -0.2880
 9822TIP3    H153661   6.739   6.230   1.274  0.5062  0.7565 -0.2044
 9822TIP3    H253662   6.841   6.287   1.178  0.7461 -0.4147 -0.6588
 9823TIP3   OH253663   0.069   6.548   1.873  1.0623 -0.2178 -0.5273
 9823TIP3    H153664   0.158   6.523   1.847  0.2153 -1.3789 -2.5590
 9823TIP3    H253665   0.012   6.502   1.811 -0.9384  1.0535  0.2615
 9824TIP3   OH253666   7.042   2.259   2.222 -0.2951 -0.1761 -0.2774
 9824TIP3    H153667   7.052   2.345   2.261 -0.4275 -0.9128  1.4399
 9824TIP3    H253668   7.111   2.255   2.156  0.5102  0.7764  0.4785
 9825TIP3   OH253669   0.865   4.526   1.894  0.0631 -0.1305  0.1247
 9825TIP3    H153670   0.912   4.448   1.866 -1.6045 -0.9235 -0.6079
 9825TIP3    H253671   0.784   4.526   1.842  2.0429  4.7935 -3.8409
 9826TIP3   OH253672   2.961   6.227   1.019  0.5839 -0.7526 -0.0273
 9826TIP3    H153673   3.003   6.161   0.966  2.2949  0.7323 -0.6070
 9826TIP3    H253674   3.006   6.309   0.997 -0.2781  0.3238  1.9188
 9827TIP3   OH253675   1.730   3.260   2.220  0.0767 -0.0596 -0.0463
 9827TIP3    H153676   1.697   3.171   2.233 -0.2418  0.0946  0.2287
 9827TIP3    H253677   1.821   3.256   2.249 -0.5712  0.2414  2.2090
 9828TIP3   OH253678   7.162   2.265   0.879  0.3792 -0.1712 -0.5385
 9828TIP3    H153679   7.180   2.225   0.794  2.3259  0.6975 -0.5860
 9828TIP3    H253680   7.234   2.326   0.893 -1.5482  2.0601  0.3215
 9829TIP3   OH253681   2.808   7.429   3.500 -0.1379  0.1096  0.3499
 9829TIP3    H153682   2.770   7.345   3.526  0.5483 -0.3363 -0.0489
 9829TIP3    H253683   2.901   7.419   3.517  0.7505 -0.9671 -3.9475
 9830TIP3   OH253684   1.623   6.513   0.503  0.2767 -0.5319 -0.0297
 9830TIP3    H153685   1.661   6.483   0.586 -0.8389  0.6718  0.9676
 9830TIP3    H253686   1.536   6.472   0.501 -0.6624  1.3262  0.6159
 9831TIP3   OH253687   3.689   5.008   2.855  0.8164  0.3912 -0.1881
 9831TIP3    H153688   3.712   5.089   2.901  1.2903  0.7476 -1.0157
 9831TIP3    H253689   3.669   4.945   2.924  0.9337  1.0743  0.4805
 9832TIP3   OH253690   0.298   7.417   0.850 -0.1241  0.0814 -0.5098
 9832TIP3    H153691   0.378   7.376   0.817 -1.0472 -2.2983  0.0038
 9832TIP3    H253692   0.292   7.499   0.802  3.4870  1.2187  0.6489
 9833TIP3   OH253693   3.455   3.382   0.772  0.4404  0.7888  0.6643
 9833TIP3    H153694   3.453   3.291   0.741 -1.4274  1.0255 -0.1010
 9833TIP3    H253695   3.435   3.434   0.694  1.0147  1.8281  1.1891
 9834TIP3   OH253696   7.372   6.924   3.262  0.4119 -0.0699  0.1822
 9834TIP3    H153697   7.459   6.953   3.235  0.1494  0.1131 -0.5084
 9834TIP3    H253698   7.324   7.005   3.277  0.5680 -0.1750  1.2663
 9835TIP3   OH253699   0.622   6.265   2.314  0.5218 -0.4818 -0.0236
 9835TIP3    H153700   0.661   6.200   2.372  1.2531 -0.3393 -0.3371
 9835TIP3    H253701   0.694   6.324   2.292  0.2722 -0.5464 -1.0841
 9836TIP3   OH253702   7.094   5.479   2.049 -0.2150 -0.2282 -0.2638
 9836TIP3    H153703   7.100   5.559   2.101 -0.2927 -0.1735 -0.3373
 9836TIP3    H253704   7.046   5.418   2.105 -0.9147  0.0558 -0.5293
 9837TIP3   OH253705   3.495   1.110   3.568 -0.2355 -0.1141  0.3168
 9837TIP3    H153706   3.526   1.043   3.506 -0.2828  0.3659 -0.2425
 9837TIP3    H253707   3.503   1.192   3.519 -0.7401  0.2186  0.7877
 9838TIP3   OH253708   4.087   3.367   1.965  0.1054 -0.7621  0.0872
 9838TIP3    H153709   4.000   3.348   2.002 -1.5536  0.9051 -2.6074
 9838TIP3    H253710   4.070   3.383   1.872  2.6340  3.5586  0.1260
 9839TIP3   OH253711   3.323   0.445   0.484  0.2320 -0.4850  0.3850
 9839TIP3    H153712   3.330   0.487   0.398  1.3135 -0.7800  0.3063
 9839TIP3    H253713   3.340   0.515   0.547  1.7514 -0.7047  0.2636
 9840TIP3   OH253714   0.366   5.991   1.251 -0.2885 -0.2440 -0.1983
 9840TIP3    H153715   0.350   6.059   1.316 -2.1516 -1.4279  0.6735
 9840TIP3    H253716   0.429   5.931   1.292  0.3920  0.2721 -0.4721
 9841TIP3   OH253717   4.249   7.481   0.691  0.1166 -0.1310  0.0284
 9841TIP3    H153718   4.161   7.509   0.668  0.1017 -2.0690 -2.8801
 9841TIP3    H253719   4.240   7.434   0.773 -1.1593  1.4490  0.8289
 9842TIP3   OH253720   0.483   7.075   0.630  1.0522 -0.0087 -0.4178
 9842TIP3    H153721   0.459   7.134   0.558 -3.1604 -0.1177  0.6211
 9842TIP3    H253722   0.418   7.005   0.626  1.7896 -0.9741  2.4137
 9843TIP3   OH253723   4.145   3.953   0.387  0.4481  0.0322 -0.1079
 9843TIP3    H153724   4.179   3.885   0.446  1.8393  0.5046 -0.3236
 9843TIP3    H253725   4.219   4.012   0.374  0.2368 -0.1338 -2.4584
 9844TIP3   OH253726   2.878   1.978   2.626  0.4219 -0.3082 -0.2563
 9844TIP3    H153727   2.943   2.042   2.655 -0.1106 -0.0207  0.3398
 9844TIP3    H253728   2.793   2.020   2.643  0.0672 -0.3219 -1.8392
 9845TIP3   OH253729   3.838   6.107   2.408  0.1069  0.0201 -0.1677
 9845TIP3    H153730   3.779   6.174   2.442 -0.4933 -0.1829 -0.7877
 9845TIP3    H253731   3.883   6.149   2.335  0.3768  0.0233 -0.0000
 9846TIP3   OH253732   2.319   1.618   2.667 -0.0022 -0.1828  0.7393
 9846TIP3    H153733   2.376   1.627   2.590 -0.2265  0.1621  0.6107
 9846TIP3    H253734   2.230   1.624   2.631 -0.1184  2.3266  1.2914
 9847TIP3   OH253735   6.811   3.841   1.658 -0.0328  0.5401 -0.0713
 9847TIP3    H153736   6.856   3.758   1.671  0.5479  0.1063 -3.6519
 9847TIP3    H253737   6.730   3.818   1.612 -1.2792  1.7692  1.4144
 9848TIP3   OH253738   1.292   3.629   2.630 -0.3659  0.3477  0.1825
 9848TIP3    H153739   1.358   3.696   2.646  0.2632 -0.3812  0.7663
 9848TIP3    H253740   1.236   3.665   2.563  0.1831  1.3020  0.2238
 9849TIP3   OH253741   1.291   0.625   2.246 -0.1388 -0.7588  0.2205
 9849TIP3    H153742   1.231   0.691   2.212 -0.7592 -0.5130  1.7228
 9849TIP3    H253743   1.362   0.623   2.182 -2.0201 -1.5404 -1.9796
 9850TIP3   OH253744   7.379   6.246   1.192  0.2755 -0.1860 -0.3354
 9850TIP3    H153745   7.285   6.237   1.204  0.5614 -0.5187  2.4880
 9850TIP3    H253746   7.407   6.163   1.154 -0.2933 -1.2914  1.5032
 9851TIP3   OH253747   1.038   5.720   2.414  0.1127  0.1849 -0.3932
 9851TIP3    H153748   1.045   5.810   2.448  0.1917  0.2668 -0.6222
 9851TIP3    H253749   0.950   5.693   2.437 -0.2189  0.6425 -1.0948
 9852TIP3   OH253750   5.286   3.403   3.021  0.0016 -0.4002 -0.6498
 9852TIP3    H153751   5.306   3.497   3.025  1.7357 -0.8016  1.0205
 9852TIP3    H253752   5.206   3.394   3.072  0.3560  0.0418 -0.0026
 9853TIP3   OH253753   3.337   4.110   2.885  0.1814  0.1755  0.3172
 9853TIP3    H153754   3.423   4.087   2.919 -0.3595  1.6959  3.0624
 9853TIP3    H253755   3.349   4.117   2.790  2.6699 -1.1368  0.4667
 9854TIP3   OH253756   0.895   0.254   0.440  0.1784 -0.3303  0.2771
 9854TIP3    H153757   0.917   0.346   0.455 -0.0318 -0.2043 -0.1568
 9854TIP3    H253758   0.856   0.225   0.523 -0.7233  0.2742  0.0841
 9855TIP3   OH253759   3.784   3.702   1.861 -1.0386  0.1480  0.4564
 9855TIP3    H153760   3.854   3.682   1.924  0.6124 -1.0563 -1.6262
 9855TIP3    H253761   3.727   3.626   1.863 -0.2485 -0.4816 -0.4156
 9856TIP3   OH253762   2.507   5.143   0.584 -0.1524  0.4435 -0.2221
 9856TIP3    H153763   2.418   5.123   0.614  0.7475 -2.1807  0.9997
 9856TIP3    H253764   2.548   5.185   0.660  0.0781  0.3252 -0.2829
 9857TIP3   OH253765   2.259   3.869   1.338  0.3554  0.1464 -0.2131
 9857TIP3    H153766   2.282   3.959   1.317 -1.1902  0.2729 -1.5640
 9857TIP3    H253767   2.243   3.869   1.432  0.2757  1.3182 -0.2172
 9858TIP3   OH253768   5.285   3.168   0.740 -0.4241 -0.3504  0.0984
 9858TIP3    H153769   5.361   3.160   0.798 -0.8705  1.1320  0.9418
 9858TIP3    H253770   5.263   3.261   0.742 -2.6031 -0.8175  0.2994
 9859TIP3   OH253771   3.698   0.095   0.889  0.3006  0.1697 -0.2431
 9859TIP3    H153772   3.763   0.164   0.879 -0.2930  0.9639  1.1605
 9859TIP3    H253773   3.685   0.061   0.800  0.7735  1.6928 -0.9233
 9860TIP3   OH253774   0.268   0.743   0.736  0.3182 -0.0107  0.6933
 9860TIP3    H153775   0.304   0.741   0.825  0.8814  1.1888  0.5102
 9860TIP3    H253776   0.284   0.655   0.702  2.8695  0.3575  0.7357
 9861TIP3   OH253777   1.573   0.109   1.385 -0.5271  0.2290 -0.2517
 9861TIP3    H153778   1.584   0.203   1.397 -1.7209  0.4717 -0.9471
 9861TIP3    H253779   1.585   0.095   1.291 -0.6316 -0.2744 -0.1930
 9862TIP3   OH253780   7.258   1.513   0.553  0.2195 -0.1574 -0.1473
 9862TIP3    H153781   7.300   1.520   0.639  0.1936  1.0851 -0.2109
 9862TIP3    H253782   7.328   1.533   0.491  0.1669 -0.7616 -0.4057
 9863TIP3   OH253783   3.345   5.953   0.902  0.3911  0.0736 -0.5939
 9863TIP3    H153784   3.314   5.872   0.860 -0.6844 -0.0318  0.3764
 9863TIP3    H253785   3.366   6.011   0.829 -1.1129 -0.2289 -1.2968
 9864TIP3   OH253786   0.863   3.220   1.704 -0.0502  0.0702  0.0390
 9864TIP3    H153787   0.889   3.305   1.668  1.7596 -0.3606  0.2295
 9864TIP3    H253788   0.817   3.242   1.785 -2.1942  0.9454 -1.3155
 9865TIP3   OH253789   1.710   0.255   0.590  0.3356 -0.3521  0.2300
 9865TIP3    H153790   1.774   0.201   0.544  1.9275 -0.4009  2.3273
 9865TIP3    H253791   1.759   0.334   0.616 -1.2318  0.9229 -0.4894
 9866TIP3   OH253792   3.063   5.207   1.477 -0.2435  0.4578  0.4440
 9866TIP3    H153793   3.102   5.293   1.492  0.3539  0.2895 -0.1034
 9866TIP3    H253794   3.101   5.152   1.545  1.3502  0.0373 -0.7346
 9867TIP3   OH253795   4.900   2.076   0.458  0.2613  0.3213  0.7636
 9867TIP3    H153796   4.859   2.056   0.374 -0.7516 -1.3689  1.6051
 9867TIP3    H253797   4.990   2.047   0.449  0.2484  0.4675  0.1545
 9868TIP3   OH253798   2.094   0.001   0.629  0.4495  0.1147 -0.0350
 9868TIP3    H153799   2.090  -0.090   0.656 -0.1492  0.1144 -0.0951
 9868TIP3    H253800   2.081   0.051   0.710 -0.1659  0.1299 -0.1395
 9869TIP3   OH253801   4.927   3.080   1.806 -0.5153  0.2042 -0.0053
 9869TIP3    H153802   4.981   3.011   1.845 -0.5646  0.3586  0.3414
 9869TIP3    H253803   4.911   3.050   1.716 -0.4731 -0.1977  0.1185
 9870TIP3   OH253804   0.077   7.087   3.125  0.1270 -0.0756 -0.1416
 9870TIP3    H153805   0.023   7.163   3.105  2.1846  1.2308 -1.0544
 9870TIP3    H253806   0.110   7.104   3.214  0.9102  0.3277 -0.5005
 9871TIP3   OH253807   6.701   2.286   1.617 -0.5235  0.3269 -0.4306
 9871TIP3    H153808   6.736   2.228   1.685 -0.2063  1.2470  0.2140
 9871TIP3    H253809   6.655   2.227   1.557  0.9384 -0.7505 -0.5493
 9872TIP3   OH253810   1.548   6.074   2.026 -0.4596 -0.5390  0.0052
 9872TIP3    H153811   1.552   6.067   2.122  0.6266  0.6661  0.0660
 9872TIP3    H253812   1.624   6.127   2.002 -0.4305 -1.2451 -1.5822
 9873TIP3   OH253813   5.347   5.559   1.039  0.6595 -0.4283 -0.2971
 9873TIP3    H153814   5.419   5.499   1.056  2.2815  1.3750 -0.4517
 9873TIP3    H253815   5.339   5.559   0.943 -0.6469 -1.7697 -0.2383
 9874TIP3   OH253816   1.616   4.024   2.230  0.5981 -0.0621  0.7341
 9874TIP3    H153817   1.595   4.117   2.240  0.6129  0.0662 -0.3468
 9874TIP3    H253818   1.537   3.985   2.192  1.6729  0.1350 -1.8902
 9875TIP3   OH253819   7.140   3.005   2.918  0.4203 -0.4688 -0.0298
 9875TIP3    H153820   7.160   2.912   2.904 -0.7942 -0.5751 -1.2459
 9875TIP3    H253821   7.051   3.015   2.885  0.6695  1.2177 -0.2615
 9876TIP3   OH253822   5.224   6.096   1.787 -0.7122  0.1623 -0.1736
 9876TIP3    H153823   5.182   6.114   1.871 -0.1337  0.6183  0.0309
 9876TIP3    H253824   5.292   6.032   1.807 -0.4444  0.4173 -0.2520
 9877TIP3   OH253825   6.406   5.735   2.067  0.4941  0.4450 -0.2156
 9877TIP3    H153826   6.460   5.802   2.107 -0.9858  0.7306  1.4265
 9877TIP3    H253827   6.336   5.784   2.023  1.3062  0.0706 -2.0234
 9878TIP3   OH253828   3.868   3.095   0.528  0.1215  0.1560 -0.0280
 9878TIP3    H153829   3.893   3.178   0.488 -0.6085  0.3779 -0.0403
 9878TIP3    H253830   3.773   3.090   0.516  0.2954 -1.2975 -1.1966
 9879TIP3   OH253831   0.945   6.530   2.303  0.1543 -0.3800 -0.3308
 9879TIP3    H153832   0.864   6.580   2.306  0.0189 -0.5842 -0.5602
 9879TIP3    H253833   0.985   6.554   2.219  1.3757  1.3417  0.6716
 9880TIP3   OH253834   2.914   6.276   3.706 -0.4761  0.8061 -0.0320
 9880TIP3    H153835   2.843   6.226   3.664 -2.1903  1.8346  1.4945
 9880TIP3    H253836   2.959   6.320   3.633 -1.9691  0.8255 -0.9894
 9881TIP3   OH253837   3.740   0.447   0.649  0.3804 -0.0212  0.3334
 9881TIP3    H153838   3.674   0.378   0.641 -1.0163  1.2227  0.6336
 9881TIP3    H253839   3.720   0.489   0.733  2.0263 -0.0487  0.7745
 9882TIP3   OH253840   1.535   0.821   3.458  0.6671  0.1063 -0.5154
 9882TIP3    H153841   1.618   0.773   3.455 -0.1517 -1.4129  0.2159
 9882TIP3    H253842   1.469   0.756   3.437 -0.5162  0.8536  0.7320
 9883TIP3   OH253843   1.913   4.197   2.258 -0.5213 -0.1250 -0.3481
 9883TIP3    H153844   1.966   4.152   2.324 -0.4052  0.7801  0.1793
 9883TIP3    H253845   1.967   4.194   2.178 -0.1947 -0.2574 -0.1239
 9884TIP3   OH253846   1.917   7.206   2.289  0.1902  0.5526 -0.0571
 9884TIP3    H153847   1.974   7.274   2.255 -2.1651  2.8657  0.2665
 9884TIP3    H253848   1.963   7.171   2.364  1.8869  1.1180 -0.7926
 9885TIP3   OH253849   3.602   7.493   1.792 -0.0503 -0.8942  0.5065
 9885TIP3    H153850   3.655   7.431   1.742  0.0932 -0.6893  0.4070
 9885TIP3    H253851   3.647   7.502   1.876  0.9841  0.5526 -0.1795
 9886TIP3   OH253852   3.977   1.541   2.663  0.2782  0.2942 -0.4357
 9886TIP3    H153853   3.916   1.574   2.597  0.0637 -0.2041 -0.4963
 9886TIP3    H253854   4.015   1.462   2.624  0.1023 -0.0435  0.0526
 9887TIP3   OH253855   3.961   0.880   2.109 -0.1409 -0.0549  0.1743
 9887TIP3    H153856   3.924   0.881   2.020  1.0048  0.4177 -0.3051
 9887TIP3    H253857   4.039   0.826   2.102  1.0341  1.5602  0.4434
 9888TIP3   OH253858   5.871   2.802   1.525 -0.1775  0.2538 -0.5436
 9888TIP3    H153859   5.938   2.829   1.588 -1.4608  0.2736  0.8803
 9888TIP3    H253860   5.916   2.740   1.468  1.2995  1.0096 -0.2663
 9889TIP3   OH253861   2.625   1.574   0.965  0.7890  0.0715 -0.5923
 9889TIP3    H153862   2.659   1.663   0.956  0.4699  0.1692 -0.8291
 9889TIP3    H253863   2.580   1.574   1.049  0.1266  0.3543 -0.9404
 9890TIP3   OH253864   3.639   7.352   1.353  0.3863 -0.0071 -0.0590
 9890TIP3    H153865   3.676   7.344   1.265 -0.7601 -1.7043 -0.4364
 9890TIP3    H253866   3.552   7.389   1.339  0.6579  0.8765  0.5019
 9891TIP3   OH253867   3.956   0.419   1.663 -0.9047  0.3765 -0.2352
 9891TIP3    H153868   3.966   0.327   1.640 -1.1960  0.6372 -1.4744
 9891TIP3    H253869   3.919   0.460   1.584 -1.9060  1.3356  0.6908
 9892TIP3   OH253870   0.913   0.512   0.533  0.0680  0.3416  0.0073
 9892TIP3    H153871   0.962   0.576   0.481 -0.1543  0.8477  0.4137
 9892TIP3    H253872   0.875   0.563   0.604 -1.5561  0.0586 -0.6299
 9893TIP3   OH253873   5.868   2.445   0.829  0.7914  0.3322  0.1902
 9893TIP3    H153874   5.881   2.525   0.779 -1.5063 -0.5316 -2.0627
 9893TIP3    H253875   5.907   2.376   0.775 -0.2545 -0.4268  0.3518
 9894TIP3   OH253876   4.817   6.630   0.536  0.2076 -0.0575  0.1844
 9894TIP3    H153877   4.824   6.725   0.522 -0.0869 -0.1954 -1.0516
 9894TIP3    H253878   4.866   6.592   0.463 -1.4289 -0.8654 -0.5408
 9895TIP3   OH253879   3.607   5.000   2.262  0.2537  0.4404  0.5211
 9895TIP3    H153880   3.679   5.050   2.225  1.2033 -1.5835 -0.5323
 9895TIP3    H253881   3.632   4.985   2.353  0.5557  0.8127  0.4992
 9896TIP3   OH253882   3.218   3.639   1.285 -0.0103 -0.8408 -0.0569
 9896TIP3    H153883   3.185   3.673   1.201  1.2597 -0.3553 -0.3865
 9896TIP3    H253884   3.189   3.703   1.350 -0.5659 -0.9487 -0.1960
 9897TIP3   OH253885   4.042   0.499   1.219 -0.0405  0.1154  0.3829
 9897TIP3    H153886   4.071   0.588   1.198 -0.6128  0.5468  1.3415
 9897TIP3    H253887   4.102   0.470   1.288  1.4011 -1.0315 -1.2533
 9898TIP3   OH253888   2.300   3.048   3.561 -0.4635 -0.6337  0.2693
 9898TIP3    H153889   2.278   3.133   3.523  0.7882 -0.3002  0.2417
 9898TIP3    H253890   2.307   2.989   3.485  0.6658 -0.2818  0.0788
 9899TIP3   OH253891   5.087   2.286   1.442 -0.5397 -0.6875 -0.2830
 9899TIP3    H153892   5.006   2.319   1.481 -0.5807 -0.9171 -0.1736
 9899TIP3    H253893   5.111   2.212   1.497  0.4666  0.1982  0.5091
 9900TIP3   OH253894   7.418   3.108   1.309  0.7934  0.1782 -0.0947
 9900TIP3    H153895   7.328   3.140   1.318  0.0124 -1.4996 -1.4687
 9900TIP3    H253896   7.458   3.125   1.394 -1.4957 -0.9909  1.3061
 9901TIP3   OH253897   0.298   7.044   2.239 -0.1045  0.1619  0.1321
 9901TIP3    H153898   0.235   6.988   2.193 -0.8861  0.9040  0.2622
 9901TIP3    H253899   0.381   6.998   2.232 -0.7037 -0.9793  0.1651
 9902TIP3   OH253900   3.613   4.955   1.870 -0.0817  0.1947 -0.2553
 9902TIP3    H153901   3.708   4.949   1.867 -0.1455 -0.5386 -1.2345
 9902TIP3    H253902   3.583   4.922   1.785 -1.1602  1.6806 -0.5032
 9903TIP3   OH253903   1.930   5.558   3.199  0.1812 -0.4270 -0.1085
 9903TIP3    H153904   1.920   5.474   3.153 -0.7881 -0.1028 -0.5082
 9903TIP3    H253905   1.852   5.608   3.175  0.0350  0.0520  1.2614
 9904TIP3   OH253906   6.303   0.487   2.452  0.0378 -0.4554 -0.0529
 9904TIP3    H153907   6.209   0.477   2.436 -0.0465 -2.1406  1.2343
 9904TIP3    H253908   6.332   0.549   2.385 -1.7628 -0.8545 -1.2723
 9905TIP3   OH253909   1.858   0.061   1.296  1.3185  0.1398 -0.6921
 9905TIP3    H153910   1.770   0.075   1.262  1.4005 -1.8958 -1.9412
 9905TIP3    H253911   1.889   0.148   1.321 -0.5013  1.0926 -1.5832
 9906TIP3   OH253912   5.284   4.457   1.045  0.6859 -0.1495 -0.6468
 9906TIP3    H153913   5.228   4.524   1.007  1.1783  0.3143 -0.5647
 9906TIP3    H253914   5.356   4.448   0.982  1.7136  0.9037  0.3433
 9907TIP3   OH253915   7.239   4.831   0.853  0.1283  0.1066  0.4499
 9907TIP3    H153916   7.200   4.863   0.772  2.2188 -0.4065 -0.8174
 9907TIP3    H253917   7.302   4.898   0.878 -1.7229  1.1619  2.7534
 9908TIP3   OH253918   0.249   0.297   2.336  0.4680 -0.0125 -0.8095
 9908TIP3    H153919   0.298   0.249   2.269  2.2262 -0.0701  0.4673
 9908TIP3    H253920   0.312   0.360   2.372 -0.0663 -0.7360  1.5573
 9909TIP3   OH253921   5.744   6.907   1.328 -0.0982 -0.1475  0.1357
 9909TIP3    H153922   5.746   6.959   1.409 -0.8446 -2.4125  1.6904
 9909TIP3    H253923   5.651   6.901   1.306  0.1606  1.5511 -1.7302
 9910TIP3   OH253924   4.660   3.041   1.918  0.2751 -0.7202 -0.4903
 9910TIP3    H153925   4.750   3.056   1.890  0.1617  0.2842 -0.3781
 9910TIP3    H253926   4.613   3.020   1.838  0.2546  0.6263 -0.8710
 9911TIP3   OH253927   1.974   6.273   3.054  0.2511 -0.4985  0.0770
 9911TIP3    H153928   1.909   6.229   3.108  0.8400 -1.4396  0.0377
 9911TIP3    H253929   2.026   6.324   3.116  0.8221 -1.4473  0.4056
 9912TIP3   OH253930   3.063   7.123   3.045  0.0386  0.2417 -0.1174
 9912TIP3    H153931   3.071   7.206   3.092 -1.8133 -0.1742  1.0707
 9912TIP3    H253932   3.152   7.091   3.037  0.5951  1.2489  1.5116
 9913TIP3   OH253933   1.453   0.394   2.756  0.0614 -0.0876  0.2603
 9913TIP3    H153934   1.457   0.302   2.782 -0.7820 -0.2700 -0.2321
 9913TIP3    H253935   1.386   0.432   2.813 -1.6809 -0.4497 -1.4598
 9914TIP3   OH253936   0.999   0.730   1.245  0.0764 -0.5493  0.2978
 9914TIP3    H153937   1.072   0.758   1.300 -0.0275 -0.5493  0.4353
 9914TIP3    H253938   1.017   0.638   1.226 -1.3192 -1.4246  2.6812
 9915TIP3   OH253939   7.464   4.714   1.461 -0.1015  0.4652 -0.1123
 9915TIP3    H153940   7.385   4.690   1.413  0.9487 -0.0460 -1.6876
 9915TIP3    H253941   7.518   4.634   1.460 -0.2614  0.2600  2.4706
 9916TIP3   OH253942   6.477   2.327   1.833 -0.0127 -0.3315  0.2025
 9916TIP3    H153943   6.549   2.315   1.770  1.6433 -0.6837  2.0450
 9916TIP3    H253944   6.448   2.417   1.819  0.0729 -0.5161 -1.2944
 9917TIP3   OH253945   3.670   1.938   0.485 -0.0507 -0.0607  0.0600
 9917TIP3    H153946   3.698   1.866   0.429 -0.2796 -0.8375  0.9085
 9917TIP3    H253947   3.576   1.945   0.470 -0.1736 -0.4974  0.5762
 9918TIP3   OH253948   4.149   5.403   3.178 -0.1975  0.1544 -0.1871
 9918TIP3    H153949   4.067   5.419   3.132  0.8603 -0.2077 -2.2890
 9918TIP3    H253950   4.176   5.316   3.150 -0.5779 -1.0877  2.8899
 9919TIP3   OH253951   0.109   2.337   2.726  0.2598  0.1078  0.2729
 9919TIP3    H153952   0.129   2.260   2.674 -0.9237  0.1546 -0.2697
 9919TIP3    H253953   0.067   2.303   2.805  1.7331  0.0618  1.0639
 9920TIP3   OH253954   7.464   7.417   3.361  0.4453 -0.2146 -0.2332
 9920TIP3    H153955   7.546   7.410   3.411  0.3162 -1.1035 -0.1365
 9920TIP3    H253956   7.454   7.511   3.346  1.2511 -0.0550  0.1434
 9921TIP3   OH253957   5.114   0.171   0.994 -0.2304 -0.1020  0.5762
 9921TIP3    H153958   5.119   0.139   0.904 -3.4598 -0.9136  0.5578
 9921TIP3    H253959   5.062   0.106   1.040  1.1384  0.4072  3.0499
 9922TIP3   OH253960   0.825   0.669   0.741 -0.0924  0.4579  0.2286
 9922TIP3    H153961   0.759   0.675   0.810 -0.7499 -1.4846 -0.1848
 9922TIP3    H253962   0.900   0.717   0.776 -0.3593 -0.5682  2.3707
 9923TIP3   OH253963   5.642   0.061   1.970 -0.1549  0.5310  0.1221
 9923TIP3    H153964   5.680   0.103   1.893 -1.5987  2.0099  0.1533
 9923TIP3    H253965   5.591   0.130   2.013 -0.1833 -0.5099  1.8743
 9924TIP3   OH253966   5.262   2.525   2.786  0.5121  0.5778 -0.1651
 9924TIP3    H153967   5.242   2.597   2.725 -1.5194 -0.2477 -0.5737
 9924TIP3    H253968   5.184   2.469   2.783  1.8456 -1.4370  0.4508
 9925TIP3   OH253969   2.836   1.230   1.739  0.7219  0.1682 -0.6687
 9925TIP3    H153970   2.757   1.196   1.781  0.3751  0.7153 -0.8623
 9925TIP3    H253971   2.902   1.162   1.753  0.3880 -0.0175  0.0440
 9926TIP3   OH253972   2.070   2.931   2.472  0.7806  0.4471 -0.3371
 9926TIP3    H153973   2.152   2.883   2.461 -0.0792 -0.5926 -2.9284
 9926TIP3    H253974   2.094   3.007   2.524  2.6722 -1.5219  1.9667
 9927TIP3   OH253975   6.479   1.356   2.292  0.1403 -0.2921  0.0870
 9927TIP3    H153976   6.530   1.393   2.364  0.1388 -0.0100 -0.0569
 9927TIP3    H253977   6.459   1.430   2.236 -0.5141 -0.3817  0.1935
 9928TIP3   OH253978   4.180   3.281   0.779  0.0683 -0.0004  0.3825
 9928TIP3    H153979   4.155   3.195   0.811  0.8946 -0.6240 -0.5958
 9928TIP3    H253980   4.112   3.303   0.714 -0.9791  0.7746  1.6785
 9929TIP3   OH253981   0.158   5.707   1.234  0.0150 -0.3837  0.2843
 9929TIP3    H153982   0.156   5.791   1.189  0.9547 -0.8425 -0.6587
 9929TIP3    H253983   0.251   5.686   1.244 -0.1286 -0.1630  2.7776
 9930TIP3   OH253984   4.788   4.471   3.496 -0.3298  0.1117 -0.2601
 9930TIP3    H153985   4.779   4.438   3.406 -0.9075 -2.4433  0.6593
 9930TIP3    H253986   4.876   4.445   3.522 -0.3656  0.3586  0.1077
 9931TIP3   OH253987   0.482   1.390   1.970 -0.0246  0.2078 -0.3090
 9931TIP3    H153988   0.529   1.451   2.026  0.6078 -1.3350  0.9127
 9931TIP3    H253989   0.408   1.361   2.023 -0.3802 -0.0172 -0.9131
 9932TIP3   OH253990   7.216   4.181   3.179  0.1767 -0.0903 -0.2807
 9932TIP3    H153991   7.209   4.099   3.130  0.3547 -0.0274 -0.4146
 9932TIP3    H253992   7.127   4.200   3.209  0.1164 -0.2710 -0.3503
 9933TIP3   OH253993   1.593   6.844   1.654  0.0818 -0.6530 -0.3428
 9933TIP3    H153994   1.620   6.889   1.734  1.0972 -1.6737 -0.0750
 9933TIP3    H253995   1.666   6.856   1.594  0.5791 -2.2760 -0.1065
 9934TIP3   OH253996   4.361   2.235   2.275 -0.1946 -0.2797 -0.0288
 9934TIP3    H153997   4.287   2.176   2.291 -0.3223 -0.6084 -1.6774
 9934TIP3    H253998   4.321   2.321   2.259 -0.2390 -0.4493 -0.8817
 9935TIP3   OH253999   5.890   4.892   1.555 -0.4493  0.3686 -0.0554
 9935TIP3    H154000   5.922   4.975   1.520 -3.5569  1.4465 -0.6775
 9935TIP3    H254001   5.853   4.915   1.641 -0.5609 -0.5527  0.1545
 9936TIP3   OH254002   1.671   4.218   1.893  0.1459  0.0530 -1.0670
 9936TIP3    H154003   1.637   4.208   1.981 -0.9525  0.1786 -1.4587
 9936TIP3    H254004   1.621   4.156   1.840 -0.1827  0.9349 -1.8319
 9937TIP3   OH254005   1.927   1.954   3.756 -0.5385 -0.1744 -0.0464
 9937TIP3    H154006   1.988   1.889   3.720  1.0877  1.9097 -1.3209
 9937TIP3    H254007   1.983   2.028   3.780 -2.0396  0.0298  3.3868
 9938TIP3   OH254008   3.748   1.682   3.602 -0.1916 -0.5119 -0.0195
 9938TIP3    H154009   3.671   1.727   3.638  0.8422  0.0013  1.6490
 9938TIP3    H254010   3.722   1.590   3.598 -0.9264 -0.3300  0.4153
 9939TIP3   OH254011   2.588   4.303   1.763 -0.1159  1.0108 -0.0491
 9939TIP3    H154012   2.576   4.220   1.717 -0.7900  1.6911 -1.1337
 9939TIP3    H254013   2.503   4.320   1.804  0.8852 -0.3527  2.8504
 9940TIP3   OH254014   4.734   4.858   1.220 -0.6118  0.5149  0.0630
 9940TIP3    H154015   4.650   4.902   1.230 -2.1623 -2.3766  1.1129
 9940TIP3    H254016   4.744   4.807   1.301  0.6345 -1.6169 -1.3322
 9941TIP3   OH254017   0.963   2.004   1.401 -0.4525 -0.0761 -0.2053
 9941TIP3    H154018   0.964   2.097   1.380 -1.5407 -0.1551 -0.6897
 9941TIP3    H254019   0.871   1.978   1.392  0.1312 -1.7052 -2.5454
 9942TIP3   OH254020   4.050   6.828   2.733  0.1053 -0.1035 -0.3308
 9942TIP3    H154021   4.083   6.901   2.681  1.5866 -0.4373  0.0801
 9942TIP3    H254022   4.087   6.843   2.820  2.3186 -2.4631 -0.7548
 9943TIP3   OH254023   5.900   4.200   0.714 -0.0320 -0.0196  0.0395
 9943TIP3    H154024   5.886   4.132   0.781 -0.8239 -0.2890 -0.3849
 9943TIP3    H254025   5.942   4.271   0.761  0.9898 -0.8706  0.4609
 9944TIP3   OH254026   2.695   2.359   3.247  0.1820 -0.2941 -0.1434
 9944TIP3    H154027   2.742   2.329   3.325  0.1561 -1.0015 -0.3952
 9944TIP3    H254028   2.714   2.453   3.243  0.9894 -0.4296  0.1680
 9945TIP3   OH254029   3.384   0.641   1.900 -0.0846  0.0236  0.1499
 9945TIP3    H154030   3.386   0.710   1.834 -2.1375 -0.5413 -0.5556
 9945TIP3    H254031   3.440   0.572   1.864 -1.9287 -0.6850 -1.5354
 9946TIP3   OH254032   0.802   6.138   0.668  0.4041  0.3077  0.0181
 9946TIP3    H154033   0.838   6.135   0.756  1.3027  0.0038 -0.3452
 9946TIP3    H254034   0.856   6.076   0.618 -1.2974 -0.9802 -0.3120
 9947TIP3   OH254035   6.172   1.647   2.377  0.1784 -0.5712  0.5464
 9947TIP3    H154036   6.132   1.574   2.424  4.4330 -2.3817  1.7637
 9947TIP3    H254037   6.193   1.711   2.444  0.3080 -0.1378  0.1000
 9948TIP3   OH254038   1.105   1.963   2.741 -0.0116  0.5500  0.6137
 9948TIP3    H154039   1.136   2.050   2.766  2.0206  0.1097 -0.2497
 9948TIP3    H254040   1.164   1.902   2.785  1.6824 -0.2925 -2.5699
 9949TIP3   OH254041   5.627   2.093   0.846 -0.5678 -0.6517 -0.0257
 9949TIP3    H154042   5.696   2.064   0.905 -1.8987  2.3756  3.3712
 9949TIP3    H254043   5.560   2.026   0.852 -0.1934 -0.9426  1.0658
 9950TIP3   OH254044   0.368   5.298   0.484 -0.0093 -0.4301 -0.1490
 9950TIP3    H154045   0.291   5.333   0.439  0.7757  0.0386 -1.1597
 9950TIP3    H254046   0.373   5.207   0.454 -0.8629 -0.8336  0.8788
 9951TIP3   OH254047   5.342   0.273   1.134  0.5979  0.1497  0.0498
 9951TIP3    H154048   5.264   0.234   1.094  0.1643  1.1150 -0.0735
 9951TIP3    H254049   5.339   0.365   1.108  0.6631  0.6739  1.7390
 9952TIP3   OH254050   0.865   5.107   1.858  0.1299  0.4140  0.3654
 9952TIP3    H154051   0.843   5.101   1.765  2.1321  1.6769 -0.2397
 9952TIP3    H254052   0.781   5.096   1.902 -1.1924  1.6296 -1.6544
 9953TIP3   OH254053   5.877   1.982   2.267 -0.4377  0.2470 -0.4030
 9953TIP3    H154054   5.969   1.995   2.245 -0.2307 -0.7342 -0.1674
 9953TIP3    H254055   5.876   1.975   2.362 -0.9681  1.7216 -0.2639
 9954TIP3   OH254056   3.581   3.950   3.442 -0.0224 -0.1623 -0.3430
 9954TIP3    H154057   3.561   3.926   3.352  0.9836 -0.5703 -0.4677
 9954TIP3    H254058   3.667   3.912   3.459 -1.0460 -1.8712  1.4634
 9955TIP3   OH254059   0.209   4.913   0.606  0.4076 -0.0725  0.1692
 9955TIP3    H154060   0.176   4.983   0.663 -1.0431  0.6457 -1.4616
 9955TIP3    H254061   0.130   4.866   0.578  0.9483  0.1703 -1.9399
 9956TIP3   OH254062   4.054   7.357   1.121  0.0379  0.6956  0.1660
 9956TIP3    H154063   4.103   7.436   1.147 -0.2873  0.8927  0.1821
 9956TIP3    H254064   4.029   7.317   1.204 -2.2611  2.0968  0.2316
 9957TIP3   OH254065   6.626   5.346   1.107 -0.4930 -0.0062  0.1023
 9957TIP3    H154066   6.710   5.340   1.061 -1.9878 -1.4051 -2.6539
 9957TIP3    H254067   6.646   5.318   1.196  1.8588 -0.8973 -0.6233
 9958TIP3   OH254068   1.832   1.622   2.337 -0.3043 -0.4638 -0.0766
 9958TIP3    H154069   1.868   1.610   2.425 -0.6870 -0.0798  0.1390
 9958TIP3    H254070   1.889   1.687   2.296 -0.6835  0.0670  0.2275
 9959TIP3   OH254071   5.634   5.696   1.097 -0.5312 -0.1489 -0.0213
 9959TIP3    H154072   5.566   5.635   1.125  0.0031 -0.3889  0.7776
 9959TIP3    H254073   5.628   5.696   1.001 -0.8715 -1.0728 -0.0080
 9960TIP3   OH254074   2.869   5.821   1.260  0.5596  0.1062  0.1712
 9960TIP3    H154075   2.830   5.842   1.175 -0.4912  1.9258  1.0502
 9960TIP3    H254076   2.830   5.736   1.283  1.5932 -0.9030 -1.5345
 9961TIP3   OH254077   3.121   1.071   3.150 -0.5974  0.8456 -0.5310
 9961TIP3    H154078   3.045   1.127   3.134 -1.6785 -0.4577 -0.1582
 9961TIP3    H254079   3.086   0.982   3.148  0.7159  0.2590  0.7945
 9962TIP3   OH254080   2.412   4.089   2.620 -0.3827 -0.4569 -0.0890
 9962TIP3    H154081   2.327   4.115   2.655 -0.1815  0.0537  0.0419
 9962TIP3    H254082   2.475   4.142   2.670  0.1151 -1.8277  0.8102
 9963TIP3   OH254083   1.664   4.584   1.142 -0.6690 -0.2983  0.0098
 9963TIP3    H154084   1.738   4.643   1.156 -0.4319 -0.0730 -1.9277
 9963TIP3    H254085   1.586   4.638   1.157 -0.5695 -0.8337  3.2953
 9964TIP3   OH254086   6.161   4.187   1.021  0.1607 -0.6288 -0.0062
 9964TIP3    H154087   6.108   4.108   1.011 -0.6460  0.0926 -1.9731
 9964TIP3    H254088   6.249   4.155   1.042  0.3581 -2.2196 -2.7776
 9965TIP3   OH254089   1.879   5.131   1.020  0.1177 -0.2040 -0.0695
 9965TIP3    H154090   1.850   5.188   1.092 -1.2538 -0.4043 -0.4475
 9965TIP3    H254091   1.833   5.163   0.943  1.6740  0.0878 -0.9192
 9966TIP3   OH254092   0.007   5.836   2.465 -0.1432  0.1212 -0.0256
 9966TIP3    H154093   0.086   5.787   2.443 -0.2559 -0.5392  0.9626
 9966TIP3    H254094  -0.007   5.817   2.558 -0.1208  2.1402  0.4243
 9967TIP3   OH254095   4.899   0.028   2.705  0.1913 -0.1536  0.1193
 9967TIP3    H154096   4.859   0.030   2.792  2.9229  0.5412  1.4424
 9967TIP3    H254097   4.932  -0.061   2.696 -0.3246 -0.3054 -0.3657
 9968TIP3   OH254098   4.053   1.033   0.601  0.1629 -0.3212 -0.2356
 9968TIP3    H154099   4.014   1.033   0.688  0.0366 -1.1417 -0.2915
 9968TIP3    H254100   4.078   1.125   0.586  1.1801 -0.3507  1.1080
 9969TIP3   OH254101   7.230   0.058   1.739 -0.0293  0.0545  0.0520
 9969TIP3    H154102   7.233   0.147   1.775 -1.9988  0.2823 -0.2161
 9969TIP3    H254103   7.303   0.013   1.780  0.4951  1.5571  0.8564
 9970TIP3   OH254104   3.377   5.520   0.578  0.2967  0.2843  0.0086
 9970TIP3    H154105   3.307   5.457   0.593 -0.5468  0.6967 -1.8825
 9970TIP3    H254106   3.408   5.543   0.665 -1.2651 -0.6419  0.8492
 9971TIP3   OH254107   7.349   3.205   1.820  0.3284 -0.8575 -0.3657
 9971TIP3    H154108   7.299   3.231   1.897 -2.7483  0.8913 -2.7088
 9971TIP3    H254109   7.408   3.278   1.803 -0.7072 -0.1400 -0.9624
 9972TIP3   OH254110   2.393   1.155   2.091  0.0218 -0.2661 -0.3334
 9972TIP3    H154111   2.361   1.069   2.120  0.4033  0.0399  1.0922
 9972TIP3    H254112   2.485   1.156   2.117 -0.1375  0.8137  0.2461
 9973TIP3   OH254113   2.842   7.135   1.839  0.5130  0.1407 -0.2605
 9973TIP3    H154114   2.796   7.158   1.758 -1.0117  1.1993  0.8589
 9973TIP3    H254115   2.844   7.039   1.839 -0.9964  0.0859 -0.7564
 9974TIP3   OH254116   3.863   7.195   0.974 -0.1764  0.0977 -0.1452
 9974TIP3    H154117   3.892   7.274   1.022 -0.5042 -0.5611  1.1977
 9974TIP3    H254118   3.769   7.206   0.967 -0.1408  0.1387 -0.5580
 9975TIP3   OH254119   6.686   1.571   0.903  0.1623 -0.3330  0.0161
 9975TIP3    H154120   6.688   1.621   0.821  0.0714  1.2080  0.9102
 9975TIP3    H254121   6.762   1.604   0.952  1.3076 -2.5410 -0.1367
 9976TIP3   OH254122   1.229   5.186   1.337  0.1149 -0.1580 -0.0350
 9976TIP3    H154123   1.144   5.202   1.378  0.2603  1.0177 -0.1522
 9976TIP3    H254124   1.242   5.092   1.345 -1.6155 -0.5135 -0.8259
 9977TIP3   OH254125   3.431   3.600   2.757 -0.3633 -0.2206  0.2517
 9977TIP3    H154126   3.341   3.608   2.726 -0.1717  3.5152  0.2470
 9977TIP3    H254127   3.423   3.567   2.847 -1.9135  1.5500  0.8230
 9978TIP3   OH254128   0.600   6.374   1.243  0.1696  0.2132  0.0562
 9978TIP3    H154129   0.664   6.426   1.195  0.6359 -0.3464  0.0596
 9978TIP3    H254130   0.567   6.433   1.310  3.1109 -0.4168  2.2327
 9979TIP3   OH254131   7.227   1.668   2.428 -0.0303  0.2194  0.5753
 9979TIP3    H154132   7.290   1.675   2.500  0.6737 -1.8227  0.2096
 9979TIP3    H254133   7.281   1.656   2.350 -0.8387 -0.4695  0.1029
 9980TIP3   OH254134   2.548   4.009   2.024 -0.7622  0.1708  0.0653
 9980TIP3    H154135   2.466   3.987   1.980 -1.4091  0.0540  1.2881
 9980TIP3    H254136   2.542   4.102   2.041  0.6293  0.8073 -2.3327
 9981TIP3   OH254137   2.315   1.297   0.719 -0.0659  0.7114 -0.1017
 9981TIP3    H154138   2.356   1.294   0.805 -1.6875 -0.3537  0.6978
 9981TIP3    H254139   2.239   1.239   0.727 -0.1569  0.4429 -2.3123
 9982TIP3   OH254140   4.344   2.053   2.961 -0.1304 -0.0356  0.6898
 9982TIP3    H154141   4.277   2.045   3.029  1.1148  0.1138  1.9923
 9982TIP3    H254142   4.418   2.002   2.995  1.8166  2.8724  1.1829
 9983TIP3   OH254143   3.089   4.210   1.849  0.0576 -0.0891 -0.6726
 9983TIP3    H154144   3.034   4.137   1.821 -1.6594  0.7377  0.3605
 9983TIP3    H254145   3.090   4.204   1.945  0.1221  1.0459 -0.5844
 9984TIP3   OH254146   1.707   6.062   1.605  0.4268 -1.0093 -0.5559
 9984TIP3    H154147   1.615   6.083   1.594  0.8206  0.8821 -0.5233
 9984TIP3    H254148   1.710   6.004   1.682 -0.6283 -0.1869  0.1313
 9985TIP3   OH254149   3.836   3.229   2.003  0.3226 -0.4174 -0.5449
 9985TIP3    H154150   3.829   3.154   1.944 -0.4784 -0.4493 -0.4324
 9985TIP3    H254151   3.822   3.192   2.091  2.0747 -0.4621 -0.2530
 9986TIP3   OH254152   6.518   3.660   2.059  0.3132 -0.0119  0.3747
 9986TIP3    H154153   6.492   3.721   1.989 -0.1264 -0.8147 -0.1731
 9986TIP3    H254154   6.447   3.667   2.124 -0.5571 -1.0975 -0.4272
 9987TIP3   OH254155   0.711   3.656   2.371 -0.5209 -0.2994  0.1003
 9987TIP3    H154156   0.626   3.624   2.401 -0.9762 -1.0219 -1.8153
 9987TIP3    H254157   0.695   3.685   2.282  0.7529  1.7830  0.4848
 9988TIP3   OH254158   4.839   3.372   2.929  0.1368 -0.4261  0.0319
 9988TIP3    H154159   4.823   3.429   2.854 -0.2247 -1.6600 -0.8571
 9988TIP3    H254160   4.856   3.286   2.891 -0.1588 -1.1072  1.3681
 9989TIP3   OH254161   0.545   1.534   2.508  0.1590  0.5170  0.1016
 9989TIP3    H154162   0.516   1.609   2.457  0.7036 -1.2081 -2.9635
 9989TIP3    H254163   0.488   1.462   2.480  1.7468 -0.9487  0.4478
 9990TIP3   OH254164   1.343   2.661   1.327 -0.1454  0.0204  0.1698
 9990TIP3    H154165   1.331   2.754   1.309 -0.3607 -0.0797 -0.2149
 9990TIP3    H254166   1.410   2.658   1.394  1.0389  0.3905 -0.9524
 9991TIP3   OH254167   5.418   0.324   2.040  0.7122 -0.2345 -0.1411
 9991TIP3    H154168   5.400   0.358   1.952  0.9742  0.1372 -0.0510
 9991TIP3    H254169   5.493   0.375   2.071  2.3126 -2.1123 -0.7270
 9992TIP3   OH254170   5.876   1.370   2.350  0.5675 -0.4142  0.0484
 9992TIP3    H154171   5.888   1.432   2.422 -0.1476  0.1859 -0.3277
 9992TIP3    H254172   5.881   1.284   2.391  1.2355 -0.1079  0.6363
 9993TIP3   OH254173   4.834   6.950   1.703  0.4475 -0.2331  0.5617
 9993TIP3    H154174   4.880   6.880   1.657  1.1660  0.8093 -0.3868
 9993TIP3    H254175   4.765   6.977   1.643  0.8908  0.6055  0.4097
 9994TIP3   OH254176   5.346   7.016   1.561  0.3048  0.4635 -0.2253
 9994TIP3    H154177   5.439   6.995   1.554 -0.0309 -1.1124 -0.3972
 9994TIP3    H254178   5.320   7.039   1.471  0.1264 -1.0554 -0.5936
 9995TIP3   OH254179   6.983   5.971   1.362 -0.7683  0.0759  0.4223
 9995TIP3    H154180   6.951   5.941   1.447  2.6815 -2.3214  1.0755
 9995TIP3    H254181   7.057   6.027   1.383  0.1309 -0.5333 -0.9702
 9996TIP3   OH254182   6.513   3.839   1.859  0.2157  0.1638  0.0259
 9996TIP3    H154183   6.530   3.899   1.786 -1.8713  0.5927 -0.1793
 9996TIP3    H254184   6.548   3.885   1.935  1.2359  0.3111 -0.5115
 9997TIP3   OH254185   1.396   3.566   1.985  0.3340 -0.2681  0.1447
 9997TIP3    H154186   1.412   3.499   1.919 -0.1155  0.0866 -0.3287
 9997TIP3    H254187   1.305   3.591   1.973  0.5004  0.4397  0.3071
 9998TIP3   OH254188   6.969   5.807   2.451 -0.5600 -0.3564 -0.0775
 9998TIP3    H154189   6.951   5.831   2.541 -1.2283 -1.7219  0.1790
 9998TIP3    H254190   7.001   5.888   2.410 -0.0516  0.2273  1.4166
 9999TIP3   OH254191   6.432   6.404   2.881  0.0532  0.2782  0.6269
 9999TIP3    H154192   6.383   6.485   2.896 -2.0818 -0.9890  0.9977
 9999TIP3    H254193   6.426   6.357   2.965  0.1414 -0.7856  0.0573
10000TIP3   OH254194   4.232   3.169   2.073 -0.2964  0.3721 -0.3096
10000TIP3    H154195   4.183   3.236   2.025 -0.6918  1.5440  1.6021
10000TIP3    H254196   4.324   3.185   2.049 -0.6097 -0.5345 -2.3471
10001TIP3   OH254197   5.124   3.926   1.787 -0.0027  0.3238 -0.6530
10001TIP3    H154198   5.140   3.889   1.700  0.0533 -0.3366 -0.3636
10001TIP3    H254199   5.075   4.007   1.769 -1.3260 -0.5600 -1.2223
10002TIP3   OH254200   6.642   0.304   0.703 -0.2932  0.1160  0.3894
10002TIP3    H154201   6.654   0.357   0.782 -1.3919 -1.4769  1.6992
10002TIP3    H254202   6.547   0.292   0.697 -0.3169  0.9370 -1.7235
10003TIP3   OH254203   6.260   1.482   1.184 -0.7760  0.5014  0.2766
10003TIP3    H154204   6.248   1.531   1.266 -0.4111 -3.0775  2.7152
10003TIP3    H254205   6.178   1.433   1.174  0.0871 -0.9323 -0.1017
10004TIP3   OH254206   2.670   2.046   0.892 -0.0557 -0.4304 -0.3902
10004TIP3    H154207   2.693   1.972   0.948 -0.2908 -0.9156 -0.9267
10004TIP3    H254208   2.676   2.012   0.803  0.5806  0.4041 -0.6866
10005TIP3   OH254209   4.441   3.624   2.966  0.3227  0.7817 -0.1185
10005TIP3    H154210   4.425   3.531   2.954  1.4966  0.6630 -0.9136
10005TIP3    H254211   4.353   3.663   2.967 -0.1759 -0.3106  0.1540
10006TIP3   OH254212   2.478   7.056   1.108 -0.0369 -0.6566  0.1660
10006TIP3    H154213   2.500   6.963   1.109 -0.0810 -0.8082 -2.8834
10006TIP3    H254214   2.528   7.091   1.034 -1.7382  1.2432 -0.1551
10007TIP3   OH254215   3.508   1.364   3.019 -0.1536  0.3320 -0.1599
10007TIP3    H154216   3.571   1.354   3.091 -0.8906  3.0738  1.0004
10007TIP3    H254217   3.427   1.326   3.053 -0.1434  0.3739 -0.0884
10008TIP3   OH254218   4.926   0.511   2.225 -0.1449  0.0636 -0.0486
10008TIP3    H154219   4.993   0.577   2.207 -1.7544  1.3616 -1.6076
10008TIP3    H254220   4.922   0.459   2.146 -0.9462 -0.0178  0.0373
10009TIP3   OH254221   2.196   4.773   0.822  0.0290  0.0506 -0.9184
10009TIP3    H154222   2.167   4.848   0.874  0.1356 -0.0134 -0.7699
10009TIP3    H254223   2.114   4.732   0.792 -0.0297  0.2082 -0.9763
10010TIP3   OH254224   2.894   6.231   0.619 -0.3254  0.0076  0.1480
10010TIP3    H154225   2.914   6.137   0.615  0.0039  0.0778  0.0932
10010TIP3    H254226   2.819   6.237   0.677  0.7629 -0.1286  1.6422
10011TIP3   OH254227   3.488   3.708   1.602 -0.2667 -0.3299 -0.5099
10011TIP3    H154228   3.403   3.744   1.626  0.5426  1.0146  0.4333
10011TIP3    H254229   3.552   3.772   1.634  1.0871 -1.0080 -1.7138
10012TIP3   OH254230   1.253   3.312   1.149 -0.4366  0.4201 -0.1568
10012TIP3    H154231   1.326   3.250   1.145 -1.2190 -0.5105 -0.3053
10012TIP3    H254232   1.284   3.381   1.208 -0.0699 -0.8042  1.1292
10013TIP3   OH254233   1.214   3.569   0.542  0.6781 -0.3291  0.1965
10013TIP3    H154234   1.173   3.558   0.628  1.1026 -0.1731  0.4165
10013TIP3    H254235   1.163   3.638   0.500  1.1055  0.3113  0.7171
10014TIP3   OH254236   7.245   3.539   0.900 -0.2765 -0.2160 -0.4684
10014TIP3    H154237   7.253   3.486   0.979  0.9044 -0.7076 -0.8999
10014TIP3    H254238   7.328   3.585   0.894 -1.2248  1.6109 -0.1883
10015TIP3   OH254239   2.729   1.062   2.286 -0.6603  0.4486  0.3873
10015TIP3    H154240   2.710   0.969   2.297 -1.0450  0.5618  0.7071
10015TIP3    H254241   2.766   1.069   2.198  0.0391 -0.1047  0.6314
10016TIP3   OH254242   3.495   0.824   0.788 -0.0259 -0.1837 -0.0606
10016TIP3    H154243   3.509   0.862   0.875  2.3959  0.0015 -0.4377
10016TIP3    H254244   3.472   0.898   0.732 -0.8423 -0.1820  0.2750
10017TIP3   OH254245   6.990   6.938   1.190 -0.0943  0.0717 -0.6077
10017TIP3    H154246   6.996   7.024   1.232 -0.5681 -0.3020  0.2699
10017TIP3    H254247   6.928   6.950   1.119 -0.2986  0.4174 -0.3740
10018TIP3   OH254248   2.472   6.755   3.154  0.1727  0.5872  0.0743
10018TIP3    H154249   2.500   6.667   3.179 -0.6418  0.2580 -0.1078
10018TIP3    H254250   2.460   6.802   3.236 -0.1074  0.2842  0.2108
10019TIP3   OH254251   3.968   0.055   3.130 -0.2197 -0.1605 -0.6717
10019TIP3    H154252   4.008   0.116   3.068  0.4681 -0.8610 -0.9384
10019TIP3    H254253   3.963   0.103   3.212 -1.3144  0.8538 -1.2955
10020TIP3   OH254254   0.783   2.047   1.765  0.4030 -0.0088 -0.0614
10020TIP3    H154255   0.794   1.980   1.833  1.0551 -0.8041 -0.9114
10020TIP3    H254256   0.865   2.095   1.765  1.5479 -1.7472 -2.0310
10021TIP3   OH254257   0.300   2.712   1.921 -0.1300 -0.4377 -0.4384
10021TIP3    H154258   0.292   2.672   1.834 -4.0648  0.1531 -0.5521
10021TIP3    H254259   0.325   2.803   1.903 -0.1660 -0.5151 -0.9055
10022TIP3   OH254260   2.270   6.103   0.783  0.2118  0.4180  0.1364
10022TIP3    H154261   2.202   6.154   0.739 -0.3280  1.7194  2.3476
10022TIP3    H254262   2.351   6.127   0.738 -0.2864  1.8528 -0.0496
10023TIP3   OH254263   6.221   2.673   0.618  0.2647  0.1229 -0.3842
10023TIP3    H154264   6.162   2.742   0.649  0.3770  0.0863 -0.0846
10023TIP3    H254265   6.304   2.718   0.603  0.0505  0.2547 -1.2047
10024TIP3   OH254266   7.004   0.240   2.003 -0.2795  0.6828  0.4993
10024TIP3    H154267   6.918   0.264   1.970  0.0233  0.5650 -0.4062
10024TIP3    H254268   7.063   0.253   1.928  0.5218  0.9690  1.1689
10025TIP3   OH254269   3.199   7.222   0.619 -0.0205  0.0853  0.1642
10025TIP3    H154270   3.178   7.134   0.650  0.0201 -0.3187 -0.9078
10025TIP3    H254271   3.136   7.239   0.549 -0.4186  1.1573  0.7720
10026TIP3   OH254272   0.680   7.004   1.330 -0.0417 -0.4662  0.0329
10026TIP3    H154273   0.759   7.057   1.317 -0.2171 -0.0190  0.7354
10026TIP3    H254274   0.689   6.968   1.418 -1.1507  0.5276  0.5821
10027TIP3   OH254275   7.317   5.098   1.901 -0.5417 -0.1954  0.4735
10027TIP3    H154276   7.308   5.047   1.981  2.4881 -1.4779  0.1171
10027TIP3    H254277   7.227   5.112   1.871 -1.6432 -1.7530  2.7842
10028TIP3   OH254278   3.368   2.572   2.260  0.7358 -0.3942  0.2953
10028TIP3    H154279   3.450   2.526   2.280  0.1985 -3.1825 -2.9912
10028TIP3    H254280   3.388   2.623   2.182 -0.9867 -2.7608 -1.8632
10029TIP3   OH254281   4.466   6.511   2.657 -0.3973 -0.3773 -0.2237
10029TIP3    H154282   4.479   6.418   2.674 -2.0781 -1.0579 -2.3273
10029TIP3    H254283   4.374   6.527   2.681 -0.7666  0.1996 -1.9265
10030TIP3   OH254284   4.825   4.267   1.958 -0.3299  0.1364 -0.0163
10030TIP3    H154285   4.823   4.246   1.865 -2.6457 -1.0570  0.2242
10030TIP3    H254286   4.910   4.236   1.988  0.7662  1.2172 -1.8354
10031TIP3   OH254287   1.140   4.759   0.534  0.2112  0.4764  0.0204
10031TIP3    H154288   1.202   4.698   0.494 -0.8156 -0.6948  0.1477
10031TIP3    H254289   1.083   4.703   0.587 -0.6276  1.5844  0.3131
10032TIP3   OH254290   3.701   0.781   2.215  0.2342  0.3667  0.2559
10032TIP3    H154291   3.794   0.784   2.193 -0.1908 -0.7461 -1.9373
10032TIP3    H254292   3.671   0.871   2.208  0.7045  0.4237 -1.1855
10033TIP3   OH254293   1.986   1.527   1.153  0.6715 -0.3460 -0.6123
10033TIP3    H154294   2.074   1.489   1.161  0.9596  0.1025 -1.5351
10033TIP3    H254295   2.001   1.615   1.119 -0.0885  0.0623  0.0688
10034TIP3   OH254296   2.009   3.295   0.710 -0.2533  0.2547  0.2284
10034TIP3    H154297   1.949   3.224   0.688 -1.0846  1.3499 -1.1447
10034TIP3    H254298   2.059   3.261   0.784 -2.1799 -0.8932  1.0788
10035TIP3   OH254299   4.994   5.619   1.803  0.0285  0.2666 -0.0801
10035TIP3    H154300   5.014   5.711   1.791 -0.1915  0.5124  1.3363
10035TIP3    H254301   4.928   5.600   1.736 -1.2848  1.6017  0.7924
10036TIP3   OH254302   0.115   5.177   2.829  0.6040 -0.1231 -0.0821
10036TIP3    H154303   0.208   5.171   2.852  0.1288 -0.7294  1.9156
10036TIP3    H254304   0.072   5.113   2.886 -1.1692  0.9360 -0.1539
10037TIP3   OH254305   5.568   2.520   1.234 -0.4227 -0.3111  0.2872
10037TIP3    H154306   5.531   2.601   1.201  0.3405  0.3040  0.8967
10037TIP3    H254307   5.565   2.530   1.329  0.4567 -0.6232  0.3569
10038TIP3   OH254308   1.245   2.697   2.570  0.5470  0.0931 -0.3599
10038TIP3    H154309   1.306   2.756   2.614  1.3780 -0.5158 -0.6823
10038TIP3    H254310   1.247   2.724   2.478  0.2844  0.1076 -0.3628
10039TIP3   OH254311   4.061   1.320   0.544  0.1166 -0.2516 -0.4881
10039TIP3    H154312   4.052   1.415   0.549 -0.5440 -0.3314 -0.0382
10039TIP3    H254313   3.971   1.287   0.545  0.3290 -0.8714 -0.9124
10040TIP3   OH254314   3.762   5.663   1.005 -0.0222 -0.1398  0.4472
10040TIP3    H154315   3.706   5.706   0.940  0.4508  1.1150  0.8375
10040TIP3    H254316   3.749   5.715   1.085  0.4632 -0.8241  0.9799
10041TIP3   OH254317   5.301   5.766   0.539 -0.1326  0.2727  0.2623
10041TIP3    H154318   5.269   5.847   0.579  0.8813  0.6296  0.3758
10041TIP3    H254319   5.365   5.795   0.474 -1.9362 -0.2708 -1.9034
10042TIP3   OH254320   5.170   2.055   0.435 -0.0315 -0.3476  0.0327
10042TIP3    H154321   5.253   2.007   0.433  0.9648  1.3266 -0.7381
10042TIP3    H254322   5.193   2.142   0.467 -1.6508 -0.1089  0.6286
10043TIP3   OH254323   4.011   4.512   2.114 -0.5716 -0.7871  0.6276
10043TIP3    H154324   4.077   4.454   2.076  0.0436  0.0529  0.3711
10043TIP3    H254325   3.988   4.572   2.043 -0.4697 -0.1069  1.1544
10044TIP3   OH254326   5.870   2.016   0.944 -0.1500 -0.3728 -0.3897
10044TIP3    H154327   5.951   2.042   0.901 -0.8009  0.0175 -1.4302
10044TIP3    H254328   5.874   1.920   0.949 -0.3051 -0.4807 -1.8789
10045TIP3   OH254329   4.412   6.737   1.965  0.6221 -0.6126  0.0027
10045TIP3    H154330   4.499   6.775   1.981  0.2388  0.5514 -0.5814
10045TIP3    H254331   4.388   6.698   2.049  2.2204 -2.0454 -0.1570
10046TIP3   OH254332   1.606   7.322   2.378  0.4367 -0.2207 -0.0833
10046TIP3    H154333   1.663   7.268   2.323  0.8195 -0.0929  0.1762
10046TIP3    H254334   1.533   7.265   2.401 -1.0273  0.4522 -2.7261
10047TIP3   OH254335   5.481   4.713   2.929  0.0495 -0.3291  0.0803
10047TIP3    H154336   5.397   4.717   2.973  0.5238 -0.2316  0.9922
10047TIP3    H254337   5.530   4.647   2.977  1.2112  1.0342  0.8511
10048TIP3   OH254338   0.638   2.782   0.369 -0.2036 -0.0016 -0.0014
10048TIP3    H154339   0.545   2.760   0.360 -0.5029  0.8728  0.7037
10048TIP3    H254340   0.641   2.838   0.447  0.9517 -0.2053  0.1114
10049TIP3   OH254341   3.920   3.124   1.153  0.1162  0.1344  0.0053
10049TIP3    H154342   3.902   3.076   1.072 -0.2922 -0.9035  0.6866
10049TIP3    H254343   4.016   3.133   1.155  0.0848  0.6804 -0.8688
10050TIP3   OH254344   0.282   3.904   1.081 -0.1027  0.2407  0.3479
10050TIP3    H154345   0.294   3.961   1.157 -2.2122  0.9792  0.1982
10050TIP3    H254346   0.221   3.836   1.111  0.1589 -0.2889 -0.2913
10051TIP3   OH254347   6.345   3.554   1.135  0.5202  0.1946  0.5556
10051TIP3    H154348   6.292   3.593   1.066  0.8690 -0.4344 -0.0825
10051TIP3    H254349   6.431   3.542   1.095 -0.2325 -3.8018 -0.2713
10052TIP3   OH254350   5.420   5.015   2.263  0.2613 -0.6104 -0.2436
10052TIP3    H154351   5.365   4.996   2.339  0.4027  0.2018  0.0678
10052TIP3    H254352   5.501   5.051   2.300  0.8068 -1.3118 -0.7230
10053TIP3   OH254353   3.416   1.799   1.608 -0.3957 -0.6011  0.0863
10053TIP3    H154354   3.400   1.857   1.534  0.2420  0.3408  0.6661
10053TIP3    H254355   3.352   1.729   1.597 -1.0384  0.0888 -0.7599
10054TIP3   OH254356   1.697   6.311   2.077  0.3276  0.0996 -0.3803
10054TIP3    H154357   1.730   6.397   2.105 -2.9780  0.6306  2.6098
10054TIP3    H254358   1.776   6.258   2.067  2.3491  1.9109  3.5685
10055TIP3   OH254359   0.355   5.324   1.290  0.7429 -0.0314  0.3837
10055TIP3    H154360   0.328   5.251   1.235 -0.0854 -0.5579  1.4572
10055TIP3    H254361   0.294   5.323   1.364  0.1452  2.3032 -0.0024
10056TIP3   OH254362   2.281   6.895   2.702 -0.4302 -0.4331 -0.2276
10056TIP3    H154363   2.192   6.904   2.667 -0.8823  0.5591  1.1117
10056TIP3    H254364   2.333   6.959   2.653 -0.6764 -0.2876 -0.3000
10057TIP3   OH254365   0.779   7.255   2.536 -0.0905  0.6366  0.5168
10057TIP3    H154366   0.787   7.337   2.584  0.7223 -0.0685  1.6286
10057TIP3    H254367   0.864   7.243   2.494 -0.4041  0.6482 -0.1318
10058TIP3   OH254368   1.334   0.204   1.114 -0.4987  0.1325 -0.6202
10058TIP3    H154369   1.280   0.259   1.058 -0.7956 -0.6901 -1.1684
10058TIP3    H254370   1.375   0.141   1.054  1.5347  1.0721 -0.3023
10059TIP3   OH254371   4.841   0.065   1.604  0.1067 -0.4301  0.5871
10059TIP3    H154372   4.912   0.111   1.648  0.8383 -0.7568 -0.2222
10059TIP3    H254373   4.824   0.116   1.525  1.5725 -1.9839 -0.8166
10060TIP3   OH254374   3.615   1.423   1.788 -0.0106 -0.2963 -0.3412
10060TIP3    H154375   3.622   1.499   1.845 -0.5463  0.3966 -1.1826
10060TIP3    H254376   3.697   1.375   1.803  0.5771  0.7149 -0.1929
10061TIP3   OH254377   6.671   1.186   0.945 -0.0685 -0.5359  0.1034
10061TIP3    H154378   6.754   1.232   0.956 -0.0580 -0.5510  0.0883
10061TIP3    H254379   6.689   1.096   0.974 -0.0812 -0.5375  0.1065
10062TIP3   OH254380   2.151   4.108   1.166  0.1829 -0.2820 -0.7655
10062TIP3    H154381   2.102   4.173   1.117  1.3593 -0.9872 -3.0012
10062TIP3    H254382   2.179   4.044   1.100  1.4000 -1.5724  0.9123
10063TIP3   OH254383   7.115   3.530   0.607  0.2505 -0.9415 -0.1058
10063TIP3    H154384   7.183   3.596   0.619 -0.8360  0.2254 -0.1513
10063TIP3    H254385   7.156   3.463   0.553  0.6802  0.9183 -2.2857
10064TIP3   OH254386   3.830   3.843   3.458  0.5868  0.2450 -0.5188
10064TIP3    H154387   3.857   3.751   3.448  0.8613  0.3857 -1.0801
10064TIP3    H254388   3.911   3.888   3.482  0.2988  0.2166  0.5917
10065TIP3   OH254389   2.708   1.819   1.079  0.2495 -0.2272 -0.0350
10065TIP3    H154390   2.687   1.851   1.167 -0.9559 -0.4232 -0.2308
10065TIP3    H254391   2.802   1.803   1.080  0.2569 -0.1439  1.1965
10066TIP3   OH254392   2.014   1.717   0.612  0.4263  0.2026  0.4696
10066TIP3    H154393   1.979   1.796   0.570 -2.9581 -1.6609 -0.6408
10066TIP3    H254394   1.961   1.706   0.691 -1.3694 -2.4219 -0.9443
10067TIP3   OH254395   5.267   6.935   0.577 -0.0557  0.1325 -0.5432
10067TIP3    H154396   5.280   7.016   0.528  2.5738  0.1517  0.0519
10067TIP3    H254397   5.273   6.960   0.669 -1.1049 -0.4761 -0.2934
10068TIP3   OH254398   1.539   2.040   1.590 -0.3957 -0.2652  0.4371
10068TIP3    H154399   1.634   2.027   1.586 -0.2589  0.8954 -0.3416
10068TIP3    H254400   1.516   2.077   1.505 -1.5314 -0.3687  0.6839
10069TIP3   OH254401   2.340   3.466   1.448  0.4835  0.1735 -0.1738
10069TIP3    H154402   2.306   3.480   1.536  0.2221 -0.0606 -0.2370
10069TIP3    H254403   2.284   3.519   1.391  0.4377  0.0535 -0.2401
10070TIP3   OH254404   3.578   6.443   0.733  0.3653 -0.5770 -0.4404
10070TIP3    H154405   3.540   6.530   0.746 -0.3996 -0.9240 -0.3158
10070TIP3    H254406   3.591   6.436   0.639 -1.9342 -1.2725 -0.7662
10071TIP3   OH254407   0.489   0.052   2.743  0.2902  0.2782 -0.4825
10071TIP3    H154408   0.487   0.085   2.653  2.0881  0.5118 -0.4722
10071TIP3    H254409   0.514  -0.040   2.734 -0.3256  0.0852 -0.2601
10072TIP3   OH254410   3.618   6.109   1.444 -0.1031 -0.4864  0.5770
10072TIP3    H154411   3.543   6.151   1.486 -0.1326 -1.8737  2.0059
10072TIP3    H254412   3.585   6.081   1.358 -0.2832  1.6427 -0.1165
10073TIP3   OH254413   3.567   1.006   1.587  0.0306 -0.1501  0.0964
10073TIP3    H154414   3.600   1.060   1.515 -1.1176 -0.1800 -0.4683
10073TIP3    H254415   3.490   1.052   1.619  0.2369 -0.4004  0.9851
10074TIP3   OH254416   4.051   4.598   0.946 -0.0578  0.3994  0.4382
10074TIP3    H154417   4.006   4.583   0.863  1.7372  0.9316 -0.6973
10074TIP3    H254418   4.050   4.693   0.957 -0.5219  0.3183  1.1927
10075TIP3   OH254419   0.962   1.858   0.685  0.0467 -0.1842  0.3523
10075TIP3    H154420   0.965   1.909   0.605 -1.6831  0.2542  0.5271
10075TIP3    H254421   1.051   1.860   0.719  0.2318  1.9112 -0.1502
10076TIP3   OH254422   2.842   4.684   0.452 -0.2474 -0.0207  0.0398
10076TIP3    H154423   2.776   4.752   0.461 -1.4169 -0.8873 -1.5396
10076TIP3    H254424   2.919   4.730   0.418 -0.9780  0.5515 -0.8773
10077TIP3   OH254425   1.448   5.506   2.812 -0.3738 -0.1072 -0.2905
10077TIP3    H154426   1.478   5.416   2.822  0.4079  0.1456 -0.2703
10077TIP3    H254427   1.500   5.556   2.875 -1.3597  0.2498  0.2639
10078TIP3   OH254428   4.225   6.906   2.952  0.0144  0.1877 -0.2473
10078TIP3    H154429   4.308   6.861   2.968  0.0336  0.6204  1.0627
10078TIP3    H254430   4.244   6.998   2.972 -0.5472  0.4440 -0.8569
10079TIP3   OH254431   4.805   5.092   1.416 -0.1753 -0.0773 -0.0165
10079TIP3    H154432   4.862   5.070   1.342 -0.8595 -0.0740 -0.5594
10079TIP3    H254433   4.718   5.064   1.388 -0.7861  1.6763 -0.0248
10080TIP3   OH254434   1.190   7.372   0.724 -0.2636  0.2176 -0.4132
10080TIP3    H154435   1.193   7.352   0.631 -0.0444  0.6818 -0.5106
10080TIP3    H254436   1.201   7.467   0.728  2.2937 -0.0482  0.2307
10081TIP3   OH254437   6.354   0.275   0.782  0.4045  0.0413 -0.6644
10081TIP3    H154438   6.384   0.365   0.793 -0.2619  0.0388  1.6998
10081TIP3    H254439   6.277   0.282   0.725  0.2776  0.9804 -0.3961
10082TIP3   OH254440   2.645   2.618   1.407 -0.1377 -0.1975 -0.4834
10082TIP3    H154441   2.735   2.604   1.438 -0.5501 -1.6865  0.1309
10082TIP3    H254442   2.607   2.678   1.471  0.6116  1.0277 -1.1517
10083TIP3   OH254443   4.113   6.325   2.708  0.6432 -0.1948  0.0780
10083TIP3    H154444   4.154   6.408   2.684 -0.0052 -0.2383 -1.2694
10083TIP3    H254445   4.149   6.305   2.794  0.5193  1.6733  0.6047
10084TIP3   OH254446   1.170   1.815   1.987  0.2495 -0.0593 -0.2456
10084TIP3    H154447   1.156   1.850   1.899  0.6610  0.1904 -0.2171
10084TIP3    H254448   1.251   1.764   1.980 -0.8328 -1.7962 -0.5026
10085TIP3   OH254449   7.259   1.109   1.898 -0.3841 -0.2576  0.4304
10085TIP3    H154450   7.225   1.080   1.983 -1.3354 -1.0423 -0.1921
10085TIP3    H254451   7.284   1.201   1.913  1.0659 -0.8478  1.9798
10086TIP3   OH254452   7.408   2.807   1.406 -0.0492  0.0191  0.0078
10086TIP3    H154453   7.380   2.873   1.342 -1.5353 -0.0367  0.5577
10086TIP3    H254454   7.483   2.847   1.450 -1.8865  2.0978  1.4344
10087TIP3   OH254455   7.204   2.256   0.567  0.6456 -0.4263 -0.0718
10087TIP3    H154456   7.244   2.327   0.616 -0.3762 -1.5171  2.4977
10087TIP3    H254457   7.275   2.193   0.554  0.9136 -0.1511  0.0531
10088TIP3   OH254458   0.217   6.509   0.839  0.2481 -0.9763 -0.0356
10088TIP3    H154459   0.177   6.466   0.763 -0.8107 -0.0191 -0.0565
10088TIP3    H254460   0.261   6.586   0.803 -0.8739 -0.1112  0.3628
10089TIP3   OH254461   6.481   4.705   2.879 -0.4628  0.4910 -0.1490
10089TIP3    H154462   6.555   4.703   2.818  0.2725 -0.8110  0.7381
10089TIP3    H254463   6.519   4.734   2.962 -1.3084  1.5170 -0.0982
10090TIP3   OH254464   4.474   4.501   0.771 -0.3694  0.4601  0.2101
10090TIP3    H154465   4.520   4.475   0.850 -2.3251  0.9936  1.6268
10090TIP3    H254466   4.382   4.478   0.788 -0.7660 -0.0313 -2.1961
10091TIP3   OH254467   1.350   2.642   1.762 -0.0595 -0.3661 -0.2084
10091TIP3    H154468   1.414   2.646   1.833 -0.9019 -3.3132  0.8251
10091TIP3    H254469   1.269   2.615   1.804 -1.9482  2.5647 -1.6132
10092TIP3   OH254470   5.884   6.022   2.526 -0.2928 -0.2737  0.2871
10092TIP3    H154471   5.942   6.094   2.549  1.2049 -1.4134  0.2363
10092TIP3    H254472   5.850   6.045   2.439 -1.3894  1.2497  1.0646
10093TIP3   OH254473   0.079   4.010   2.331 -0.7544  0.6431 -0.1059
10093TIP3    H154474   0.098   4.004   2.238 -0.0385 -0.7107  0.0985
10093TIP3    H254475   0.043   3.924   2.354 -0.0212  0.6204  1.0368
10094TIP3   OH254476   7.158   1.988   0.666  0.0287  0.1216 -0.6889
10094TIP3    H154477   7.080   2.013   0.617  0.4548  1.1022 -0.8880
10094TIP3    H254478   7.231   2.004   0.606  0.6351  2.0659  0.4509
10095TIP3   OH254479   2.675   3.406   2.852  0.2726 -0.3509 -0.0017
10095TIP3    H154480   2.680   3.312   2.835 -0.3848 -0.7653  1.8729
10095TIP3    H254481   2.754   3.425   2.903 -0.2288 -0.1685  0.7255
10096TIP3   OH254482   6.761   1.102   1.765 -0.1193  0.2325 -0.0976
10096TIP3    H154483   6.812   1.104   1.846 -0.3807 -1.4450  0.1565
10096TIP3    H254484   6.714   1.185   1.763  0.4804  0.6202  1.0724
10097TIP3   OH254485   4.869   2.394   1.570 -0.0791 -0.8561 -0.8354
10097TIP3    H154486   4.909   2.457   1.631  0.9181 -1.7497 -0.5426
10097TIP3    H254487   4.842   2.321   1.626 -0.7580 -0.9279 -1.2473
10098TIP3   OH254488   2.905   5.033   3.069 -0.5571 -0.3113  0.7417
10098TIP3    H154489   2.968   5.030   2.996 -1.8060 -0.1613 -0.3865
10098TIP3    H254490   2.888   4.942   3.090 -0.4605 -0.3672  0.5828
10099TIP3   OH254491   6.490   3.046   0.880 -0.2403  0.1394 -0.7467
10099TIP3    H154492   6.554   3.113   0.906  0.4992 -0.5917 -0.6159
10099TIP3    H254493   6.543   2.968   0.864 -1.1948 -0.7678  0.3267
10100TIP3   OH254494   1.745   1.121   1.119 -0.6024  0.1479  0.0133
10100TIP3    H154495   1.651   1.109   1.103 -0.8774  1.2746  0.6203
10100TIP3    H254496   1.760   1.076   1.203 -0.6621  0.1878  0.0460
10101TIP3   OH254497   4.341   0.668   0.490 -0.7952  0.1602 -0.0178
10101TIP3    H154498   4.375   0.613   0.561 -0.7274  0.2507  0.0197
10101TIP3    H254499   4.302   0.606   0.429  0.5210 -0.0813 -0.6665
10102TIP3   OH254500   0.183   2.185   3.019 -0.6131  0.2753 -0.7594
10102TIP3    H154501   0.136   2.124   3.076 -3.1756  1.6474 -1.2637
10102TIP3    H254502   0.138   2.269   3.030 -0.0957  1.0102 -3.4727
10103TIP3   OH254503   6.587   3.685   1.506 -0.5324 -0.0466 -0.2054
10103TIP3    H154504   6.665   3.687   1.450  0.3288 -0.8721  0.9171
10103TIP3    H254505   6.548   3.600   1.489 -1.4350  0.5185 -1.0530
10104TIP3   OH254506   1.875   7.048   0.943 -0.1087  0.0615  0.3919
10104TIP3    H154507   1.849   7.101   1.018 -2.1523  1.4219 -1.1626
10104TIP3    H254508   1.795   7.041   0.890  0.9502 -1.8453 -1.0854
10105TIP3   OH254509   2.632   2.417   0.447 -0.1560  0.4749 -0.0529
10105TIP3    H154510   2.580   2.409   0.527  2.1827 -2.2983  1.3550
10105TIP3    H254511   2.650   2.511   0.439 -1.6272  0.9699  1.8569
10106TIP3   OH254512   3.255   2.174   0.556  0.3031 -0.6236 -0.4350
10106TIP3    H154513   3.225   2.190   0.646  2.2407  0.1212  0.1305
10106TIP3    H254514   3.214   2.243   0.504 -0.8737 -1.0903 -0.1693
10107TIP3   OH254515   5.082   0.274   1.354 -0.6005 -0.3857 -0.4915
10107TIP3    H154516   4.989   0.254   1.356 -0.9247  0.9457 -1.2867
10107TIP3    H254517   5.102   0.291   1.262  0.0854  0.7868 -0.1582
10108TIP3   OH254518   1.734   0.339   0.938 -0.0832  0.2948  0.1592
10108TIP3    H154519   1.759   0.402   1.005 -0.8576  1.1356 -0.3162
10108TIP3    H254520   1.647   0.368   0.910 -0.1276 -0.5427 -0.6027
10109TIP3   OH254521   1.093   6.219   0.780  0.1267 -0.0821  0.1414
10109TIP3    H154522   1.180   6.191   0.808 -0.0049  0.5984  1.3112
10109TIP3    H254523   1.075   6.168   0.702  0.7769 -1.6472  0.9764
10110TIP3   OH254524   1.128   5.196   1.074 -0.2318  0.2040 -0.3192
10110TIP3    H154525   1.176   5.217   1.154 -0.6046 -1.8265  0.5061
10110TIP3    H254526   1.173   5.244   1.005 -0.1460  2.3304  1.1324
10111TIP3   OH254527   2.843   4.620   1.915 -0.0057  0.2768 -0.1995
10111TIP3    H154528   2.849   4.682   1.988  1.8334 -1.8083  1.5856
10111TIP3    H254529   2.865   4.536   1.954 -1.4135 -1.3780 -2.7141
10112TIP3   OH254530   2.964   0.607   3.033 -0.5003 -0.2655 -1.1007
10112TIP3    H154531   3.046   0.628   2.987 -0.4777  1.0078 -0.5432
10112TIP3    H254532   2.978   0.519   3.068  1.5725  0.6949  0.8419
10113TIP3   OH254533   0.358   3.166   2.259  0.1494  0.4178  0.5199
10113TIP3    H154534   0.318   3.240   2.305 -2.1290  0.4137 -1.2271
10113TIP3    H254535   0.425   3.206   2.203  0.1153  0.9326  0.8437
10114TIP3   OH254536   3.089   2.609   0.720  0.8663 -0.0743 -0.2495
10114TIP3    H154537   3.125   2.679   0.666 -0.9660 -0.4358 -2.0175
10114TIP3    H254538   3.071   2.538   0.659  0.0199 -1.0182  1.0538
10115TIP3   OH254539   1.919   7.514   3.453  0.1890 -0.0073  0.0095
10115TIP3    H154540   1.910   7.421   3.475  2.1127  0.0894  1.4046
10115TIP3    H254541   1.928   7.515   3.357 -2.0383 -1.0109 -0.2697
10116TIP3   OH254542   6.348   1.435   1.553 -0.0686 -0.1999 -0.0024
10116TIP3    H154543   6.346   1.531   1.550 -0.5237 -0.1691  0.9795
10116TIP3    H254544   6.414   1.411   1.488  2.6808  0.9179  2.1467
10117TIP3   OH254545   2.309   2.044   2.366  0.5865  0.3335  0.0076
10117TIP3    H154546   2.315   2.053   2.271  1.2275 -0.5004 -0.0437
10117TIP3    H254547   2.340   2.128   2.401 -0.0716  0.8007 -0.5189
10118TIP3   OH254548   4.870   6.275   1.217 -0.2684  0.0133 -0.1417
10118TIP3    H154549   4.942   6.229   1.259 -0.8548 -1.5363 -0.7672
10118TIP3    H254550   4.907   6.360   1.193  0.9586 -0.2552  0.6992
10119TIP3   OH254551   2.438   6.770   1.022  0.5009  0.0380 -0.7024
10119TIP3    H154552   2.352   6.776   0.981  0.0936 -1.2729 -0.0929
10119TIP3    H254553   2.491   6.721   0.960  0.0101 -1.5548  0.0976
10120TIP3   OH254554   0.438   0.722   0.458  0.3725 -0.1789  0.1824
10120TIP3    H154555   0.480   0.640   0.433  0.4031 -0.2328  0.4080
10120TIP3    H254556   0.372   0.697   0.522 -0.6013 -0.2062 -0.7916
10121TIP3   OH254557   3.880   5.225   0.822 -0.2294 -0.2492 -0.2871
10121TIP3    H154558   3.795   5.182   0.814  0.1801 -1.1258  0.0297
10121TIP3    H254559   3.924   5.180   0.894  0.3535  0.4554 -0.1866
10122TIP3   OH254560   6.636   5.939   2.071 -0.3064  0.2059  0.0458
10122TIP3    H154561   6.570   5.988   2.023 -0.4806 -2.4890 -2.8064
10122TIP3    H254562   6.610   5.946   2.163 -3.6361  0.5838 -0.8113
10123TIP3   OH254563   0.181   1.239   2.264  0.2745 -0.2501 -0.0145
10123TIP3    H154564   0.114   1.293   2.307  0.4292 -0.9031  1.0620
10123TIP3    H254565   0.225   1.300   2.204 -0.3213  0.5398  0.3269
10124TIP3   OH254566   0.960   3.462   1.663  0.0502  0.4013  0.3980
10124TIP3    H154567   1.052   3.445   1.641  0.8077 -0.5859  3.7328
10124TIP3    H254568   0.960   3.547   1.707 -0.8075  0.7946 -0.3265
10125TIP3   OH254569   1.872   1.951   0.566 -0.5442  0.0931  0.1676
10125TIP3    H154570   1.821   1.994   0.496 -0.6791 -1.2887 -0.6123
10125TIP3    H254571   1.890   2.021   0.628 -0.2790  1.4269 -1.3321
10126TIP3   OH254572   3.447   4.552   2.476  0.2425  0.0092 -0.2470
10126TIP3    H154573   3.479   4.579   2.563 -0.7799 -0.7825  0.4047
10126TIP3    H254574   3.514   4.581   2.415  2.1962 -1.5442  1.0417
10127TIP3   OH254575   1.446   7.239   1.287  0.2737  0.2022  0.0355
10127TIP3    H154576   1.427   7.145   1.275 -0.2289  0.1638  1.0408
10127TIP3    H254577   1.362   7.282   1.271  0.4212  0.4478 -0.0714
10128TIP3   OH254578   0.801   6.097   3.267  0.6834 -0.3302  0.4796
10128TIP3    H154579   0.775   6.045   3.343  0.0382  0.4560  0.8137
10128TIP3    H254580   0.769   6.048   3.192 -0.5685 -0.0797  0.8233
10129TIP3   OH254581   7.362   6.904   0.749  0.2971  0.5942  0.0543
10129TIP3    H154582   7.316   6.821   0.737  1.9730 -0.2156 -1.3548
10129TIP3    H254583   7.418   6.911   0.671  0.3867  2.9445  0.2714
10130TIP3   OH254584   5.160   2.934   0.613  0.3393 -0.2662 -0.5883
10130TIP3    H154585   5.133   2.983   0.536 -2.2462  0.8462  0.8854
10130TIP3    H254586   5.232   2.986   0.651 -0.7630  1.1570 -0.3549
10131TIP3   OH254587   2.821   1.590   2.544 -0.1352 -0.4039  0.3723
10131TIP3    H154588   2.743   1.544   2.574  0.2886 -0.4494  1.4786
10131TIP3    H254589   2.840   1.553   2.458 -0.5997 -1.3088  0.6482
10132TIP3   OH254590   0.927   1.473   1.661  0.1245  0.0374  0.4724
10132TIP3    H154591   0.859   1.540   1.648  0.9998  0.8995  0.2030
10132TIP3    H254592   0.960   1.490   1.749  0.3207 -0.0649  0.4182
10133TIP3   OH254593   4.129   6.446   0.675  0.1316  0.3695 -0.1511
10133TIP3    H154594   4.192   6.449   0.602  0.4023 -2.0989 -0.1153
10133TIP3    H254595   4.081   6.529   0.669  1.2128  0.9218 -2.1600
10134TIP3   OH254596   3.482   0.087   3.170  0.8035  0.5418 -0.3258
10134TIP3    H154597   3.411   0.124   3.116  1.2738  0.2812 -1.1369
10134TIP3    H254598   3.518   0.016   3.117  1.6911  0.6828  0.0729
10135TIP3   OH254599   1.452   6.450   3.468 -0.6376 -0.0604  0.1535
10135TIP3    H154600   1.373   6.398   3.453 -0.2525 -0.9834  1.1614
10135TIP3    H254601   1.515   6.416   3.405 -1.0565  0.7611 -0.7362
10136TIP3   OH254602   4.050   1.602   0.508 -0.3379 -0.0313 -0.0117
10136TIP3    H154603   4.140   1.607   0.476 -0.8195  0.7755 -1.3064
10136TIP3    H254604   4.027   1.692   0.529 -1.0159 -0.1751 -0.1402
10137TIP3   OH254605   2.283   0.616   2.505 -0.1280 -0.3449  0.0076
10137TIP3    H154606   2.276   0.685   2.572  0.0029 -1.5988  1.3468
10137TIP3    H254607   2.193   0.587   2.492  0.1249 -2.4008  2.1785
10138TIP3   OH254608   1.549   3.500   2.203 -0.3488 -0.4475 -0.0155
10138TIP3    H154609   1.589   3.421   2.167 -0.8788 -0.9992  0.5678
10138TIP3    H254610   1.481   3.524   2.140 -0.0988 -0.3826 -0.2594
10139TIP3   OH254611   4.260   1.785   0.652 -0.6389 -0.3258  0.5854
10139TIP3    H154612   4.182   1.840   0.652 -1.4698 -1.4678  1.2411
10139TIP3    H254613   4.269   1.754   0.562 -0.0217  1.0345  0.1494
10140TIP3   OH254614   4.949   3.784   1.934 -0.2357  0.1635 -0.5228
10140TIP3    H154615   5.003   3.823   1.866 -0.7193  2.1835  0.2024
10140TIP3    H254616   4.970   3.690   1.930  0.6738  0.3979 -2.5834
10141TIP3   OH254617   0.869   5.890   1.489 -0.4098  0.4870 -0.0527
10141TIP3    H154618   0.901   5.977   1.514  2.0684 -0.1096 -0.7945
10141TIP3    H254619   0.880   5.886   1.394  0.4285 -0.9030  0.0584
10142TIP3   OH254620   1.947   3.205   1.721 -0.3265  0.1491 -0.0321
10142TIP3    H154621   1.948   3.109   1.726 -0.1247  0.1393 -0.2347
10142TIP3    H254622   1.893   3.232   1.795  1.3879 -0.0336  1.3728
10143TIP3   OH254623   6.799   6.449   2.516 -0.6747  0.4048  0.5718
10143TIP3    H154624   6.769   6.536   2.543 -0.2452  0.4328  0.9608
10143TIP3    H254625   6.891   6.445   2.543 -0.4000  0.2106 -0.3558
10144TIP3   OH254626   5.627   0.672   0.505 -0.6168 -0.4216  0.4898
10144TIP3    H154627   5.558   0.736   0.520  0.8902  0.9537  1.9101
10144TIP3    H254628   5.594   0.591   0.543 -2.1934 -0.3242 -0.5672
10145TIP3   OH254629   5.922   3.739   1.823 -0.2936 -0.3897 -0.2796
10145TIP3    H154630   5.845   3.767   1.773  0.4002  0.5611 -0.8452
10145TIP3    H254631   5.896   3.750   1.914 -1.9012 -2.9913 -0.2947
10146TIP3   OH254632   7.109   6.859   2.994  0.0445  0.1215 -0.2895
10146TIP3    H154633   7.092   6.864   2.900 -0.0250  1.0754 -0.2320
10146TIP3    H254634   7.021   6.854   3.033  0.0900 -2.1839 -0.3463
10147TIP3   OH254635   1.372   7.177   2.342 -0.1984 -0.3836  0.4715
10147TIP3    H154636   1.356   7.269   2.320 -1.3351 -0.2738  1.6252
10147TIP3    H254637   1.336   7.127   2.269 -0.7770  0.0484  0.4623
10148TIP3   OH254638   3.659   3.914   1.772 -0.0010  0.0262 -0.6080
10148TIP3    H154639   3.698   3.917   1.685  0.0654  0.1846 -0.5738
10148TIP3    H254640   3.710   3.848   1.819  2.4655  2.5363  0.4914
10149TIP3   OH254641   0.117   2.527   3.019  0.4463 -0.0383  0.3093
10149TIP3    H154642   0.199   2.478   3.014  0.4061  0.0375 -2.1990
10149TIP3    H254643   0.127   2.596   2.954 -1.2987  0.4941  0.5624
10150TIP3   OH254644   0.253   1.448   2.104 -0.9072 -0.4786  0.3113
10150TIP3    H154645   0.232   1.477   2.015  0.7356 -0.6099 -0.1433
10150TIP3    H254646   0.327   1.502   2.130 -0.0043 -1.8888  0.7636
10151TIP3   OH254647   3.759   2.822   2.211 -0.5447  0.1005  0.4783
10151TIP3    H154648   3.812   2.877   2.153 -0.9616 -0.4023 -0.4111
10151TIP3    H254649   3.675   2.867   2.215 -0.6191 -0.0358  0.4317
10152TIP3   OH254650   6.864   5.869   1.578  0.3155  0.3881  0.8156
10152TIP3    H154651   6.913   5.829   1.649 -1.2607 -1.0890  1.1615
10152TIP3    H254652   6.772   5.860   1.604 -0.3099 -0.1398 -1.3447
10153TIP3   OH254653   7.172   6.186   2.728 -0.8501 -0.2637 -0.6864
10153TIP3    H154654   7.268   6.190   2.734 -0.8758 -0.8754  0.3269
10153TIP3    H254655   7.146   6.131   2.802 -2.0299  0.3748 -0.6155
10154TIP3   OH254656   0.920   5.466   0.506  0.0215  0.1280  0.1419
10154TIP3    H154657   0.830   5.457   0.537 -0.0749  1.3538  0.2703
10154TIP3    H254658   0.929   5.398   0.438 -0.8810 -0.2266  0.3649
10155TIP3   OH254659   3.063   5.995   0.911  0.1245 -0.6388 -0.2008
10155TIP3    H154660   3.151   5.960   0.927 -0.3501 -1.5793  0.4489
10155TIP3    H254661   3.021   5.929   0.856  0.7298  1.1361 -2.9933
10156TIP3   OH254662   0.021   0.547   1.586  0.1601  0.1558 -0.4545
10156TIP3    H154663   0.013   0.452   1.572  0.6040  0.1549 -0.7359
10156TIP3    H254664  -0.047   0.568   1.649  1.4915 -0.7536  1.3888
10157TIP3   OH254665   2.242   0.726   1.382  0.0940 -0.7654 -0.1008
10157TIP3    H154666   2.186   0.790   1.427 -0.9106 -2.1514  0.6723
10157TIP3    H254667   2.329   0.741   1.420 -0.4626 -0.9688  1.3181
10158TIP3   OH254668   3.739   0.224   1.593  0.6192 -0.3077 -1.2224
10158TIP3    H154669   3.735   0.129   1.600 -1.5612 -0.1367  1.1011
10158TIP3    H254670   3.794   0.252   1.666  0.1705  0.2541 -1.0883
10159TIP3   OH254671   6.937   7.117   2.083  0.3240  0.1939  0.0380
10159TIP3    H154672   6.960   7.039   2.033 -0.4570 -0.3683  0.5261
10159TIP3    H254673   7.015   7.136   2.134  1.0145  0.5826 -1.1318
10160TIP3   OH254674   2.799   2.248   2.016 -0.0607 -0.2655 -0.0992
10160TIP3    H154675   2.892   2.242   2.038 -0.1134  0.4502  0.3822
10160TIP3    H254676   2.789   2.336   1.980 -0.3906 -0.6602 -0.9765
10161TIP3   OH254677   2.802   3.512   2.141  0.2027 -0.2130  0.2007
10161TIP3    H154678   2.785   3.448   2.071  1.3544 -0.5969  0.2549
10161TIP3    H254679   2.742   3.585   2.121 -1.2292 -1.3317  0.2123
10162TIP3   OH254680   4.832   5.492   1.385 -0.1349 -0.2253 -0.8315
10162TIP3    H154681   4.827   5.525   1.475 -0.2589 -1.6778 -0.2801
10162TIP3    H254682   4.747   5.450   1.370 -1.3006  2.4333 -2.6842
10163TIP3   OH254683   1.759   5.906   0.776  0.4987 -0.4575 -0.2089
10163TIP3    H154684   1.703   5.889   0.852  1.5039 -0.0502  0.6487
10163TIP3    H254685   1.770   6.001   0.775 -1.1039 -0.2385 -2.0639
10164TIP3   OH254686   7.064   0.959   1.735  0.3527  0.5647  0.1444
10164TIP3    H154687   6.990   0.986   1.789  1.0555  2.3435  0.2578
10164TIP3    H254688   7.141   0.983   1.786  1.1000 -2.3750  0.5997
10165TIP3   OH254689   6.304   6.327   0.610 -0.1815  0.0105 -0.3970
10165TIP3    H154690   6.387   6.343   0.566  0.2659  0.5029  0.5979
10165TIP3    H254691   6.313   6.369   0.695 -1.0046 -0.9501  0.1958
10166TIP3   OH254692   2.763   4.429   0.456  0.1273 -0.3917  0.5073
10166TIP3    H154693   2.800   4.516   0.467  1.3012 -0.7558 -0.3512
10166TIP3    H254694   2.680   4.444   0.411 -0.5635  0.4006  1.9830
10167TIP3   OH254695   2.238   1.008   3.088 -0.0786 -0.7097  0.0900
10167TIP3    H154696   2.309   0.975   3.144  0.9421 -0.1319 -0.8404
10167TIP3    H254697   2.271   1.090   3.052 -1.8350  0.4019  0.8567
10168TIP3   OH254698   0.179   1.194   0.380 -0.1064 -0.9873  0.1160
10168TIP3    H154699   0.203   1.135   0.309  1.8355 -0.7548  0.5450
10168TIP3    H254700   0.191   1.142   0.460 -1.6355 -1.0378  0.3439
10169TIP3   OH254701   3.581   4.576   0.360  0.0607  0.3425  0.3065
10169TIP3    H154702   3.619   4.519   0.293  0.0781 -2.2362  2.3888
10169TIP3    H254703   3.493   4.541   0.374 -0.5212  1.8274  0.6091
10170TIP3   OH254704   3.478   2.356   1.844  0.3089 -0.0120 -0.4333
10170TIP3    H154705   3.469   2.272   1.800  0.2426 -0.4951  0.4838
10170TIP3    H254706   3.413   2.354   1.914  0.0589  0.9553 -0.6260
10171TIP3   OH254707   1.017   2.412   1.148 -0.6422  0.7249  0.0695
10171TIP3    H154708   1.112   2.424   1.143 -0.7037  1.0452 -0.4278
10171TIP3    H254709   0.994   2.368   1.066 -0.7196 -0.8191  0.8796
10172TIP3   OH254710   3.127   6.246   2.067 -0.4882 -0.7630 -0.1393
10172TIP3    H154711   3.065   6.307   2.028 -1.2339 -0.3960  1.5174
10172TIP3    H254712   3.164   6.198   1.993 -0.2935  1.2953 -1.4365
10173TIP3   OH254713   3.576   0.576   3.693 -0.2345 -0.0417 -0.8185
10173TIP3    H154714   3.485   0.557   3.717 -0.4585  1.7637 -0.1343
10173TIP3    H254715   3.590   0.526   3.612 -1.8217 -0.3431 -0.9422
10174TIP3   OH254716   0.547   5.250   1.560 -0.4598 -0.8466 -0.3707
10174TIP3    H154717   0.498   5.329   1.536 -1.3005 -1.8492 -2.1637
10174TIP3    H254718   0.507   5.221   1.642  1.3175  1.7152  1.5683
10175TIP3   OH254719   0.592   5.388   2.817 -0.7692 -0.1188 -0.3042
10175TIP3    H154720   0.651   5.316   2.799 -2.2684 -0.9891 -2.0757
10175TIP3    H254721   0.609   5.411   2.909  0.5479 -1.9362 -0.0431
10176TIP3   OH254722   6.852   2.043   0.676  0.1079 -0.3411  0.0025
10176TIP3    H154723   6.759   2.064   0.664  0.3143  1.0631  0.6932
10176TIP3    H254724   6.890   2.056   0.589 -0.0917  0.5054  0.0311
10177TIP3   OH254725   5.889   3.806   1.278 -0.3468 -0.9130  0.2916
10177TIP3    H154726   5.869   3.820   1.371  0.7701 -1.3221  0.6097
10177TIP3    H254727   5.803   3.802   1.236 -0.8639 -0.1431  1.2103
10178TIP3   OH254728   1.029   2.173   2.359 -0.1842  0.3846 -0.0710
10178TIP3    H154729   1.020   2.104   2.293 -1.3431 -1.2347  1.6845
10178TIP3    H254730   1.110   2.150   2.405  1.8211  2.7202 -2.1511
10179TIP3   OH254731   4.477   0.530   1.325  0.0951  0.2798  0.1848
10179TIP3    H154732   4.484   0.625   1.337  1.7893  0.2448 -0.2952
10179TIP3    H254733   4.563   0.503   1.295 -0.3742 -1.4262  0.2640
10180TIP3   OH254734   2.588   0.674   1.176 -0.1648  0.4902  0.0644
10180TIP3    H154735   2.621   0.746   1.122 -1.0228 -0.2574 -1.5301
10180TIP3    H254736   2.577   0.713   1.263  2.0210  1.5254 -0.0455
10181TIP3   OH254737   1.120   3.117   1.596  0.1104 -0.0092 -0.0141
10181TIP3    H154738   1.080   3.087   1.514  0.1393 -0.6953  0.2139
10181TIP3    H254739   1.047   3.128   1.656  0.1317  0.0670 -0.0021
10182TIP3   OH254740   5.876   2.896   1.883  0.5503  0.1983  0.1488
10182TIP3    H154741   5.869   2.990   1.897  1.2728  0.3762 -0.6181
10182TIP3    H254742   5.910   2.887   1.794 -0.4411 -0.8097 -0.1652
10183TIP3   OH254743   4.705   6.603   2.147 -0.0206 -0.1983 -0.8134
10183TIP3    H154744   4.675   6.639   2.231 -1.0881  1.5480 -1.8992
10183TIP3    H254745   4.758   6.672   2.108 -0.7177 -0.4135 -2.1977
10184TIP3   OH254746   6.383   5.878   1.090 -0.0773  0.3074 -0.0446
10184TIP3    H154747   6.326   5.955   1.093 -1.6841 -0.8282  0.0290
10184TIP3    H254748   6.453   5.897   1.153 -1.1273  1.2112  0.8950
10185TIP3   OH254749   1.461   1.626   2.983  0.3147  0.2178  0.4747
10185TIP3    H154750   1.528   1.614   2.915  0.4829 -1.8921  0.9572
10185TIP3    H254751   1.511   1.651   3.061  0.0934  2.9977 -0.1556
10186TIP3   OH254752   1.089   5.988   2.453 -0.5796 -0.7563  0.3742
10186TIP3    H154753   1.143   6.007   2.529 -1.5548 -1.7987  1.3614
10186TIP3    H254754   1.042   6.070   2.436 -1.3970 -0.8978  1.7864
10187TIP3   OH254755   6.483   2.836   0.589  0.1840 -0.5158 -0.1535
10187TIP3    H154756   6.544   2.888   0.537 -1.9503  0.4049 -1.8654
10187TIP3    H254757   6.532   2.815   0.669  2.5313  0.5897 -1.2075
10188TIP3   OH254758   7.477   1.368   2.365 -0.9700  0.0714  0.2147
10188TIP3    H154759   7.466   1.418   2.284 -0.8683  1.2025  0.8771
10188TIP3    H254760   7.406   1.304   2.364 -0.7977 -0.1177 -0.8999
10189TIP3   OH254761   4.024   4.860   2.906 -0.0986 -0.4081 -0.3281
10189TIP3    H154762   4.082   4.801   2.953 -1.0206 -0.8206  0.3255
10189TIP3    H254763   3.972   4.903   2.975  0.0325  0.5997 -0.8379
10190TIP3   OH254764   0.919   1.075   2.371 -0.2419  1.1695  0.2050
10190TIP3    H154765   0.998   1.041   2.412  0.0494  0.2245 -1.1091
10190TIP3    H254766   0.950   1.126   2.296 -0.8822 -1.1968 -1.7931
10191TIP3   OH254767   3.180   7.057   2.317  0.2057  0.2343  0.9836
10191TIP3    H154768   3.276   7.051   2.311  0.1235 -0.5465  0.1832
10191TIP3    H254769   3.154   7.097   2.234 -0.3055 -1.6361  0.1890
10192TIP3   OH254770   3.251   0.509   2.397 -1.1107  0.2871  0.7202
10192TIP3    H154771   3.211   0.491   2.312 -0.6035  0.7077  0.3897
10192TIP3    H254772   3.225   0.598   2.418  2.5621  2.0457 -1.2342
10193TIP3   OH254773   7.280   4.513   0.953  0.4458  0.0784  0.1596
10193TIP3    H154774   7.226   4.516   1.032  1.1283 -0.7927  0.6795
10193TIP3    H254775   7.252   4.433   0.908  0.6082  0.1537 -0.0768
10194TIP3   OH254776   1.715   4.741   0.610 -0.0660  0.2764  0.1182
10194TIP3    H154777   1.703   4.717   0.518 -0.1107 -0.2048  0.2482
10194TIP3    H254778   1.653   4.812   0.625  1.4602  1.8664 -0.8035
10195TIP3   OH254779   1.162   0.029   2.092  0.0219 -0.0176  0.1497
10195TIP3    H154780   1.164   0.026   1.996 -0.1611 -1.3724  0.1731
10195TIP3    H254781   1.200   0.114   2.114 -0.9447  0.7880 -1.1513
10196TIP3   OH254782   6.910   3.036   2.765  0.1094 -0.0144  0.4217
10196TIP3    H154783   6.870   3.113   2.724  0.2426  0.5068  1.2467
10196TIP3    H254784   6.837   2.976   2.779 -0.1748  0.3928  0.7120
10197TIP3   OH254785   7.228   1.393   1.952 -0.3490 -0.3169  0.2689
10197TIP3    H154786   7.174   1.470   1.938 -1.5418 -1.0362  0.7349
10197TIP3    H254787   7.197   1.356   2.035  0.6226 -0.9589  0.3694
10198TIP3   OH254788   6.523   1.658   2.590  0.4464  0.0451  0.8671
10198TIP3    H154789   6.574   1.710   2.651 -0.5589 -0.6746  2.3830
10198TIP3    H254790   6.461   1.719   2.551  1.2008  0.5394  0.4197
10199TIP3   OH254791   3.749   1.969   0.820 -0.0894 -0.0637 -0.2269
10199TIP3    H154792   3.771   2.047   0.872 -0.2585  0.4199 -0.8697
10199TIP3    H254793   3.666   1.991   0.778  1.0385  0.3916 -2.3456
10200TIP3   OH254794   7.377   4.891   2.892  0.3258  0.0363 -0.0421
10200TIP3    H154795   7.449   4.829   2.879 -0.2276 -0.3334 -1.6055
10200TIP3    H254796   7.382   4.915   2.984  1.6415 -0.9836  0.1815
10201TIP3   OH254797   2.247   7.142   0.424 -0.3571  0.2262  0.2244
10201TIP3    H154798   2.186   7.148   0.351 -0.1050  0.7311  0.0531
10201TIP3    H254799   2.229   7.056   0.463  0.1244 -0.4430 -0.9832
10202TIP3   OH254800   5.824   5.138   2.197 -0.4332 -0.1729  0.6945
10202TIP3    H154801   5.849   5.046   2.203  1.2713  0.2071  0.0214
10202TIP3    H254802   5.839   5.172   2.285  0.6820 -0.1454  0.5035
10203TIP3   OH254803   0.648   6.152   1.986 -0.5770  0.2705 -0.1150
10203TIP3    H154804   0.713   6.099   1.941 -1.4916 -0.6195 -0.4225
10203TIP3    H254805   0.694   6.234   2.006 -0.1398  0.7731 -2.7923
10204TIP3   OH254806   4.738   3.824   1.731  0.2438 -0.2783 -0.6543
10204TIP3    H154807   4.647   3.793   1.732  0.4871 -1.0252 -0.1969
10204TIP3    H254808   4.748   3.873   1.812  0.4398 -0.8075 -0.3521
10205TIP3   OH254809   0.514   1.399   1.128 -0.6031 -0.3702  0.2514
10205TIP3    H154810   0.469   1.326   1.086 -1.6212  0.0506  0.5787
10205TIP3    H254811   0.487   1.394   1.219 -0.8320  0.5202  0.2389
10206TIP3   OH254812   1.189   2.563   0.623 -0.1278 -0.4927  0.2983
10206TIP3    H154813   1.101   2.531   0.601 -0.8333  0.8044  1.0731
10206TIP3    H254814   1.193   2.650   0.582  0.5844 -0.3035  0.7579
10207TIP3   OH254815   1.871   1.304   1.891  0.5150  0.2982  0.4005
10207TIP3    H154816   1.918   1.229   1.928 -0.0387 -0.3954 -0.2613
10207TIP3    H254817   1.898   1.378   1.945  0.4810 -0.5028  1.5533
10208TIP3   OH254818   6.041   0.316   2.510 -0.5721  0.0243  0.0929
10208TIP3    H154819   6.053   0.224   2.486 -1.1529  0.2237 -1.0187
10208TIP3    H254820   5.962   0.343   2.463  0.7515  1.6575 -1.2854
10209TIP3   OH254821   2.267   0.373   3.282 -0.1520  0.8047 -0.5992
10209TIP3    H154822   2.196   0.341   3.337  0.5369  0.0344 -0.1304
10209TIP3    H254823   2.324   0.296   3.269 -0.4898  0.8484 -2.7061
10210TIP3   OH254824   0.895   5.830   1.228  0.2108  0.3313 -0.1468
10210TIP3    H154825   0.828   5.816   1.162 -0.6352 -0.6883  0.9016
10210TIP3    H254826   0.976   5.801   1.186 -0.0864  0.9470 -1.1839
10211TIP3   OH254827   0.834   2.546   1.826 -0.1023 -0.3676 -0.5659
10211TIP3    H154828   0.820   2.532   1.732 -0.2183  0.3537 -0.6628
10211TIP3    H254829   0.750   2.524   1.866 -0.2099 -0.1847 -0.6885
10212TIP3   OH254830   6.013   1.751   1.293 -0.1344  0.3870  0.2866
10212TIP3    H154831   5.968   1.771   1.375 -2.7084 -0.2850 -0.8499
10212TIP3    H254832   6.101   1.723   1.320 -0.2988  1.8834  2.6410
10213TIP3   OH254833   2.423   7.292   1.647  0.2100  0.3735  0.1540
10213TIP3    H154834   2.438   7.259   1.558  1.0433  0.4434  0.2636
10213TIP3    H254835   2.347   7.350   1.638  1.9996  2.6647 -1.1084
10214TIP3   OH254836   1.444   0.780   1.261 -0.2473  0.1831  0.1685
10214TIP3    H154837   1.433   0.870   1.293 -0.9450 -0.1865  0.9892
10214TIP3    H254838   1.378   0.772   1.192 -0.7522  0.0420  0.6617
10215TIP3   OH254839   3.947   0.952   1.385 -0.6220 -0.0688  0.1074
10215TIP3    H154840   3.943   1.016   1.314  1.9576  0.9988  0.8223
10215TIP3    H254841   4.012   0.888   1.356  0.2272  0.2039  1.3549
10216TIP3   OH254842   1.061   0.183   1.328 -0.2340 -0.7733 -0.4719
10216TIP3    H154843   1.149   0.159   1.354  0.8708  2.2320 -1.1321
10216TIP3    H254844   1.016   0.099   1.318  2.6169 -2.4218 -0.4929
10217TIP3   OH254845   6.705   4.948   1.473 -0.2914  0.3343  0.1719
10217TIP3    H154846   6.762   4.876   1.449 -0.0301  0.4422  0.4735
10217TIP3    H254847   6.764   5.023   1.485 -0.3557  0.1639  1.6839
10218TIP3   OH254848   4.226   0.440   0.419  0.4293  0.1043 -0.5386
10218TIP3    H154849   4.273   0.362   0.447 -0.4284 -0.3340 -0.2944
10218TIP3    H254850   4.134   0.420   0.435  0.1917  1.1365 -0.5464
10219TIP3   OH254851   4.356   6.249   2.191  0.1666 -0.2008 -0.1286
10219TIP3    H154852   4.349   6.329   2.138 -2.6149  0.2902  0.8217
10219TIP3    H254853   4.433   6.204   2.156  1.3167  2.4468 -1.2817
10220TIP3   OH254854   2.607   3.009   3.957  0.0230  0.2692 -0.0208
10220TIP3    H154855   2.529   3.062   3.940  0.6268  1.0904 -0.3014
10220TIP3    H254856   2.589   2.968   4.042 -0.7110  0.4516 -0.0796
10221TIP3   OH254857   3.312   5.131   1.209 -0.3599 -0.0223 -0.3262
10221TIP3    H154858   3.305   5.227   1.209 -0.1024  0.0016 -0.7822
10221TIP3    H254859   3.376   5.113   1.140  0.6460 -0.4454  0.6839
10222TIP3   OH254860   4.576   0.230   1.100 -0.4281  0.3933 -0.2207
10222TIP3    H154861   4.500   0.215   1.156  0.6921  0.0304  1.2638
10222TIP3    H254862   4.571   0.161   1.033 -1.8178  0.8742 -0.6457
10223TIP3   OH254863   3.778   1.822   3.099  0.2405  0.3934  0.4612
10223TIP3    H154864   3.807   1.740   3.138  0.2763  0.0261 -0.3263
10223TIP3    H254865   3.853   1.881   3.109  0.7434 -0.1076 -0.2527
10224TIP3   OH254866   1.013   5.931   3.422 -0.3581 -0.1363 -0.7731
10224TIP3    H154867   0.972   5.857   3.377 -2.1570 -2.9076  4.5414
10224TIP3    H254868   1.092   5.895   3.461 -0.8503  0.8479  1.2865
10225TIP3   OH254869   2.830   5.981   2.110  0.0769 -0.5101  0.0166
10225TIP3    H154870   2.842   6.076   2.114 -0.8016 -0.3263 -1.1835
10225TIP3    H254871   2.771   5.968   2.036 -1.7208 -1.8235  1.5830
10226TIP3   OH254872   1.248   3.608   3.496 -0.5513  0.2804 -0.1498
10226TIP3    H154873   1.234   3.516   3.473  0.6047  0.3964 -1.4932
10226TIP3    H254874   1.343   3.620   3.489 -0.8402  2.1198 -2.4585
10227TIP3   OH254875   6.776   0.357   1.900  0.1130 -0.2477  0.0710
10227TIP3    H154876   6.711   0.359   1.830 -1.0074 -0.0400  1.0807
10227TIP3    H254877   6.787   0.448   1.925  0.0639 -0.3738  0.5577
10228TIP3   OH254878   1.046   3.986   0.949  0.3795  0.0637 -0.5694
10228TIP3    H154879   0.987   3.946   0.886 -0.5144  1.4306 -0.6197
10228TIP3    H254880   1.043   4.079   0.930 -0.4095  0.6060  1.8600
10229TIP3   OH254881   2.459   5.394   2.235  0.0203 -0.0130 -0.4447
10229TIP3    H154882   2.510   5.428   2.309  1.0752  0.5459 -1.4147
10229TIP3    H254883   2.416   5.470   2.197 -0.3837 -0.2749 -0.5268
10230TIP3   OH254884   1.336   7.120   0.704 -0.2886  0.5066  0.0711
10230TIP3    H154885   1.295   7.178   0.639 -1.2744 -1.3826 -1.0837
10230TIP3    H254886   1.362   7.179   0.775 -3.8271  2.0396  0.2882
10231TIP3   OH254887   5.831   7.460   1.566 -0.3223  0.2771  0.2625
10231TIP3    H154888   5.894   7.451   1.494 -0.7189 -1.3765  0.0761
10231TIP3    H254889   5.883   7.496   1.638  0.8895 -1.1573  0.1575
10232TIP3   OH254890   3.138   7.152   3.330  0.1634 -0.3113 -0.0031
10232TIP3    H154891   3.220   7.115   3.297  1.2624 -0.3132  2.5098
10232TIP3    H254892   3.080   7.077   3.341  0.7040 -0.6671  0.5070
10233TIP3   OH254893   0.452   3.419   3.132  0.4857  1.3586  0.0766
10233TIP3    H154894   0.360   3.427   3.107  0.1249 -0.9933  0.4541
10233TIP3    H254895   0.471   3.499   3.180 -1.9814  1.0276  1.7745
10234TIP3   OH254896   7.512   3.648   3.100 -0.4620  0.1167 -0.3496
10234TIP3    H154897   7.540   3.706   3.171  1.8560 -2.2148  0.8102
10234TIP3    H254898   7.429   3.611   3.131 -0.5064  0.6450  0.1840
10235TIP3   OH254899   1.762   4.886   1.073  0.4648 -0.2132 -0.0499
10235TIP3    H154900   1.836   4.825   1.078  0.4911 -0.0808  2.2573
10235TIP3    H254901   1.802   4.972   1.066  0.5158 -0.2362 -0.0413
10236TIP3   OH254902   6.599   0.456   1.633  0.5826  0.2036 -0.1179
10236TIP3    H154903   6.579   0.495   1.548  1.2027 -0.9964 -0.8341
10236TIP3    H254904   6.632   0.529   1.685 -0.7659  1.1665 -0.5506
10237TIP3   OH254905   2.446   2.497   1.752  0.4505  0.7408 -0.5424
10237TIP3    H154906   2.396   2.493   1.833  1.8913 -0.1046  0.3518
10237TIP3    H254907   2.532   2.529   1.779  1.4871 -1.1123 -1.4370
10238TIP3   OH254908   6.184   6.395   1.375 -0.6344 -0.0407  0.2995
10238TIP3    H154909   6.125   6.327   1.406 -0.4326  0.1222  1.0580
10238TIP3    H254910   6.128   6.473   1.366 -0.6017  0.0279  0.6933
10239TIP3   OH254911   0.122   3.733   1.465  0.0492  0.3058 -0.2141
10239TIP3    H154912   0.045   3.679   1.484 -0.2816  1.5290  2.3173
10239TIP3    H254913   0.184   3.673   1.423 -1.1609 -1.4313  0.3703
10240TIP3   OH254914   2.264   0.438   1.430  0.0958  0.0359  0.0467
10240TIP3    H154915   2.251   0.404   1.341  0.8007 -0.6045  0.1834
10240TIP3    H254916   2.248   0.532   1.421 -0.9762 -0.1783 -0.5183
10241TIP3   OH254917   3.972   4.738   2.511  0.2112 -0.0585  0.3525
10241TIP3    H154918   3.917   4.775   2.579 -2.1918 -0.8570 -1.0423
10241TIP3    H254919   4.032   4.809   2.487  1.3545  0.1297  3.4152
10242TIP3   OH254920   6.754   7.460   1.236  0.0656  0.0716 -0.2370
10242TIP3    H154921   6.791   7.497   1.317  0.5921 -1.6442  0.3580
10242TIP3    H254922   6.688   7.524   1.208  0.6118  1.2076  0.9726
10243TIP3   OH254923   2.333   4.412   1.593  0.1137 -0.2942  0.2840
10243TIP3    H154924   2.353   4.498   1.557  0.3420 -0.6767 -0.5478
10243TIP3    H254925   2.395   4.400   1.665  1.1222 -0.3776 -0.5690
10244TIP3   OH254926   0.700   0.581   2.110  0.0741 -0.3248 -0.0110
10244TIP3    H154927   0.716   0.665   2.154  0.9692 -0.2762 -0.4018
10244TIP3    H254928   0.731   0.595   2.020  0.6743 -1.2104  0.0449
10245TIP3   OH254929   3.571   1.075   3.186 -0.0463 -0.4635  0.1816
10245TIP3    H154930   3.639   1.128   3.228  1.2438 -0.3656 -1.9207
10245TIP3    H254931   3.574   0.991   3.233  2.4215 -0.9001 -0.6258
10246TIP3   OH254932   7.137   1.249   2.149  0.4897  0.3557 -0.2928
10246TIP3    H154933   7.130   1.161   2.188 -0.2394 -0.4083 -2.0351
10246TIP3    H254934   7.086   1.305   2.207 -2.3211 -1.1366 -1.1612
10247TIP3   OH254935   3.925   2.297   2.421 -0.3889  0.2587  0.5323
10247TIP3    H154936   3.895   2.383   2.452  0.9137  0.4957  1.2151
10247TIP3    H254937   3.864   2.275   2.350  0.1549  2.4854 -0.7506
10248TIP3   OH254938   6.436   0.529   0.800 -0.1790 -0.5614 -0.0073
10248TIP3    H154939   6.359   0.549   0.748  0.3665 -2.2454 -1.5975
10248TIP3    H254940   6.472   0.614   0.825 -1.6236  0.2583 -0.6280
10249TIP3   OH254941   1.238   4.154   2.764  0.0877 -0.4102  0.3903
10249TIP3    H154942   1.158   4.101   2.758 -0.7058  0.7978 -0.1435
10249TIP3    H254943   1.286   4.135   2.684 -2.2671  2.7932 -2.0747
10250TIP3   OH254944   5.654   2.779   1.993  0.2900 -0.3617 -0.7748
10250TIP3    H154945   5.738   2.808   1.958  0.1119  1.6953  0.3332
10250TIP3    H254946   5.589   2.835   1.951 -0.2095  0.0794  0.5219
10251TIP3   OH254947   3.992   5.636   2.600  0.4847  0.2158  0.0937
10251TIP3    H154948   4.050   5.704   2.566 -0.7862  0.7733 -1.0596
10251TIP3    H254949   3.977   5.578   2.525  0.7050 -0.7571  0.7793
10252TIP3   OH254950   4.354   5.418   1.552 -0.2730  0.1006  0.2693
10252TIP3    H154951   4.333   5.420   1.646  0.9711 -1.2298  0.6165
10252TIP3    H254952   4.308   5.341   1.519  0.4643 -0.2797  0.1133
10253TIP3   OH254953   1.761   3.924   2.765  0.3514  0.0946 -0.3977
10253TIP3    H154954   1.824   3.972   2.820  0.9147  1.7428 -2.3586
10253TIP3    H254955   1.675   3.947   2.803  0.5234  3.4535 -1.6768
10254TIP3   OH254956   1.349   6.232   2.378 -0.0591 -0.3104 -0.4731
10254TIP3    H154957   1.295   6.282   2.317 -0.5737  1.2038  1.1222
10254TIP3    H254958   1.291   6.217   2.453  0.5755 -2.0353 -0.2851
10255TIP3   OH254959   0.174   2.169   1.600  0.3867  0.0743  0.5084
10255TIP3    H154960   0.172   2.090   1.654 -0.0696 -0.0722  0.2839
10255TIP3    H254961   0.086   2.174   1.562  0.7008  0.1580 -0.2311
10256TIP3   OH254962   2.438   0.553   0.647 -0.1550 -0.0156  0.1625
10256TIP3    H154963   2.507   0.572   0.583  0.8967  0.4274  1.4007
10256TIP3    H254964   2.475   0.578   0.731 -1.6899 -0.1587  0.9140
10257TIP3   OH254965   3.288   1.490   1.106 -0.7658  0.4542 -0.3009
10257TIP3    H154966   3.285   1.517   1.198  0.0304  0.5296 -0.2929
10257TIP3    H254967   3.223   1.419   1.101 -2.7823  2.1991 -0.2993
10258TIP3   OH254968   2.904   6.443   3.486 -0.3429  0.2050 -0.1894
10258TIP3    H154969   2.872   6.518   3.435  0.3790  0.3520 -0.4391
10258TIP3    H254970   2.891   6.368   3.428 -0.5773  0.2087 -0.1434
10259TIP3   OH254971   5.983   7.332   1.971 -0.6688  0.4840  0.7473
10259TIP3    H154972   5.981   7.407   1.912 -0.0010  0.0782  0.1967
10259TIP3    H254973   6.044   7.271   1.931 -0.6890 -0.0751  1.5352
10260TIP3   OH254974   6.740   4.430   1.429 -0.5704 -0.0290  0.2415
10260TIP3    H154975   6.658   4.476   1.409  0.5234  1.5452 -0.9135
10260TIP3    H254976   6.752   4.442   1.523 -1.2776  0.4260  0.2835
10261TIP3   OH254977   5.541   5.269   0.743 -0.2013  0.0360  0.2939
10261TIP3    H154978   5.496   5.320   0.676  1.3892  1.1776  0.0325
10261TIP3    H254979   5.627   5.310   0.750  0.1742 -0.9559  2.0249
10262TIP3   OH254980   3.375   2.724   1.032 -0.2603  0.1430 -0.1227
10262TIP3    H154981   3.306   2.765   1.084 -1.7048 -0.8769 -1.1365
10262TIP3    H254982   3.382   2.635   1.067 -0.2431 -0.1050 -0.7367
10263TIP3   OH254983   0.451   6.019   2.146  0.1827  0.1941 -0.4343
10263TIP3    H154984   0.523   6.060   2.099  0.3575  1.0424  0.5503
10263TIP3    H254985   0.471   6.033   2.238 -0.6747 -0.5458 -0.1185
10264TIP3   OH254986   0.841   3.298   1.267 -0.1941 -0.1108  0.8791
10264TIP3    H154987   0.770   3.271   1.209 -0.2453  0.1843  0.8012
10264TIP3    H254988   0.881   3.373   1.222  1.4335 -1.4566 -0.0665
10265TIP3   OH254989   3.926   0.572   3.191 -0.8975  0.6235 -0.1094
10265TIP3    H154990   3.966   0.612   3.268 -0.2006 -1.4725  0.7025
10265TIP3    H254991   3.989   0.589   3.120  0.2675 -0.5014  0.6123
10266TIP3   OH254992   4.400   1.264   1.559  0.0157  0.0322 -0.2214
10266TIP3    H154993   4.363   1.176   1.565  0.8826 -0.3110  0.4119
10266TIP3    H254994   4.481   1.253   1.509  0.5581  0.3052  0.5656
10267TIP3   OH254995   4.431   4.626   1.824 -0.5614  0.2140  0.2375
10267TIP3    H154996   4.480   4.703   1.851 -1.3323  0.1557  1.9479
10267TIP3    H254997   4.399   4.588   1.906 -0.4282 -1.7798 -0.5785
10268TIP3   OH254998   2.199   0.863   0.502 -0.0201  0.0168  0.4201
10268TIP3    H154999   2.148   0.896   0.428  0.1659  1.0858  0.7580
10268TIP3    H255000   2.163   0.908   0.578 -0.6108 -1.5173  1.0927
10269TIP3   OH255001   1.904   2.745   2.179 -0.1526  0.0225  0.7705
10269TIP3    H155002   1.865   2.665   2.143  1.0215 -0.2128 -0.0454
10269TIP3    H255003   1.991   2.717   2.208 -0.4146  0.6072  2.2033
10270TIP3   OH255004   4.862   4.872   3.148  0.9304 -0.6709  0.2109
10270TIP3    H155005   4.910   4.790   3.139  3.2312  0.6202 -0.1256
10270TIP3    H255006   4.925   4.940   3.123 -1.1433  1.1633 -0.4014
10271TIP3   OH255007   4.328   2.926   2.305  0.1819 -0.2990 -0.1149
10271TIP3    H155008   4.244   2.970   2.297 -0.2306 -0.4092  2.6806
10271TIP3    H255009   4.311   2.837   2.274 -0.5499 -0.1042 -0.2917
10272TIP3   OH255010   1.968   7.398   1.524 -0.2310 -0.0851 -0.3323
10272TIP3    H155011   1.913   7.474   1.502 -0.7907  0.6161  2.8612
10272TIP3    H255012   2.054   7.420   1.489 -0.6379  1.5700 -0.4126
10273TIP3   OH255013   4.325   2.015   2.557 -0.0931  0.0003  0.1426
10273TIP3    H155014   4.287   1.995   2.642  0.1651 -0.2420  0.2024
10273TIP3    H255015   4.251   2.044   2.504 -0.0096  1.7971  0.9385
10274TIP3   OH255016   2.301   7.005   0.742  0.1495 -0.5644 -0.1255
10274TIP3    H155017   2.211   6.990   0.770 -0.0096  1.8608  0.9178
10274TIP3    H255018   2.308   6.961   0.658 -1.8887 -1.1573 -0.0332
10275TIP3   OH255019   3.220   5.486   2.579 -0.1935 -0.1423 -0.3782
10275TIP3    H155020   3.181   5.551   2.522  1.1560 -0.5918 -1.8591
10275TIP3    H255021   3.147   5.458   2.636 -1.0216  1.8746 -0.3803
10276TIP3   OH255022   6.960   1.319   0.992  0.9612  0.7682  0.3579
10276TIP3    H155023   7.033   1.375   1.019  0.6629  1.3408 -0.0132
10276TIP3    H255024   6.964   1.321   0.896 -0.2123  1.6928  0.3067
10277TIP3   OH255025   2.147   7.122   0.968  0.2531 -0.1679  0.5534
10277TIP3    H155026   2.183   7.103   1.055 -0.0699 -1.1742  0.4766
10277TIP3    H255027   2.053   7.129   0.982  0.3523  1.7274  0.6196
10278TIP3   OH255028   6.904   1.665   1.056  0.1798 -0.2593  0.1618
10278TIP3    H155029   6.913   1.760   1.064 -0.2185 -0.3045  1.3149
10278TIP3    H255030   6.994   1.633   1.054  0.3175  0.1563 -0.4513
10279TIP3   OH255031   4.442   5.703   2.346 -0.2159  0.0589 -0.0365
10279TIP3    H155032   4.470   5.715   2.255  0.7189 -0.3986  0.1866
10279TIP3    H255033   4.415   5.791   2.374  1.5490  0.6515 -0.0889
10280TIP3   OH255034   6.461   6.244   3.142  0.1975 -0.2014 -0.4342
10280TIP3    H155035   6.399   6.179   3.110  0.6635 -1.7595  1.5775
10280TIP3    H255036   6.547   6.210   3.118  0.4820 -0.7300  1.2012
10281TIP3   OH255037   7.429   7.402   1.827  0.1553 -0.1612  0.4143
10281TIP3    H155038   7.495   7.349   1.783  0.5532  0.5859  0.1009
10281TIP3    H255039   7.479   7.464   1.880 -0.2444  1.5126 -1.1034
10282TIP3   OH255040   0.233   0.714   1.448 -0.4534 -0.2503  0.1233
10282TIP3    H155041   0.303   0.701   1.512  0.2071  1.1942 -0.2765
10282TIP3    H255042   0.157   0.671   1.487  0.2948 -0.6269  1.2125
10283TIP3   OH255043   5.996   6.253   2.663 -0.1275 -0.0443 -0.1363
10283TIP3    H155044   6.090   6.264   2.651  0.1610  0.2768  2.0076
10283TIP3    H255045   5.984   6.252   2.758 -2.0852 -1.8330 -0.3270
10284TIP3   OH255046   1.075   4.882   1.543  0.3272 -0.0384 -0.1245
10284TIP3    H155047   1.005   4.912   1.486  0.3193 -0.4063 -0.3130
10284TIP3    H255048   1.037   4.882   1.631  0.3300  0.4990 -0.1232
10285TIP3   OH255049   7.448   4.849   1.892  0.0137 -0.0662 -0.1349
10285TIP3    H155050   7.511   4.914   1.922  1.5229 -1.1916 -0.7250
10285TIP3    H255051   7.442   4.786   1.964 -1.6461  0.7947  0.5479
10286TIP3   OH255052   3.233   3.376   1.996  0.7072 -0.1569  0.0064
10286TIP3    H155053   3.213   3.372   2.089  1.6786 -2.1722  0.1796
10286TIP3    H255054   3.317   3.331   1.987 -0.4022 -2.0158 -2.1041
10287TIP3   OH255055   0.255   0.389   2.771 -0.8178  0.1161 -1.2948
10287TIP3    H155056   0.201   0.340   2.709 -1.5216  1.2189 -1.5768
10287TIP3    H255057   0.275   0.471   2.726  0.3877  0.0859 -0.8546
10288TIP3   OH255058   2.964   7.188   0.483  0.5455 -0.6661  0.4836
10288TIP3    H155059   2.936   7.108   0.438 -0.2472 -0.2434  0.1883
10288TIP3    H255060   2.891   7.208   0.542 -0.4765  1.2024 -1.2679
10289TIP3   OH255061   4.298   0.096   1.975  0.5575 -0.4028  0.2717
10289TIP3    H155062   4.325   0.024   2.032 -1.1934 -0.5211  1.0220
10289TIP3    H255063   4.296   0.058   1.888 -0.7904 -1.4495  0.7156
10290TIP3   OH255064   1.943   3.790   0.585 -0.3204  0.1155 -0.1581
10290TIP3    H155065   1.985   3.784   0.671  0.0166 -0.6077 -0.3595
10290TIP3    H255066   1.864   3.737   0.593  1.0798 -2.2873 -1.0474
10291TIP3   OH255067   2.480   6.730   2.106  0.2841 -0.1778 -1.1721
10291TIP3    H155068   2.420   6.789   2.153  0.7548 -1.3381  1.0143
10291TIP3    H255069   2.423   6.660   2.074  0.3409 -1.0817  0.5746
10292TIP3   OH255070   6.087   4.063   0.516 -0.0538 -0.6624 -0.1346
10292TIP3    H155071   6.019   4.116   0.558 -1.6475 -1.1249 -1.9798
10292TIP3    H255072   6.165   4.118   0.519 -0.3930 -0.1858  2.2135
10293TIP3   OH255073   6.026   5.213   2.009  0.4828  0.0553  0.2962
10293TIP3    H155074   5.948   5.199   2.062  0.1714 -0.0724 -0.1915
10293TIP3    H255075   6.025   5.307   1.988 -1.5311 -0.4967 -2.7197
10294TIP3   OH255076   3.323   7.047   1.364  0.3661 -0.0435  0.2612
10294TIP3    H155077   3.342   7.119   1.304  1.9914  1.4269  2.3873
10294TIP3    H255078   3.266   7.085   1.431 -0.6085 -1.3860  0.2636
10295TIP3   OH255079   2.202   0.776   2.898 -0.4018 -0.1702  0.1914
10295TIP3    H155080   2.197   0.828   2.978  0.2405 -1.3562  1.0541
10295TIP3    H255081   2.113   0.745   2.884 -0.6234  0.4878  0.1346
10296TIP3   OH255082   1.212   1.466   2.994  0.0842 -0.4206  0.2116
10296TIP3    H155083   1.209   1.425   3.080 -0.9664 -0.3570  0.2241
10296TIP3    H255084   1.302   1.498   2.986  0.3005 -0.7500  1.1241
10297TIP3   OH255085   2.302   1.341   2.684  0.3123 -0.0847 -0.4093
10297TIP3    H155086   2.269   1.431   2.691  1.5094  0.4811 -1.4925
10297TIP3    H255087   2.298   1.322   2.590  1.5814 -0.5455 -0.3900
10298TIP3   OH255088   6.332   2.450   1.104  0.0031 -0.1368  0.2681
10298TIP3    H155089   6.412   2.403   1.080 -1.1066 -2.8302  1.4405
10298TIP3    H255090   6.267   2.419   1.042 -0.4515  1.1249  0.0794
10299TIP3   OH255091   5.754   4.686   2.528  0.2664 -0.0404  0.2709
10299TIP3    H155092   5.678   4.638   2.560  1.1912 -2.4518 -0.8486
10299TIP3    H255093   5.762   4.761   2.587  0.1144 -2.5409  3.7992
10300TIP3   OH255094   7.029   4.687   1.535 -0.5399  0.0842 -0.0702
10300TIP3    H155095   6.941   4.703   1.568 -0.9870 -0.7518 -0.8044
10300TIP3    H255096   7.084   4.750   1.581 -1.7973  1.9730 -1.0117
10301TIP3   OH255097   7.255   1.650   1.649 -0.4234  0.4118  0.5857
10301TIP3    H155098   7.325   1.624   1.708 -0.9481 -1.5987  0.3910
10301TIP3    H255099   7.246   1.744   1.662  0.8186  0.3382  2.2107
10302TIP3   OH255100   2.001   0.478   3.107  0.2179  0.1154  0.4341
10302TIP3    H155101   2.082   0.518   3.139 -0.0491 -0.1190  1.4522
10302TIP3    H255102   1.959   0.445   3.186 -0.9452  0.3571 -0.0720
10303TIP3   OH255103   4.281   2.620   0.793 -0.0757  0.1777  0.1211
10303TIP3    H155104   4.349   2.680   0.824  0.6916 -0.0442 -1.0316
10303TIP3    H255105   4.329   2.551   0.748 -1.0114 -0.7227  0.4658
10304TIP3   OH255106   3.080   4.902   2.479  0.8448  0.0151  0.1955
10304TIP3    H155107   3.166   4.906   2.436  1.6278  1.1535  1.7440
10304TIP3    H255108   3.100   4.881   2.570 -0.6278 -0.7179  0.3800
10305TIP3   OH255109   0.183   1.217   0.978 -0.1391  0.2383 -0.1123
10305TIP3    H155110   0.259   1.159   0.972  0.5802  1.1240  0.3009
10305TIP3    H255111   0.115   1.163   1.020  0.3140 -0.5013 -0.3146
10306TIP3   OH255112   2.791   2.283   1.424 -0.1263  0.5560  0.7639
10306TIP3    H155113   2.838   2.289   1.341  0.1183  0.8987  0.9194
10306TIP3    H255114   2.837   2.345   1.481 -1.3065  1.5685  0.6603
10307TIP3   OH255115   6.082   2.729   1.712  0.5689 -0.0556  0.1769
10307TIP3    H155116   6.145   2.682   1.657  0.7565  1.5863 -1.1016
10307TIP3    H255117   6.056   2.665   1.779  2.4566 -1.2533 -0.1374
10308TIP3   OH255118   1.707   1.627   3.131 -0.5619  0.1830  0.1911
10308TIP3    H155119   1.781   1.680   3.161  1.2904 -2.0622 -0.1309
10308TIP3    H255120   1.649   1.620   3.207  0.1630  0.9556  0.8272
10309TIP3   OH255121   0.670   5.305   1.326  0.1440  0.0251 -0.1110
10309TIP3    H155122   0.657   5.352   1.408 -0.6893 -0.1733 -0.1134
10309TIP3    H255123   0.599   5.240   1.325  0.6964 -0.5772 -0.5559
10310TIP3   OH255124   4.739   4.490   2.629 -0.0766  0.2925 -0.0840
10310TIP3    H155125   4.681   4.420   2.660  1.0331 -1.4657 -1.7543
10310TIP3    H255126   4.823   4.448   2.615  0.9463  2.2326 -0.1307
10311TIP3   OH255127   0.721   6.997   2.454  0.1225  0.1491  0.0207
10311TIP3    H155128   0.757   7.079   2.488  0.7561  0.8741 -2.1983
10311TIP3    H255129   0.798   6.941   2.443 -0.1503 -0.2990  0.4008
10312TIP3   OH255130   3.962   3.627   0.925 -0.0533  0.3539  0.0063
10312TIP3    H155131   3.881   3.628   0.874  1.2615 -0.2873 -2.2148
10312TIP3    H255132   3.982   3.719   0.941  0.1237  0.6469 -1.7238
10313TIP3   OH255133   0.970   0.348   1.603  0.2770 -0.1106  0.0766
10313TIP3    H155134   0.930   0.322   1.520 -1.7244  1.0593  0.5851
10313TIP3    H255135   1.038   0.283   1.619 -1.2527 -2.1015 -1.0481
10314TIP3   OH255136   4.254   1.594   2.608  0.9878  0.0701 -0.6714
10314TIP3    H155137   4.277   1.505   2.580 -0.3994 -0.4888 -0.1576
10314TIP3    H255138   4.172   1.582   2.657 -0.8857  1.9915 -3.0932
10315TIP3   OH255139   4.124   4.675   1.338  0.2001 -0.4313  0.4523
10315TIP3    H155140   4.047   4.728   1.317 -1.1317 -1.3332  2.6579
10315TIP3    H255141   4.195   4.716   1.289 -1.4306  1.2164 -0.6906
10316TIP3   OH255142   7.163   0.413   0.435 -0.0316  0.5042  0.2350
10316TIP3    H155143   7.144   0.374   0.520  0.9547 -1.0031 -0.2013
10316TIP3    H255144   7.078   0.412   0.389 -0.8575  2.4470  1.5533
10317TIP3   OH255145   1.652   4.747   1.391  0.6835  0.2009  0.7113
10317TIP3    H155146   1.745   4.767   1.400  0.5281  0.5616  1.5782
10317TIP3    H255147   1.646   4.653   1.409  0.8035  0.3018  1.2964
10318TIP3   OH255148   2.787   4.285   1.350  0.0176  0.1727  0.5452
10318TIP3    H155149   2.711   4.227   1.342  1.1170 -1.2587  0.0282
10318TIP3    H255150   2.860   4.226   1.372  1.1891  1.3522 -0.0353
10319TIP3   OH255151   5.896   3.457   0.826  0.5921  0.1000  0.6208
10319TIP3    H155152   5.857   3.545   0.826  1.1599  0.3552 -0.1644
10319TIP3    H255153   5.913   3.439   0.919 -0.2549  0.4878  0.8603
10320TIP3   OH255154   2.699   1.734   1.500 -0.0927  0.3054  0.0108
10320TIP3    H155155   2.697   1.830   1.510 -0.9827  0.2000  1.0420
10320TIP3    H255156   2.642   1.717   1.425  0.0575  0.5823 -0.1684
10321TIP3   OH255157   6.808   3.626   2.099 -0.5646  0.2220 -0.4883
10321TIP3    H155158   6.718   3.628   2.066 -1.5789 -1.0471  1.9972
10321TIP3    H255159   6.812   3.698   2.162 -0.6520 -1.1807  1.1911
10322TIP3   OH255160   4.707   0.566   1.843  0.6881  0.0205  0.6075
10322TIP3    H155161   4.612   0.553   1.845  0.8715 -1.5213  0.9262
10322TIP3    H255162   4.722   0.623   1.767 -0.3905 -0.8589 -0.3154
10323TIP3   OH255163   7.290   5.995   1.403 -0.5436 -0.1218 -0.0280
10323TIP3    H155164   7.267   5.958   1.488 -0.8779  0.9857  0.3819
10323TIP3    H255165   7.383   5.976   1.393 -0.0979  1.1350  1.3533
10324TIP3   OH255166   4.472   4.160   1.054  0.1167 -0.4256 -0.4507
10324TIP3    H155167   4.383   4.163   1.019 -0.2411 -0.6793  0.3979
10324TIP3    H255168   4.475   4.079   1.105  1.1052 -0.8479 -1.1388
10325TIP3   OH255169   0.156   4.545   1.757 -0.2904 -0.3334  0.8790
10325TIP3    H155170   0.252   4.549   1.749 -0.2547  0.9641  1.6052
10325TIP3    H255171   0.130   4.474   1.699  1.0511 -0.2007  0.0631
10326TIP3   OH255172   4.790   6.339   2.246 -0.0277 -0.2009  0.4483
10326TIP3    H155173   4.762   6.423   2.210  1.2900 -0.3548 -1.0529
10326TIP3    H255174   4.730   6.275   2.208  1.0441 -0.3004 -1.2236
10327TIP3   OH255175   1.863   4.207   1.457 -0.1669 -0.5674 -0.0238
10327TIP3    H155176   1.808   4.153   1.400 -0.8898 -0.1060  0.2150
10327TIP3    H255177   1.927   4.247   1.398 -0.2752 -0.8838 -0.3570
10328TIP3   OH255178   4.727   0.438   2.418 -0.0292 -0.0231 -0.1846
10328TIP3    H155179   4.688   0.354   2.441 -0.1942 -0.6307 -2.4914
10328TIP3    H255180   4.794   0.418   2.353  1.9137  1.3774  1.2506
10329TIP3   OH255181   0.124   6.737   2.588 -0.0466 -0.0743 -0.1692
10329TIP3    H155182   0.122   6.697   2.501  1.3492 -0.0825 -0.2339
10329TIP3    H255183   0.148   6.829   2.572  0.3253 -0.1001  0.1982
10330TIP3   OH255184   2.168   2.725   3.108  0.0219 -0.3645 -0.4935
10330TIP3    H155185   2.137   2.775   3.183  0.3528  1.2353 -1.3949
10330TIP3    H255186   2.184   2.790   3.040  3.0594 -1.3564 -0.8680
10331TIP3   OH255187   1.121   1.064   0.770 -0.6258  0.3028  0.1718
10331TIP3    H155188   1.178   1.133   0.737  0.3894 -1.2760 -1.5517
10331TIP3    H255189   1.142   1.058   0.863 -0.9528  2.4596  0.4313
10332TIP3   OH255190   0.383   5.242   2.905 -0.0678  0.0644  0.1596
10332TIP3    H155191   0.400   5.280   2.991 -0.9844 -0.7394  0.7344
10332TIP3    H255192   0.446   5.283   2.846 -0.1883  1.4854  0.9849
10333TIP3   OH255193   2.184   0.011   1.036  0.0141 -0.3092 -0.3667
10333TIP3    H155194   2.135   0.078   0.987 -0.8345 -1.1143 -0.6505
10333TIP3    H255195   2.210  -0.053   0.970 -2.3080 -2.1079  0.3489
10334TIP3   OH255196   2.454   3.696   2.674 -0.2210 -0.1523 -0.6583
10334TIP3    H155197   2.438   3.635   2.746  1.6577 -0.9704 -0.8560
10334TIP3    H255198   2.550   3.696   2.664 -0.2448  2.0309 -1.3813
10335TIP3   OH255199   7.086   2.864   0.757  0.5248 -0.4096 -0.4957
10335TIP3    H155200   7.022   2.932   0.780  0.0131 -0.5834 -1.3477
10335TIP3    H255201   7.164   2.913   0.732  1.5672 -0.2270  2.7298
10336TIP3   OH255202   2.157   6.498   2.893  0.0833 -0.0291 -0.4313
10336TIP3    H155203   2.069   6.471   2.867  0.5121 -1.0599 -0.8974
10336TIP3    H255204   2.207   6.416   2.893  1.1633  0.6177 -0.6907
10337TIP3   OH255205   1.923   7.261   3.523 -0.2181  0.1308 -0.1009
10337TIP3    H155206   1.863   7.216   3.583 -1.8141  1.5449 -0.5714
10337TIP3    H255207   1.972   7.190   3.481  1.2078 -0.9290  3.0146
10338TIP3   OH255208   4.364   3.409   1.348  0.2179 -0.3123  0.0841
10338TIP3    H155209   4.376   3.494   1.390  1.3054 -0.2638 -0.2970
10338TIP3    H255210   4.271   3.390   1.359  0.2245  0.2878  1.3875
10339TIP3   OH255211   4.408   4.600   2.347 -0.3044  0.3146 -0.0322
10339TIP3    H155212   4.331   4.544   2.342 -0.3911  0.5198 -1.4685
10339TIP3    H255213   4.380   4.676   2.398 -1.2364  0.6364 -0.9827
10340TIP3   OH255214   0.670   4.041   1.024  0.5831 -0.3697  0.2423
10340TIP3    H155215   0.686   4.117   1.081  1.8776  0.1979 -0.8230
10340TIP3    H255216   0.635   4.079   0.944  1.3118 -0.8798 -0.3266
10341TIP3   OH255217   3.464   1.998   2.606 -0.4841  0.2839 -0.1351
10341TIP3    H155218   3.518   1.932   2.564  0.2115  1.0514 -0.4526
10341TIP3    H255219   3.498   2.003   2.696 -0.1267  0.6533 -0.2895
10342TIP3   OH255220   2.253   4.935   1.218 -1.0308  0.0053  1.0765
10342TIP3    H155221   2.201   4.982   1.153  0.6990 -0.4166 -0.7102
10342TIP3    H255222   2.340   4.975   1.213 -0.0450 -2.0307  0.9491
10343TIP3   OH255223   7.395   3.281   0.602  0.5535  0.2977  0.1444
10343TIP3    H155224   7.483   3.246   0.586  0.6337  0.3383  0.4817
10343TIP3    H255225   7.406   3.376   0.597  1.1994  0.4810  3.3050
10344TIP3   OH255226   4.216   3.732   1.148 -0.0020  0.7937 -0.4233
10344TIP3    H155227   4.184   3.642   1.145  1.3643  0.2971 -1.2824
10344TIP3    H255228   4.239   3.747   1.239  0.2430  0.0786 -0.3613
10345TIP3   OH255229   5.520   6.830   1.818  0.0357  0.1775  0.0043
10345TIP3    H155230   5.488   6.830   1.728 -1.4513 -0.7412  0.5034
10345TIP3    H255231   5.613   6.850   1.810  0.0403 -0.3798 -1.7726
10346TIP3   OH255232   0.783   1.239   1.325  0.1213 -0.1219  0.4725
10346TIP3    H155233   0.692   1.213   1.317  0.4503 -1.5353  1.1358
10346TIP3    H255234   0.805   1.226   1.417  0.8574  0.6763  0.4269
10347TIP3   OH255235   3.845   3.141   3.048  0.0969  0.4829 -0.8503
10347TIP3    H155236   3.791   3.191   3.109 -0.0540 -1.3891  0.6662
10347TIP3    H255237   3.935   3.169   3.067 -0.0391  0.7303 -0.5561
10348TIP3   OH255238   0.781   1.426   1.010 -0.4595  0.1942 -0.1799
10348TIP3    H155239   0.817   1.514   1.023 -0.1060 -0.0800  0.7866
10348TIP3    H255240   0.702   1.424   1.063  0.2760 -0.5127  0.9202
10349TIP3   OH255241   2.033   1.816   1.752  0.0583  0.1341 -0.1085
10349TIP3    H155242   2.101   1.849   1.810 -0.3251 -0.3820  0.6544
10349TIP3    H255243   1.956   1.870   1.770  0.3315  0.9309 -1.2014
10350TIP3   OH255244   6.265   2.116   1.752 -0.6621 -0.2366  0.4151
10350TIP3    H155245   6.353   2.154   1.745 -1.0110  0.2883 -2.1402
10350TIP3    H255246   6.275   2.025   1.722 -0.9836 -0.1533  0.0407
10351TIP3   OH255247   0.491   3.579   0.720  0.4500  0.0426  0.1710
10351TIP3    H155248   0.416   3.631   0.691 -0.4576 -2.2893 -2.0576
10351TIP3    H255249   0.482   3.574   0.815 -1.9641  0.2647  0.0043
10352TIP3   OH255250   5.420   6.563   0.864  0.1913  0.0884  0.6777
10352TIP3    H155251   5.381   6.488   0.908 -0.9303  0.4065  0.2760
10352TIP3    H255252   5.357   6.634   0.879 -1.0174 -0.1244 -2.6189
10353TIP3   OH255253   1.443   4.110   1.258 -0.2863 -0.3910  0.1840
10353TIP3    H155254   1.480   4.071   1.178  2.6066  0.5069  0.9343
10353TIP3    H255255   1.464   4.203   1.251 -1.5658  0.0047  1.2141
10354TIP3   OH255256   1.639   4.657   1.676  0.1343  0.2359 -0.5438
10354TIP3    H155257   1.716   4.713   1.678  0.4565 -0.2297  0.9100
10354TIP3    H255258   1.673   4.570   1.656  0.1292 -0.1349  0.9229
10355TIP3   OH255259   2.322   3.045   0.924  0.4748  0.0330 -0.0460
10355TIP3    H155260   2.395   3.108   0.927  0.0740  0.5168 -0.2973
10355TIP3    H255261   2.244   3.099   0.928  0.1115 -0.3721 -1.2843
10356TIP3   OH255262   1.237   0.289   2.147  0.6401  0.3798 -0.1826
10356TIP3    H155263   1.172   0.333   2.093  1.1354 -0.2490 -1.3216
10356TIP3    H255264   1.214   0.315   2.237 -1.6931 -0.4783 -0.4484
10357TIP3   OH255265   0.068   6.995   1.105 -0.1518  0.0345 -0.3208
10357TIP3    H155266   0.042   6.903   1.101  1.1364 -0.3656 -0.0021
10357TIP3    H255267   0.123   7.008   1.028  0.1919  0.3640 -0.0252
10358TIP3   OH255268   0.403   1.130   1.811 -1.0891 -0.2912 -0.0259
10358TIP3    H155269   0.452   1.110   1.890 -1.0713  2.5710  0.7955
10358TIP3    H255270   0.393   1.045   1.767 -0.1723 -1.8064  2.4652
10359TIP3   OH255271   0.125   4.298   1.260  0.5113  0.5956  0.8626
10359TIP3    H155272   0.208   4.278   1.216 -0.2722  0.2250 -0.4785
10359TIP3    H255273   0.058   4.263   1.202 -0.5376 -0.9352  2.8931
10360TIP3   OH255274   5.240   6.574   1.563 -0.3300  0.1127 -0.1279
10360TIP3    H155275   5.226   6.666   1.584 -0.4663  0.1778 -0.4960
10360TIP3    H255276   5.234   6.529   1.648  0.0126  0.4704  0.0905
10361TIP3   OH255277   2.826   3.118   3.849  0.4523 -0.4782  0.0138
10361TIP3    H155278   2.742   3.091   3.886 -0.3957 -0.1966 -1.6281
10361TIP3    H255279   2.806   3.196   3.798  1.3828 -1.3155 -1.7173
10362TIP3   OH255280   5.834   6.384   1.123  0.0551  0.0966 -0.4952
10362TIP3    H155281   5.752   6.394   1.171  1.6632  1.4619  2.1822
10362TIP3    H255282   5.860   6.293   1.139 -0.9151 -0.3680 -1.4267
10363TIP3   OH255283   5.537   6.052   1.417  0.1201 -0.1326  0.5141
10363TIP3    H155284   5.478   6.068   1.343  0.5945  1.1075  0.3957
10363TIP3    H255285   5.587   5.974   1.391  0.9567  0.8455 -0.9053
10364TIP3   OH255286   6.925   5.318   1.264 -0.3694 -0.0590  0.4603
10364TIP3    H155287   6.950   5.235   1.223 -0.9051 -0.6435  1.2813
10364TIP3    H255288   6.997   5.377   1.244 -0.1948 -0.5869 -0.5389
10365TIP3   OH255289   2.586   1.412   2.601  0.6558 -0.2408 -0.3978
10365TIP3    H155290   2.579   1.338   2.541  1.4734  0.0801 -0.9170
10365TIP3    H255291   2.496   1.441   2.615  0.4835  0.1914 -2.1486
10366TIP3   OH255292   7.314   5.309   0.505 -0.3977 -0.0565 -0.2866
10366TIP3    H155293   7.272   5.234   0.463  0.0317  0.3081 -1.4141
10366TIP3    H255294   7.246   5.347   0.561 -0.7388 -1.0466 -0.0245
10367TIP3   OH255295   1.662   2.372   1.387  0.0574 -0.4116  0.3698
10367TIP3    H155296   1.661   2.276   1.381  2.1904 -0.3840 -1.8770
10367TIP3    H255297   1.701   2.390   1.472 -1.6041 -1.4606  1.4245
10368TIP3   OH255298   4.921   0.595   0.824 -0.4940  0.2543  0.0388
10368TIP3    H155299   4.985   0.624   0.889  0.8430  0.9139 -1.4925
10368TIP3    H255300   4.838   0.630   0.855 -0.2698 -1.1493  2.4079
10369TIP3   OH255301   2.494   4.155   1.140  0.2488  0.5665  0.2898
10369TIP3    H155302   2.508   4.113   1.055  1.1457  0.7769  0.3279
10369TIP3    H255303   2.405   4.191   1.135 -0.1490 -0.4181 -0.1284
10370TIP3   OH255304   2.057   7.171   3.209 -0.0805  0.7289  0.0595
10370TIP3    H155305   1.975   7.134   3.177 -0.6295  1.3918  0.6590
10370TIP3    H255306   2.082   7.116   3.283  0.1880  0.3379 -0.3181
10371TIP3   OH255307   3.086   7.424   2.784  0.4755 -0.3484 -0.1322
10371TIP3    H155308   3.011   7.385   2.829  0.6556 -0.4667  0.0701
10371TIP3    H255309   3.093   7.376   2.702 -0.1077  0.1442 -0.4754
10372TIP3   OH255310   0.286   3.794   0.776  0.4303 -0.6086 -0.2799
10372TIP3    H155311   0.223   3.723   0.789 -1.4247  1.2162  1.6016
10372TIP3    H255312   0.328   3.803   0.862 -1.7182  2.5255  0.6312
10373TIP3   OH255313   6.202   4.182   1.470  0.3562  0.6671 -0.1357
10373TIP3    H155314   6.149   4.194   1.391  1.1670  1.0162 -0.6510
10373TIP3    H255315   6.223   4.089   1.470 -1.5458  0.1919  0.9510
10374TIP3   OH255316   2.220   3.098   0.591  0.6480  0.0580 -0.3493
10374TIP3    H155317   2.145   3.045   0.619  2.4874 -1.9848  1.0835
10374TIP3    H255318   2.284   3.034   0.562  3.6212  1.2115  2.9458
10375TIP3   OH255319   5.455   1.321   1.995  0.3244 -0.5431 -0.3926
10375TIP3    H155320   5.508   1.378   2.051  2.3552 -2.3798 -0.3164
10375TIP3    H255321   5.457   1.364   1.909 -0.3863  0.8113  0.2480
10376TIP3   OH255322   4.126   4.260   1.491  0.4280  0.4863 -0.7858
10376TIP3    H155323   4.151   4.242   1.581 -0.0228  0.3972 -0.6758
10376TIP3    H255324   4.031   4.272   1.494  0.3565  0.1095 -1.3011
10377TIP3   OH255325   0.231   1.518   0.372  0.1570  0.7472  0.2194
10377TIP3    H155326   0.137   1.534   0.378  0.3096  3.2117 -2.1653
10377TIP3    H255327   0.239   1.426   0.349 -1.8248  0.9083 -1.3495
10378TIP3   OH255328   6.264   0.419   2.027  0.1675  0.2137  0.2163
10378TIP3    H155329   6.325   0.460   2.088  0.2748 -0.8706  0.8573
10378TIP3    H255330   6.306   0.427   1.941  1.7460 -1.4185  0.7684
10379TIP3   OH255331   4.382   0.960   0.586 -0.9170 -0.2896  0.2562
10379TIP3    H155332   4.382   0.889   0.522  0.4305 -0.1072  0.0250
10379TIP3    H255333   4.332   0.925   0.661 -0.1909 -1.5213  0.1870
10380TIP3   OH255334   3.709   7.203   1.903  0.3136  0.0226 -0.3815
10380TIP3    H155335   3.732   7.113   1.880  1.2961  0.0956  0.2355
10380TIP3    H255336   3.794   7.247   1.914 -0.1131  0.4658  1.4174
10381TIP3   OH255337   2.106   1.985   3.200 -0.3158  0.1917 -0.3069
10381TIP3    H155338   2.055   1.927   3.257  0.6371 -0.5196 -0.1523
10381TIP3    H255339   2.044   2.011   3.131 -0.9019 -0.6319 -0.1151
10382TIP3   OH255340   7.118   6.415   2.340 -0.4107  0.0578  0.7361
10382TIP3    H155341   7.213   6.410   2.333 -0.3041  1.9875  0.1440
10382TIP3    H255342   7.100   6.407   2.434  0.1714 -1.8367  0.7260
10383TIP3   OH255343   5.428   5.882   1.990 -0.5405 -0.4659  0.4612
10383TIP3    H155344   5.407   5.873   1.897 -0.6155 -0.5095  0.4821
10383TIP3    H255345   5.452   5.793   2.018 -2.3483 -0.8585  0.9310
10384TIP3   OH255346   5.356   2.015   1.178  0.0630 -0.8313  0.5077
10384TIP3    H155347   5.374   2.008   1.084 -0.8613 -0.3914  0.2814
10384TIP3    H255348   5.370   2.107   1.198  0.0057 -0.8763  0.7496
10385TIP3   OH255349   6.727   4.558   2.073 -0.3933 -0.2207  0.2371
10385TIP3    H155350   6.820   4.574   2.057 -0.0043 -2.1018  0.4047
10385TIP3    H255351   6.691   4.540   1.986 -0.5920  0.3636  0.1910
10386TIP3   OH255352   6.304   6.358   1.106  0.1377  0.0282  0.1832
10386TIP3    H155353   6.260   6.373   1.189 -0.4060  1.0759 -0.2742
10386TIP3    H255354   6.393   6.392   1.120  0.1867 -0.2162  0.4741
10387TIP3   OH255355   2.340   6.089   2.024  0.1732 -0.2479 -0.1792
10387TIP3    H155356   2.425   6.130   2.041  0.5711 -0.6033 -1.1894
10387TIP3    H255357   2.361   6.016   1.965 -0.6118 -1.4066  0.9417
10388TIP3   OH255358   0.697   6.467   1.932 -0.2196 -0.1104  0.3819
10388TIP3    H155359   0.671   6.441   1.844  0.6432 -0.8619  0.3396
10388TIP3    H255360   0.630   6.531   1.958 -1.2002 -0.8108 -0.3164
10389TIP3   OH255361   5.723   6.821   2.795  0.1430  0.2578 -0.3736
10389TIP3    H155362   5.797   6.871   2.760  0.6181 -0.7195 -0.8245
10389TIP3    H255363   5.664   6.810   2.720 -1.0408  2.0008  0.2531
10390TIP3   OH255364   4.254   3.645   2.687  0.0330 -0.3314  0.3330
10390TIP3    H155365   4.267   3.650   2.782  0.1023 -0.1805  0.3159
10390TIP3    H255366   4.273   3.554   2.665 -0.3079 -0.4493  0.5126
10391TIP3   OH255367   4.218   2.309   2.625 -0.6623 -0.1532 -0.3083
10391TIP3    H155368   4.311   2.314   2.647 -0.8783  0.1672  0.5712
10391TIP3    H255369   4.215   2.263   2.541  0.3394  0.5195 -0.7229
10392TIP3   OH255370   5.790   3.589   0.400 -0.5035 -0.3835 -0.0768
10392TIP3    H155371   5.870   3.560   0.357 -0.2661 -1.1174  0.8245
10392TIP3    H255372   5.795   3.685   0.398 -0.8542 -0.3747 -2.2710
10393TIP3   OH255373   7.173   6.295   0.818  0.4852  0.5892 -0.5060
10393TIP3    H155374   7.198   6.214   0.773  0.7564 -0.7417  1.8897
10393TIP3    H255375   7.235   6.361   0.784  0.2789 -0.1619 -2.4771
10394TIP3   OH255376   1.315   6.092   0.894  0.8860  0.0027 -0.0926
10394TIP3    H155377   1.374   6.149   0.943  0.0863  0.0410  0.8574
10394TIP3    H255378   1.298   6.019   0.954 -0.6684  0.4019 -0.0253
10395TIP3   OH255379   1.435   7.058   1.916  0.6399 -0.0245 -0.2663
10395TIP3    H155380   1.508   7.104   1.957  0.5810  0.6347 -0.8969
10395TIP3    H255381   1.455   6.965   1.930 -0.5590  0.1260  3.4001
10396TIP3   OH255382   4.187   7.067   2.658  0.5463  0.2393 -0.5680
10396TIP3    H155383   4.114   7.107   2.705 -0.5648  0.6683 -2.5285
10396TIP3    H255384   4.265   7.110   2.693 -0.1861  0.3472  1.0157
10397TIP3   OH255385   3.380   6.443   3.261  0.1109  0.6796  0.4673
10397TIP3    H155386   3.438   6.507   3.302  0.9759 -0.3095  0.8455
10397TIP3    H255387   3.412   6.358   3.293 -0.4306  0.0035 -0.7184
10398TIP3   OH255388   2.843   3.973   1.547  0.7926  0.8408  0.1599
10398TIP3    H155389   2.926   4.019   1.530  1.6003 -1.0958 -1.5847
10398TIP3    H255390   2.795   3.978   1.465  0.5223 -0.6236  0.1972
10399TIP3   OH255391   4.465   1.490   0.570 -0.3552 -0.3862  0.5658
10399TIP3    H155392   4.557   1.465   0.580 -0.0217 -0.1568 -1.4812
10399TIP3    H255393   4.416   1.417   0.608  0.6620 -1.6468 -0.4542
10400TIP3   OH255394   3.615   2.725   1.851 -0.4530 -0.0562 -0.1392
10400TIP3    H155395   3.612   2.809   1.806  0.2529  0.0999  0.0905
10400TIP3    H255396   3.615   2.660   1.781  0.3304  0.1736 -0.3602
10401TIP3   OH255397   4.892   6.744   2.035 -0.8282 -0.3530 -0.2584
10401TIP3    H155398   4.970   6.745   2.090 -1.4533 -1.0024  0.6948
10401TIP3    H255399   4.921   6.709   1.951  0.1615  0.7021 -0.3615
10402TIP3   OH255400   5.600   4.047   2.016  0.1627  0.3866  1.0851
10402TIP3    H155401   5.514   4.020   1.985  0.4866 -0.2056  0.6898
10402TIP3    H255402   5.608   4.138   1.986 -0.6013  0.6800  1.7318
10403TIP3   OH255403   0.963   6.492   2.026  0.0150 -0.0267  0.2133
10403TIP3    H155404   0.877   6.465   1.993  1.4463 -3.3392 -1.2642
10403TIP3    H255405   1.004   6.538   1.953  0.6282 -1.2744 -0.2550
10404TIP3   OH255406   2.151   0.010   2.534  0.3029 -0.3885  0.5405
10404TIP3    H155407   2.073  -0.003   2.587  0.0707  0.8684  0.5335
10404TIP3    H255408   2.176   0.101   2.550  1.4399 -0.6077  0.1095
10405TIP3   OH255409   2.868   3.844   2.919  0.3458  0.2979 -0.0143
10405TIP3    H155410   2.834   3.862   3.007  1.7032  1.9513  0.2272
10405TIP3    H255411   2.800   3.876   2.860  0.1904  0.8054  0.4373
10406TIP3   OH255412   0.578   2.733   0.867 -0.6298 -0.1218  0.5104
10406TIP3    H155413   0.605   2.682   0.943  1.0226  0.3126  0.2566
10406TIP3    H255414   0.660   2.760   0.825 -1.4806 -0.2449 -1.3609
10407TIP3   OH255415   1.499   5.611   1.342  0.1564  0.1873  0.0129
10407TIP3    H155416   1.538   5.685   1.390  1.2560 -0.4967  0.2031
10407TIP3    H255417   1.532   5.621   1.253 -0.5596  0.5176 -0.2244
10408TIP3   OH255418   2.471   2.239   1.552  0.3054  0.5293  0.3775
10408TIP3    H155419   2.401   2.282   1.600 -0.0319  0.7276 -0.2741
10408TIP3    H255420   2.478   2.152   1.592  0.6032  0.9687  1.3195
10409TIP3   OH255421   5.351   1.407   1.446 -0.3632  0.1602 -0.0353
10409TIP3    H155422   5.397   1.489   1.433  0.1402 -0.2311 -0.7689
10409TIP3    H255423   5.312   1.387   1.361  0.9583 -1.2187 -0.3578
10410TIP3   OH255424   4.585   6.585   2.971  0.1046 -0.0834  0.0187
10410TIP3    H155425   4.621   6.497   2.959 -0.5132 -0.2763 -0.4995
10410TIP3    H255426   4.625   6.617   3.052  0.3751 -0.8178  0.1812
10411TIP3   OH255427   7.204   4.005   0.869  0.5479  0.5618 -0.2751
10411TIP3    H155428   7.231   4.074   0.809  0.5092  0.0005 -0.9551
10411TIP3    H255429   7.263   3.932   0.850  0.9597  0.5791  0.8179
10412TIP3   OH255430   2.929   3.708   1.610  0.1949 -0.0140  0.2382
10412TIP3    H155431   2.858   3.762   1.576 -0.2104 -0.1627  0.8468
10412TIP3    H255432   3.008   3.746   1.571  0.1220  2.1810  2.0523
10413TIP3   OH255433   3.313   1.095   2.051 -0.0294  0.4240  0.2338
10413TIP3    H155434   3.225   1.099   2.088 -0.3354 -0.0303 -0.4345
10413TIP3    H255435   3.312   1.020   1.992  1.2876 -0.5686  1.4184
10414TIP3   OH255436   5.300   2.089   1.908 -0.4078 -0.3106 -0.1047
10414TIP3    H155437   5.337   2.175   1.888 -0.4384  0.5159  2.8440
10414TIP3    H255438   5.343   2.063   1.990  0.6242 -3.8118 -1.5398
10415TIP3   OH255439   4.186   5.606   2.775  0.1864  0.0189  0.2810
10415TIP3    H155440   4.228   5.563   2.700 -0.6421  0.7943 -0.6391
10415TIP3    H255441   4.102   5.636   2.742 -0.6465 -0.5291  1.8119
10416TIP3   OH255442   3.613   1.938   2.874 -0.3151 -0.1705  0.8859
10416TIP3    H155443   3.671   1.878   2.920  0.8957 -0.0569 -0.4249
10416TIP3    H255444   3.609   2.016   2.930  0.2674 -0.4308  1.2955
10417TIP3   OH255445   3.252   0.118   3.789  0.4556 -0.6324 -0.0090
10417TIP3    H155446   3.248   0.079   3.876  0.7259  0.6566  0.5906
10417TIP3    H255447   3.162   0.139   3.767  0.2742 -1.7499 -0.4362
10418TIP3   OH255448   6.470   5.004   2.286 -0.4843  0.4508 -0.8555
10418TIP3    H155449   6.387   5.051   2.278 -0.8173 -0.1105 -0.7751
10418TIP3    H255450   6.496   4.984   2.197  0.2346  1.7421 -0.9702
10419TIP3   OH255451   1.826   2.606   2.928  0.1954 -0.5639 -0.0104
10419TIP3    H155452   1.749   2.623   2.874 -2.4845  0.9485  3.8462
10419TIP3    H255453   1.881   2.683   2.917 -0.2052 -0.3733 -0.7113
10420TIP3   OH255454   2.616   6.272   1.549 -0.5102 -0.3071 -0.1982
10420TIP3    H155455   2.654   6.341   1.496 -1.6354  0.1206 -0.4655
10420TIP3    H255456   2.689   6.238   1.601 -0.0221  1.3941  0.2838
10421TIP3   OH255457   6.404   0.461   2.839  0.0673 -0.4479  0.3097
10421TIP3    H155458   6.446   0.494   2.760 -1.9113  2.5282  0.3273
10421TIP3    H255459   6.313   0.488   2.831 -0.2743 -0.2161  3.4568
10422TIP3   OH255460   2.289   5.782   3.060  0.2580  0.4717 -0.3655
10422TIP3    H155461   2.343   5.768   2.983 -0.1525  2.0453 -0.9820
10422TIP3    H255462   2.336   5.849   3.110 -0.5097  0.9628 -0.2949
10423TIP3   OH255463   1.884   6.966   0.563 -0.1716 -0.0968 -0.2089
10423TIP3    H155464   1.847   6.889   0.519  0.1406  0.0013 -0.6544
10423TIP3    H255465   1.810   7.005   0.609 -0.1421 -1.2265  0.8674
10424TIP3   OH255466   5.925   0.851   1.506  0.5912 -0.0158 -0.1031
10424TIP3    H155467   5.869   0.774   1.492  0.8558  0.0358 -1.6157
10424TIP3    H255468   6.010   0.814   1.527  0.6945 -0.1421 -0.7315
10425TIP3   OH255469   0.537   3.123   0.760 -0.1566 -0.1536 -0.5777
10425TIP3    H155470   0.475   3.196   0.759  0.3629  0.3016 -1.2746
10425TIP3    H255471   0.494   3.055   0.812 -0.4974  0.7773  0.3967
10426TIP3   OH255472   1.556   2.308   1.997  0.0153  0.0213 -0.1889
10426TIP3    H155473   1.499   2.297   1.921  0.8411 -0.5175 -0.7436
10426TIP3    H255474   1.511   2.372   2.052 -1.1616 -0.4636 -0.5718
10427TIP3   OH255475   6.752   2.824   1.515 -0.1194 -0.3002 -0.3751
10427TIP3    H155476   6.844   2.804   1.530 -0.4082 -2.2766 -0.9330
10427TIP3    H255477   6.731   2.781   1.432 -1.4372  0.5089 -0.4979
10428TIP3   OH255478   7.401   2.025   0.575  0.0653  0.1329 -0.4625
10428TIP3    H155479   7.455   1.953   0.541  1.8478  1.7012 -1.1688
10428TIP3    H255480   7.445   2.051   0.657 -1.4344 -0.5117  0.5878
10429TIP3   OH255481   7.100   0.440   1.607 -0.2443 -0.0941  0.4834
10429TIP3    H155482   7.018   0.444   1.557  0.8713  1.3623 -1.3651
10429TIP3    H255483   7.140   0.526   1.594  2.1397 -1.1577  0.3165
10430TIP3   OH255484   0.471   6.759   1.028  0.7286 -0.0004 -0.0948
10430TIP3    H155485   0.402   6.756   1.095  0.5156  0.0263 -0.3110
10430TIP3    H255486   0.440   6.700   0.959  0.0239  1.4299 -1.0524
10431TIP3   OH255487   3.544   1.021   0.554 -0.0152 -0.2749 -0.3410
10431TIP3    H155488   3.621   1.076   0.538  0.4693 -0.5867  0.7906
10431TIP3    H255489   3.565   0.937   0.513 -0.5472  0.2117 -1.6395
10432TIP3   OH255490   5.924   4.921   0.786 -0.0066 -0.3972  0.3945
10432TIP3    H155491   5.864   4.975   0.838 -1.1523 -0.0221 -1.2196
10432TIP3    H255492   5.922   4.961   0.699  0.7844 -1.7844 -0.2874
10433TIP3   OH255493   5.635   3.787   0.904 -0.3334  0.0080  0.5230
10433TIP3    H155494   5.613   3.878   0.883  0.7709  0.3145  0.6263
10433TIP3    H255495   5.628   3.741   0.821  2.8386  0.9788 -0.4555
10434TIP3   OH255496   6.794   6.840   2.227 -0.1215  0.1186 -0.5453
10434TIP3    H155497   6.884   6.815   2.250 -0.3248 -0.0772  0.0377
10434TIP3    H255498   6.797   6.854   2.132  0.2524 -1.1000 -0.7403
10435TIP3   OH255499   0.010   2.487   0.895 -0.3330 -0.0693 -0.0967
10435TIP3    H155500   0.097   2.448   0.894  0.0196  0.5503  1.7986
10435TIP3    H255501   0.025   2.580   0.912 -1.3658 -0.0756  1.0503
10436TIP3   OH255502   2.494   7.114   2.703  0.0205  0.1536  0.5247
10436TIP3    H155503   2.472   7.172   2.630  1.2089 -0.8198 -0.6552
10436TIP3    H255504   2.432   7.138   2.772 -0.6446  1.6236 -0.5231
10437TIP3   OH255505   6.174   4.921   1.353 -0.2094 -0.0793  0.1660
10437TIP3    H155506   6.101   4.869   1.319 -0.0418 -0.2547  0.0730
10437TIP3    H255507   6.171   5.002   1.302  0.7574 -0.8168 -1.1031
10438TIP3   OH255508   7.140   1.961   2.013  0.0940 -0.1267 -0.2528
10438TIP3    H155509   7.158   2.051   1.988  0.5854 -0.2329 -0.2903
10438TIP3    H255510   7.139   1.963   2.109 -2.6553  0.4517 -0.2025
10439TIP3   OH255511   3.063   5.690   0.485  0.5570  0.1808 -0.1559
10439TIP3    H155512   3.012   5.635   0.544  0.6060  1.4441  1.1145
10439TIP3    H255513   3.003   5.712   0.414  0.6516 -1.7780 -0.9052
   7.51422   7.51422  30.00000
