Title
55513
    1DOPE     N    1   6.475   3.518  17.179 -0.1760 -1.3012 -0.0444
    1DOPE   HN1    2   6.561   3.469  17.148  0.4159 -0.8037  0.7693
    1DOPE   HN2    3   6.457   3.588  17.104  0.4413  0.0351  0.9970
    1DOPE   HN3    4   6.497   3.575  17.264 -1.2056  2.1783 -1.9191
    1DOPE   C12    5   6.349   3.442  17.210  0.0037  0.0740  0.0981
    1DOPE  H12A    6   6.278   3.511  17.260  1.3367  1.2492  0.4345
    1DOPE  H12B    7   6.385   3.364  17.279 -0.2431  0.3867  0.5890
    1DOPE   C11    8   6.277   3.389  17.090  0.0623 -0.5262 -0.0370
    1DOPE  H11A    9   6.198   3.316  17.115 -3.0563  2.4966 -0.2440
    1DOPE  H11B   10   6.339   3.339  17.013 -1.9687 -1.4132 -1.1776
    1DOPE     P   11   6.069   3.536  17.021  0.2039 -0.1183  0.2110
    1DOPE   O13   12   6.040   3.666  16.958 -0.3824  0.5836 -0.0963
    1DOPE   O14   13   6.013   3.517  17.159 -0.6357  0.5730  0.0785
    1DOPE   O11   14   5.992   3.433  16.939  0.3416 -0.4273  0.6139
    1DOPE   O12   15   6.226   3.502  17.010  0.0209 -0.2165  0.4135
    1DOPE    C1   16   6.046   3.337  16.839 -0.7372  0.3001  0.1230
    1DOPE    HA   17   6.045   3.236  16.885  1.0717 -0.7571 -2.0235
    1DOPE    HB   18   6.153   3.353  16.815 -0.9051  1.7332  0.1859
    1DOPE    C2   19   5.958   3.344  16.711 -0.2883  0.2861  0.7246
    1DOPE    HS   20   5.857   3.327  16.754 -0.4429  1.6595  0.9277
    1DOPE   O21   21   6.003   3.241  16.618 -0.2896 -0.1662  0.0642
    1DOPE   C21   22   5.957   3.124  16.636  0.1150 -0.8177 -0.1739
    1DOPE   O22   23   5.868   3.090  16.714  0.3300  0.3580  0.7876
    1DOPE   C22   24   6.027   3.033  16.543 -0.1342 -0.2136 -0.3010
    1DOPE   H2R   25   5.943   2.968  16.510 -1.6109  2.0624 -1.2264
    1DOPE   H2S   26   6.100   2.983  16.611  0.2870  1.1861  0.3102
    1DOPE    C3   27   5.965   3.476  16.639  0.7160  0.1576 -0.0151
    1DOPE    HX   28   6.073   3.486  16.615  0.2287  1.0410 -2.1007
    1DOPE    HY   29   5.950   3.557  16.714  1.3442 -0.7257  1.0816
    1DOPE   O31   30   5.875   3.486  16.519 -0.7703  0.5097 -0.3100
    1DOPE   C31   31   5.784   3.572  16.518  0.3371  0.0151  0.8688
    1DOPE   O32   32   5.762   3.660  16.600 -0.1509 -0.5778 -0.1694
    1DOPE   C32   33   5.720   3.571  16.372 -0.1607 -0.3207 -0.4716
    1DOPE   H2X   34   5.796   3.528  16.303  0.6062 -0.9217  0.7177
    1DOPE   H2Y   35   5.638   3.496  16.377  0.7960 -1.4019 -0.7125
    1DOPE   C23   36   6.096   3.086  16.420 -0.4048 -0.3932 -0.5024
    1DOPE   H3R   37   6.152   3.000  16.376  0.6173  0.2224 -0.4516
    1DOPE   H3S   38   6.179   3.154  16.449  0.3148 -0.9111 -1.2842
    1DOPE   C24   39   5.999   3.146  16.315  0.3731  0.1597 -0.5717
    1DOPE   H4R   40   5.931   3.215  16.371 -0.6256 -1.4830  0.3099
    1DOPE   H4S   41   5.935   3.069  16.266  2.1025 -1.6902 -0.0546
    1DOPE   C25   42   6.069   3.213  16.196 -0.3072 -0.3518  0.0139
    1DOPE   H5R   43   6.136   3.134  16.156  0.2218  0.4977 -0.8291
    1DOPE   H5S   44   6.122   3.299  16.242 -2.2153  0.9464 -0.1167
    1DOPE   C26   45   5.980   3.262  16.092  0.4283  0.9125 -0.4075
    1DOPE   H6R   46   5.893   3.313  16.137 -0.2085 -0.8005  0.4181
    1DOPE   H6S   47   5.931   3.177  16.040 -2.7947  2.9619 -0.9586
    1DOPE   C27   48   6.060   3.344  15.994 -0.2499 -0.6394 -0.2280
    1DOPE   H7R   49   6.127   3.280  15.932 -0.7131 -2.5637  1.1678
    1DOPE   H7S   50   6.123   3.412  16.055 -2.6041  0.7851  0.7372
    1DOPE   C28   51   5.974   3.441  15.899  0.7633  0.1193 -0.3792
    1DOPE   H8R   52   5.897   3.375  15.855 -1.0285  2.2811 -0.6214
    1DOPE   H8S   53   6.038   3.469  15.812 -0.1221  0.6551 -0.8645
    1DOPE   C29   54   5.911   3.558  15.964  0.2418  0.4595 -1.0820
    1DOPE   H9R   55   5.847   3.531  16.050  1.0969  1.5774 -0.0600
    1DOPE  C210   56   5.917   3.689  15.929 -0.7054  0.0948  0.6906
    1DOPE  H10R   57   5.865   3.757  15.999 -1.4462 -0.0339  0.2749
    1DOPE  C211   58   5.994   3.733  15.808 -0.2464  0.2145 -0.0840
    1DOPE  H11R   59   6.042   3.653  15.748  1.2865 -0.6742  2.2033
    1DOPE  H11S   60   6.079   3.795  15.843 -0.6162 -0.0900  1.4367
    1DOPE  C212   61   5.925   3.823  15.694 -0.3249  0.0993 -0.5282
    1DOPE  H12R   62   5.834   3.774  15.653 -1.0013  1.5734 -0.8322
    1DOPE  H12S   63   5.997   3.834  15.610 -1.3185 -2.6958 -1.8597
    1DOPE  C213   64   5.873   3.953  15.759  0.2785 -0.1947 -0.8501
    1DOPE  H13R   65   5.956   4.015  15.798  0.0818  0.0535 -0.8210
    1DOPE  H13S   66   5.807   3.920  15.842  0.8226 -1.1846 -0.7959
    1DOPE  C214   67   5.783   4.030  15.656  0.0087  0.3906 -0.7288
    1DOPE  H14R   68   5.729   4.111  15.709 -0.2353  1.4764 -2.5582
    1DOPE  H14S   69   5.698   3.966  15.625 -1.0584  1.2228  0.3800
    1DOPE  C215   70   5.848   4.075  15.529  0.3149  0.3905 -0.1688
    1DOPE  H15R   71   5.883   3.979  15.487  1.2898  0.9368 -0.6249
    1DOPE  H15S   72   5.922   4.146  15.571 -1.0829  1.6838  0.2312
    1DOPE  C216   73   5.745   4.129  15.432 -0.2579 -0.2459  0.4044
    1DOPE  H16R   74   5.706   4.228  15.463 -0.7394 -0.5004  0.6189
    1DOPE  H16S   75   5.667   4.050  15.427  0.1066 -0.5273 -1.5330
    1DOPE  C217   76   5.807   4.157  15.291 -0.4959  0.2021 -0.1457
    1DOPE  H17R   77   5.840   4.068  15.234 -0.5855 -1.5600  2.4010
    1DOPE  H17S   78   5.899   4.217  15.310 -0.8056  1.5759 -2.5762
    1DOPE  C218   79   5.722   4.240  15.197 -0.8651 -0.9516 -0.2645
    1DOPE  H18R   80   5.740   4.349  15.213 -2.5084 -0.2570 -2.5870
    1DOPE  H18S   81   5.614   4.216  15.203 -1.2283  0.8870  1.7625
    1DOPE  H18T   82   5.765   4.226  15.095  0.3721  1.5928 -0.1899
    1DOPE   C33   83   5.682   3.706  16.314  0.6566 -0.0923  0.1145
    1DOPE   H3X   84   5.602   3.757  16.372 -2.4868 -1.0425 -2.9693
    1DOPE   H3Y   85   5.635   3.697  16.213  1.7041 -1.2644 -0.3021
    1DOPE   C34   86   5.793   3.806  16.301 -0.5324  0.2986  0.7773
    1DOPE   H4X   87   5.833   3.812  16.405 -0.1562 -1.2838  0.7567
    1DOPE   H4Y   88   5.877   3.774  16.236 -0.5884  0.4755  0.6184
    1DOPE   C35   89   5.739   3.940  16.249 -0.6668 -0.3673  0.2629
    1DOPE   H5X   90   5.656   3.978  16.312 -1.4432  1.6195 -1.8364
    1DOPE   H5Y   91   5.689   3.939  16.150 -0.3017  2.0322 -0.0103
    1DOPE   C36   92   5.846   4.053  16.258 -0.2168  0.9801 -0.0961
    1DOPE   H6X   93   5.901   4.045  16.354  0.3808  0.3435 -0.4789
    1DOPE   H6Y   94   5.796   4.152  16.254 -0.4423  0.8280 -1.6758
    1DOPE   C37   95   5.951   4.058  16.144  0.2401 -0.5204  0.1508
    1DOPE   H7X   96   6.012   3.967  16.121 -0.6274 -0.3624 -3.3360
    1DOPE   H7Y   97   5.898   4.078  16.048  0.8843 -0.8835 -0.2913
    1DOPE   C38   98   6.054   4.172  16.158 -0.0679 -0.1889 -1.0810
    1DOPE   H8X   99   6.143   4.145  16.096 -0.3732  0.3762 -1.7776
    1DOPE   H8Y  100   6.095   4.174  16.261  4.1967  0.8422 -2.5809
    1DOPE   C39  101   6.017   4.316  16.129 -0.2520  0.0588 -0.4446
    1DOPE   H9X  102   5.951   4.364  16.203  1.3517  2.6856 -0.5929
    1DOPE  C310  103   6.051   4.391  16.019  0.7827  0.3167  0.4398
    1DOPE  H10X  104   6.016   4.495  16.009  1.0176  0.5830  2.0170
    1DOPE  C311  105   6.143   4.346  15.915  0.1767 -0.1836 -0.8525
    1DOPE  H11X  106   6.243   4.330  15.959 -0.1997  2.2429  1.0767
    1DOPE  H11Y  107   6.100   4.251  15.874 -0.3775  0.3217 -1.4772
    1DOPE  C312  108   6.150   4.447  15.797 -0.1588 -0.0404  0.1498
    1DOPE  H12X  109   6.238   4.418  15.737  0.7939  2.5397  0.1810
    1DOPE  H12Y  110   6.183   4.544  15.839  3.1836 -0.3778 -1.3928
    1DOPE  C313  111   6.024   4.470  15.714 -0.3047 -0.2363 -0.8530
    1DOPE  H13X  112   5.983   4.374  15.675 -2.2593 -0.3453  1.2407
    1DOPE  H13Y  113   5.944   4.501  15.785  0.9024  3.2882 -0.8504
    1DOPE  C314  114   6.038   4.576  15.612 -0.4538 -0.8005 -0.7393
    1DOPE  H14X  115   6.116   4.554  15.536 -0.4244 -0.4450 -0.8124
    1DOPE  H14Y  116   6.066   4.666  15.671 -2.8879 -0.9901  0.8933
    1DOPE  C315  117   5.921   4.606  15.527 -0.5671  0.6379 -0.2594
    1DOPE  H15X  118   5.841   4.641  15.597  1.1898  3.5797  0.4443
    1DOPE  H15Y  119   5.882   4.517  15.472  1.2018 -0.0805 -0.4164
    1DOPE  C316  120   5.949   4.705  15.413  0.4772 -0.3528  0.4769
    1DOPE  H16X  121   6.039   4.681  15.353  0.1879 -0.6726  0.1661
    1DOPE  H16Y  122   5.964   4.803  15.462  2.1901 -0.9647  1.2474
    1DOPE  C317  123   5.831   4.709  15.315  0.3127 -0.0115  0.0072
    1DOPE  H17X  124   5.796   4.610  15.278  1.8269 -0.0199 -1.5246
    1DOPE  H17Y  125   5.742   4.755  15.364  0.7970 -1.8516  2.8360
    1DOPE  C318  126   5.853   4.792  15.189  0.1541  0.3304 -0.2341
    1DOPE  H18X  127   5.930   4.752  15.119 -0.3943  1.8214 -1.7668
    1DOPE  H18Y  128   5.757   4.809  15.136  0.1438 -0.9941 -0.6623
    1DOPE  H18Z  129   5.893   4.893  15.215  1.9268 -0.2895 -0.4002
    2DOPE     N  130   5.692   5.361  16.698 -0.0190 -0.2766 -0.1226
    2DOPE   HN1  131   5.625   5.297  16.745 -0.3580 -0.1575 -0.4432
    2DOPE   HN2  132   5.657   5.456  16.722  0.2857 -0.1086 -0.3382
    2DOPE   HN3  133   5.689   5.349  16.595 -2.1466 -2.1441  0.0874
    2DOPE   C12  134   5.833   5.364  16.747  0.0411  0.2833 -0.5019
    2DOPE  H12A  135   5.832   5.350  16.857 -0.0707  1.0573 -0.3980
    2DOPE  H12B  136   5.885   5.460  16.726  2.7970 -0.8716  0.5516
    2DOPE   C11  137   5.909   5.250  16.676 -0.1135  0.1019  0.1637
    2DOPE  H11A  138   5.931   5.283  16.572  0.9110 -3.0117 -0.7017
    2DOPE  H11B  139   5.835   5.168  16.675 -0.9677  0.8535  0.5641
    2DOPE     P  140   6.035   5.111  16.870 -0.0208 -0.3062 -0.7577
    2DOPE   O13  141   5.919   5.152  16.953  0.0872  0.6533 -0.9855
    2DOPE   O14  142   6.166   5.117  16.929  0.2340 -0.3940 -0.0077
    2DOPE   O11  143   6.007   4.970  16.811  0.1525 -0.0640  0.1822
    2DOPE   O12  144   6.034   5.219  16.746 -0.3810 -0.2782  0.0440
    2DOPE    C1  145   6.109   4.879  16.763 -0.0987  0.4321  0.9629
    2DOPE    HA  146   6.060   4.793  16.713 -0.5830  0.3948  1.4899
    2DOPE    HB  147   6.164   4.849  16.855 -1.5246  0.5591  1.8897
    2DOPE    C2  148   6.204   4.941  16.658 -0.3663  0.2882 -0.4251
    2DOPE    HS  149   6.260   5.031  16.693  0.1667 -0.4938  0.8100
    2DOPE   O21  150   6.129   4.970  16.538  0.1804  0.0578 -0.4239
    2DOPE   C21  151   6.177   5.075  16.472  0.1968 -0.8603  0.4641
    2DOPE   O22  152   6.266   5.147  16.502  0.0784 -0.6114  0.4621
    2DOPE   C22  153   6.078   5.073  16.346 -0.0663 -0.6635  0.0616
    2DOPE   H2R  154   5.975   5.080  16.387  0.9001  0.9098  2.4285
    2DOPE   H2S  155   6.093   4.975  16.295 -0.2469 -0.0088 -1.2742
    2DOPE    C3  156   6.331   4.854  16.621  0.1435  0.3330 -0.7319
    2DOPE    HX  157   6.406   4.854  16.703  2.0862  0.5444 -2.4313
    2DOPE    HY  158   6.374   4.914  16.538 -3.3437  1.4215 -1.9065
    2DOPE   O31  159   6.287   4.718  16.576  0.3577 -0.3001 -0.1247
    2DOPE   C31  160   6.305   4.620  16.667 -0.3119  0.7408 -0.0243
    2DOPE   O32  161   6.340   4.638  16.780  0.4326  0.4862 -0.1374
    2DOPE   C32  162   6.273   4.489  16.599  0.1609 -0.0737  0.0206
    2DOPE   H2X  163   6.184   4.509  16.535 -1.3594 -0.0513  2.0185
    2DOPE   H2Y  164   6.355   4.455  16.533 -1.0617 -3.3310  0.0000
    2DOPE   C23  165   6.098   5.191  16.255  0.4567 -0.2232 -0.0344
    2DOPE   H3R  166   6.191   5.184  16.194 -0.7744  0.3010 -2.0692
    2DOPE   H3S  167   6.087   5.290  16.303 -2.0963 -0.3233 -0.3133
    2DOPE   C24  168   5.984   5.194  16.152 -0.3347 -0.5284 -0.5018
    2DOPE   H4R  169   5.886   5.183  16.204 -0.6768  1.4000 -0.6662
    2DOPE   H4S  170   6.000   5.105  16.089 -1.9132 -0.3555 -1.1734
    2DOPE   C25  171   5.978   5.314  16.055 -0.0963 -0.2478 -0.5627
    2DOPE   H5R  172   6.069   5.321  15.992  0.1344 -0.8770 -0.3056
    2DOPE   H5S  173   5.963   5.405  16.118 -2.1761 -1.0669  0.2230
    2DOPE   C26  174   5.864   5.300  15.954 -0.2084 -0.5660 -1.5844
    2DOPE   H6R  175   5.862   5.400  15.906 -0.9390  0.4219  0.3903
    2DOPE   H6S  176   5.767   5.291  16.008  0.3820 -1.7184 -0.6647
    2DOPE   C27  177   5.874   5.189  15.862  0.4024 -0.5698  0.1641
    2DOPE   H7R  178   5.841   5.094  15.908 -2.1813  1.0526  1.9328
    2DOPE   H7S  179   5.977   5.194  15.821  0.0997 -0.8101 -0.6479
    2DOPE   C28  180   5.785   5.213  15.735  0.2519  0.5627 -0.2700
    2DOPE   H8R  181   5.797   5.320  15.707  2.3086  0.5539  0.4133
    2DOPE   H8S  182   5.682   5.200  15.775  0.7189  1.1016  1.1715
    2DOPE   C29  183   5.807   5.122  15.615  0.9740  0.7061  0.1691
    2DOPE   H9R  184   5.817   5.018  15.648  0.3794  0.0594 -1.5984
    2DOPE  C210  185   5.805   5.159  15.485  0.9122  0.5605 -0.5503
    2DOPE  H10R  186   5.835   5.084  15.410  1.7336 -1.3039  1.5465
    2DOPE  C211  187   5.785   5.297  15.429 -0.1072  0.1262  0.8010
    2DOPE  H11R  188   5.882   5.320  15.380 -0.3841 -1.9858 -0.8872
    2DOPE  H11S  189   5.771   5.374  15.507 -1.9765 -0.9034  1.5340
    2DOPE  C212  190   5.680   5.294  15.320 -0.7712  0.1861 -0.1591
    2DOPE  H12R  191   5.666   5.403  15.301 -0.0341  0.2844 -0.1618
    2DOPE  H12S  192   5.582   5.267  15.365 -1.1356  1.6960 -0.0086
    2DOPE  C213  193   5.709   5.199  15.205  0.3063  1.0689  0.5409
    2DOPE  H13R  194   5.682   5.095  15.233  1.0146  0.6122 -0.4380
    2DOPE  H13S  195   5.816   5.190  15.176  0.4350 -2.7423  1.6353
    2DOPE  C214  196   5.613   5.224  15.078 -0.1587 -0.5749 -0.7720
    2DOPE  H14R  197   5.619   5.332  15.053  1.7324 -0.6581 -0.8652
    2DOPE  H14S  198   5.507   5.211  15.107 -0.1190 -1.2200 -0.9033
    2DOPE  C215  199   5.660   5.141  14.960 -0.2291  0.7567  0.0478
    2DOPE  H15R  200   5.645   5.037  14.995  1.3522 -0.8159 -3.3830
    2DOPE  H15S  201   5.770   5.152  14.956 -0.1975  0.7306  0.7355
    2DOPE  C216  202   5.592   5.172  14.824  0.1991  0.3277 -0.9562
    2DOPE  H16R  203   5.582   5.281  14.805 -1.7827 -0.0243 -2.1760
    2DOPE  H16S  204   5.485   5.148  14.843  0.3198  1.1476  0.9864
    2DOPE  C217  205   5.654   5.106  14.697 -0.3227 -0.0621 -0.2247
    2DOPE  H17R  206   5.620   5.002  14.684 -1.0475  0.3644 -1.9281
    2DOPE  H17S  207   5.764   5.092  14.703  0.0881  1.7928 -2.3481
    2DOPE  C218  208   5.623   5.179  14.570 -0.0461  0.0620  0.6099
    2DOPE  H18R  209   5.516   5.175  14.541  0.0443  0.3275  0.2280
    2DOPE  H18S  210   5.670   5.127  14.484 -0.5506 -0.7137  0.7907
    2DOPE  H18T  211   5.655   5.285  14.579  1.8973 -0.2256 -1.8018
    2DOPE   C33  212   6.230   4.378  16.702  0.1162  0.3830 -0.9345
    2DOPE   H3X  213   6.146   4.406  16.768 -1.2523 -0.7730 -2.1065
    2DOPE   H3Y  214   6.305   4.345  16.777  0.1461  1.3127 -0.5436
    2DOPE   C34  215   6.192   4.254  16.626  0.0823  0.4441 -0.1834
    2DOPE   H4X  216   6.116   4.284  16.551 -1.3874  2.5532  2.0190
    2DOPE   H4Y  217   6.279   4.203  16.579  0.2363 -0.9926  1.5538
    2DOPE   C35  218   6.126   4.140  16.719 -0.8082 -0.9811  0.0425
    2DOPE   H5X  219   6.040   4.199  16.759 -0.8657  1.2510 -3.0253
    2DOPE   H5Y  220   6.199   4.109  16.797  1.4998 -0.4809 -1.7945
    2DOPE   C36  221   6.085   4.015  16.643  0.7816  0.0207  0.5654
    2DOPE   H6X  222   6.023   4.047  16.556  1.5490 -0.6619 -0.2543
    2DOPE   H6Y  223   6.020   3.948  16.704 -0.0527 -0.8790 -1.2123
    2DOPE   C37  224   6.194   3.933  16.591 -0.3599  0.4428 -0.5414
    2DOPE   H7X  225   6.251   3.987  16.513  0.9820  0.3424  0.3144
    2DOPE   H7Y  226   6.269   3.918  16.672 -0.6208  0.0184 -0.3741
    2DOPE   C38  227   6.162   3.794  16.530 -1.3838  0.8068  0.1027
    2DOPE   H8X  228   6.109   3.812  16.434 -0.2343 -1.5975 -1.0599
    2DOPE   H8Y  229   6.088   3.735  16.589 -0.6691 -1.8318 -1.4872
    2DOPE   C39  230   6.289   3.722  16.501  0.5050  0.5297  0.1948
    2DOPE   H9X  231   6.357   3.712  16.587 -1.2428 -1.4522  1.4310
    2DOPE  C310  232   6.318   3.645  16.397  0.4803  0.5743  0.4519
    2DOPE  H10X  233   6.410   3.584  16.393 -1.5827 -3.2114  3.3353
    2DOPE  C311  234   6.229   3.607  16.281  0.3413  0.4529 -0.1571
    2DOPE  H11X  235   6.213   3.498  16.291  1.4802  0.3708  1.0567
    2DOPE  H11Y  236   6.129   3.654  16.289  0.8716  2.1010 -2.1842
    2DOPE  C312  237   6.277   3.641  16.137  0.6237  0.5084 -0.3525
    2DOPE  H12X  238   6.310   3.747  16.137  0.0392  0.7286  1.4170
    2DOPE  H12Y  239   6.198   3.605  16.068  1.2720 -3.5236  0.7753
    2DOPE  C313  240   6.405   3.573  16.092 -1.3726  0.4632 -0.1182
    2DOPE  H13X  241   6.503   3.593  16.140 -0.8057 -0.2324 -0.9623
    2DOPE  H13Y  242   6.400   3.462  16.091  1.8553  0.1685  2.1042
    2DOPE  C314  243   6.432   3.610  15.941 -0.7302 -0.4589 -0.4958
    2DOPE  H14X  244   6.538   3.579  15.924 -0.8203 -1.8386  1.2399
    2DOPE  H14Y  245   6.426   3.720  15.929  1.2793 -0.1383  0.8759
    2DOPE  C315  246   6.360   3.531  15.832 -0.0715 -0.1458 -0.8938
    2DOPE  H15X  247   6.252   3.551  15.849 -0.3718 -0.0237 -2.6766
    2DOPE  H15Y  248   6.386   3.424  15.843  0.6641 -0.0129 -1.2612
    2DOPE  C316  249   6.407   3.573  15.696  1.0959  0.2667  0.2050
    2DOPE  H16X  250   6.516   3.594  15.701  1.4195 -1.5835  2.6563
    2DOPE  H16Y  251   6.344   3.661  15.671 -1.9629 -2.0189 -0.8081
    2DOPE  C317  252   6.377   3.468  15.587 -0.2932  0.5532  0.0487
    2DOPE  H17X  253   6.405   3.508  15.487 -0.8696 -1.9808 -1.2396
    2DOPE  H17Y  254   6.452   3.387  15.599 -0.8470  0.2326  1.5405
    2DOPE  C318  255   6.233   3.437  15.581  0.5914  0.4647 -0.0054
    2DOPE  H18X  256   6.194   3.364  15.507  1.3398 -0.2342  0.2750
    2DOPE  H18Y  257   6.205   3.391  15.678  0.3006 -2.5225 -1.3988
    2DOPE  H18Z  258   6.182   3.534  15.564  2.4060  1.1237 -2.3821
    3DOPE     N  259   5.069   5.147  16.756 -0.2957  0.3862 -0.1770
    3DOPE   HN1  260   5.060   5.158  16.859  2.6175 -1.7919  0.4263
    3DOPE   HN2  261   5.172   5.155  16.744 -0.3571 -0.2675 -1.2789
    3DOPE   HN3  262   5.028   5.226  16.702 -1.7492 -0.5412 -0.4972
    3DOPE   C12  263   5.025   4.999  16.733 -0.2486  0.2027 -0.7936
    3DOPE  H12A  264   5.094   4.954  16.659 -1.0897  1.7194 -2.5807
    3DOPE  H12B  265   4.924   4.987  16.688 -0.7056 -0.0971  0.2726
    3DOPE   C11  266   5.043   4.928  16.873 -0.4280 -0.8072  0.3694
    3DOPE  H11A  267   5.141   4.948  16.922 -0.0100  0.9332 -1.0885
    3DOPE  H11B  268   5.036   4.818  16.858 -0.1083 -0.6105 -1.4748
    3DOPE     P  269   4.801   4.911  16.970  0.3830  0.3216  0.5420
    3DOPE   O13  270   4.701   5.011  17.018 -0.2964 -0.6941 -0.3688
    3DOPE   O14  271   4.819   4.782  17.038 -0.5069  0.1285  0.4312
    3DOPE   O11  272   4.766   4.870  16.822 -0.5201 -0.4439  0.0380
    3DOPE   O12  273   4.941   4.974  16.967 -0.6836 -0.1527 -0.1192
    3DOPE    C1  274   4.639   4.807  16.789 -0.4334 -0.2153 -0.1856
    3DOPE    HA  275   4.558   4.831  16.861 -1.2124 -0.1748 -1.0537
    3DOPE    HB  276   4.656   4.697  16.782 -0.2484 -0.2303  0.4035
    3DOPE    C2  277   4.575   4.870  16.659  0.4672 -0.3300  0.8239
    3DOPE    HS  278   4.477   4.817  16.651  0.9549 -1.1123 -0.1586
    3DOPE   O21  279   4.658   4.832  16.543 -0.0141 -0.8144  0.4109
    3DOPE   C21  280   4.669   4.705  16.509  1.0597 -0.2543 -0.2586
    3DOPE   O22  281   4.610   4.617  16.562  0.4517  0.6997  0.0145
    3DOPE   C22  282   4.735   4.700  16.365 -0.3612 -0.2495  0.1310
    3DOPE   H2R  283   4.771   4.597  16.343 -0.8336 -0.4373  0.2192
    3DOPE   H2S  284   4.827   4.762  16.367 -0.9999  0.7544 -0.6996
    3DOPE    C3  285   4.562   5.023  16.667  0.2957  0.0213  0.2154
    3DOPE    HX  286   4.666   5.063  16.662  0.7870 -1.3151 -0.6968
    3DOPE    HY  287   4.517   5.052  16.764 -2.5250 -1.9161 -0.3907
    3DOPE   O31  288   4.476   5.074  16.561  0.2488 -0.0805 -0.0035
    3DOPE   C31  289   4.520   5.165  16.475  0.7865  0.6133 -0.2779
    3DOPE   O32  290   4.621   5.229  16.482 -0.2136 -0.1303 -0.2145
    3DOPE   C32  291   4.421   5.164  16.353 -0.1132  0.3837  0.2033
    3DOPE   H2X  292   4.413   5.059  16.316  0.0968  1.3163 -2.6994
    3DOPE   H2Y  293   4.319   5.189  16.390 -0.6626 -0.7804 -0.4796
    3DOPE   C23  294   4.644   4.743  16.247  0.4151 -0.0102 -0.8752
    3DOPE   H3R  295   4.704   4.749  16.154  0.3771 -1.3159 -1.0025
    3DOPE   H3S  296   4.591   4.834  16.280 -0.4687 -1.0450  0.6976
    3DOPE   C24  297   4.525   4.648  16.219  0.2934 -0.2358 -0.3819
    3DOPE   H4R  298   4.444   4.679  16.288  0.5736  0.9843 -0.5953
    3DOPE   H4S  299   4.547   4.546  16.258  0.4781  0.3744  1.1934
    3DOPE   C25  300   4.479   4.650  16.075  0.1165  0.4183 -0.2318
    3DOPE   H5R  301   4.479   4.752  16.030  1.0710  0.1264 -0.9185
    3DOPE   H5S  302   4.375   4.611  16.069  1.2915 -2.7867 -2.4070
    3DOPE   C26  303   4.566   4.571  15.981  0.0406  0.1416  0.1956
    3DOPE   H6R  304   4.587   4.471  16.024  0.2154 -0.1134 -0.4732
    3DOPE   H6S  305   4.669   4.610  15.960  0.1725 -0.0277  0.5294
    3DOPE   C27  306   4.490   4.548  15.848 -0.2623  0.9109 -0.2941
    3DOPE   H7R  307   4.472   4.650  15.808  0.4776  1.2237  0.1507
    3DOPE   H7S  308   4.400   4.494  15.884 -1.5851  2.0433 -1.7895
    3DOPE   C28  309   4.574   4.464  15.746 -0.3519 -0.0532 -0.3693
    3DOPE   H8R  310   4.617   4.370  15.786 -2.5708 -0.3465  1.5080
    3DOPE   H8S  311   4.662   4.521  15.709 -0.0562 -1.6331 -2.2960
    3DOPE   C29  312   4.484   4.457  15.622  0.0119 -0.0961 -0.1005
    3DOPE   H9R  313   4.434   4.552  15.602 -1.3070 -0.8018 -0.2491
    3DOPE  C210  314   4.486   4.352  15.542 -0.4120 -0.2774  0.5604
    3DOPE  H10R  315   4.405   4.353  15.468  0.5221  3.2578 -0.5763
    3DOPE  C211  316   4.571   4.229  15.548 -0.3929  0.8802 -0.3077
    3DOPE  H11R  317   4.650   4.243  15.624  1.1877  1.9000 -2.0646
    3DOPE  H11S  318   4.620   4.224  15.448 -1.4626  0.3731 -0.8318
    3DOPE  C212  319   4.482   4.110  15.574  0.5669 -0.2013 -0.5149
    3DOPE  H12R  320   4.414   4.096  15.487  2.4844 -3.7268 -1.6337
    3DOPE  H12S  321   4.418   4.138  15.660 -0.0736 -1.8075 -0.4412
    3DOPE  C213  322   4.554   3.984  15.602 -0.3847 -0.2051 -0.8119
    3DOPE  H13R  323   4.623   4.020  15.681  1.9652 -0.5969 -2.5729
    3DOPE  H13S  324   4.605   3.954  15.508 -1.4447  1.5721 -2.0234
    3DOPE  C214  325   4.465   3.869  15.651  0.0716 -0.4420  0.0054
    3DOPE  H14R  326   4.452   3.791  15.573 -4.0726  0.0422 -0.0234
    3DOPE  H14S  327   4.363   3.901  15.682 -0.2847 -2.0598  0.6217
    3DOPE  C215  328   4.536   3.793  15.767  0.8122 -0.1867  0.2476
    3DOPE  H15R  329   4.546   3.860  15.856 -2.4149  1.7734 -0.6766
    3DOPE  H15S  330   4.639   3.761  15.742  1.1659 -0.6079  2.0873
    3DOPE  C216  331   4.459   3.669  15.809 -0.4470  0.0172  0.8153
    3DOPE  H16R  332   4.444   3.615  15.713  0.6725  0.1339  0.5711
    3DOPE  H16S  333   4.353   3.682  15.842 -0.1512  2.1055  1.0523
    3DOPE  C217  334   4.538   3.575  15.898  0.5601  0.1839 -0.1162
    3DOPE  H17R  335   4.559   3.631  15.992  0.9214 -1.0880  0.5851
    3DOPE  H17S  336   4.637   3.553  15.852  0.9047 -0.1864  0.7842
    3DOPE  C218  337   4.460   3.442  15.928 -0.2512  0.7930 -0.2743
    3DOPE  H18R  338   4.367   3.460  15.986 -0.2395 -0.2079  0.0801
    3DOPE  H18S  339   4.525   3.376  15.990 -0.8154 -0.3205 -0.8339
    3DOPE  H18T  340   4.438   3.386  15.834 -1.3106  1.3076 -0.3500
    3DOPE   C33  341   4.454   5.261  16.229 -0.2357  0.2008 -0.1230
    3DOPE   H3X  342   4.565   5.267  16.221 -0.2842  2.8742  0.4031
    3DOPE   H3Y  343   4.440   5.365  16.264  1.5196 -0.0661  1.5932
    3DOPE   C34  344   4.377   5.242  16.096  0.0172  0.4945 -0.4700
    3DOPE   H4X  345   4.384   5.134  16.073  0.1396 -0.4368  3.3468
    3DOPE   H4Y  346   4.271   5.269  16.119  0.2139 -1.0255  2.6901
    3DOPE   C35  347   4.450   5.318  15.989 -0.0405 -0.2237 -0.7218
    3DOPE   H5X  348   4.555   5.283  16.002 -0.0953  0.4299  2.4505
    3DOPE   H5Y  349   4.455   5.429  15.998  1.8448 -0.3172 -0.1864
    3DOPE   C36  350   4.412   5.288  15.846  0.9196 -0.0804 -0.5612
    3DOPE   H6X  351   4.390   5.182  15.820  2.5346 -0.2351 -1.3778
    3DOPE   H6Y  352   4.485   5.327  15.773  1.0979  2.5187  0.8724
    3DOPE   C37  353   4.291   5.373  15.801  1.0532  0.5412  0.3458
    3DOPE   H7X  354   4.192   5.354  15.847  0.6593 -1.2487 -1.1554
    3DOPE   H7Y  355   4.319   5.480  15.812  0.8334  0.5653  0.6811
    3DOPE   C38  356   4.256   5.350  15.657 -0.5172  0.2572  0.1598
    3DOPE   H8X  357   4.347   5.363  15.595 -1.1897 -1.9525 -1.4565
    3DOPE   H8Y  358   4.182   5.427  15.628 -1.5192 -0.0823  1.7206
    3DOPE   C39  359   4.202   5.213  15.630 -0.3656  0.1617 -0.2018
    3DOPE   H9X  360   4.174   5.157  15.720 -0.0504 -0.6902 -0.6267
    3DOPE  C310  361   4.188   5.153  15.512 -0.1025 -0.7004  0.6237
    3DOPE  H10X  362   4.144   5.052  15.506  2.2195 -1.7375  0.2201
    3DOPE  C311  363   4.229   5.211  15.372  0.6603 -0.1615  0.0211
    3DOPE  H11X  364   4.321   5.274  15.366 -0.2261  1.0479 -1.4340
    3DOPE  H11Y  365   4.249   5.126  15.303  1.3721 -0.9322  1.1262
    3DOPE  C312  366   4.127   5.290  15.289  0.2143  0.7902 -0.0402
    3DOPE  H12X  367   4.086   5.378  15.343 -0.2756  1.3587 -1.3009
    3DOPE  H12Y  368   4.040   5.222  15.274  1.1045 -0.4439  0.1998
    3DOPE  C313  369   4.184   5.336  15.152 -0.5079  0.8414 -0.3363
    3DOPE  H13X  370   4.282   5.386  15.168 -0.2624  0.2979 -0.1004
    3DOPE  H13Y  371   4.206   5.251  15.084 -0.5262  0.9396 -0.4642
    3DOPE  C314  372   4.096   5.442  15.081  0.5706  0.6629 -0.5939
    3DOPE  H14X  373   4.166   5.472  15.000  3.4436 -3.1107  0.2204
    3DOPE  H14Y  374   4.077   5.528  15.150 -0.7939 -0.5304  0.5827
    3DOPE  C315  375   3.956   5.389  15.036  0.2979  0.5265  0.4901
    3DOPE  H15X  376   3.912   5.355  15.132  0.4158 -0.9651  0.0271
    3DOPE  H15Y  377   3.965   5.301  14.969 -1.9707  0.0803  0.6907
    3DOPE  C316  378   3.863   5.500  14.981  0.0701  0.0739  0.0977
    3DOPE  H16X  379   3.899   5.537  14.882  1.3201  0.5944  0.7209
    3DOPE  H16Y  380   3.869   5.583  15.054 -0.8456 -0.2781  0.5897
    3DOPE  C317  381   3.718   5.468  14.969  0.6382 -0.4479 -0.4002
    3DOPE  H17X  382   3.699   5.369  14.924 -0.4257 -1.3067  1.7795
    3DOPE  H17Y  383   3.678   5.466  15.073 -0.6868  0.0756 -0.8780
    3DOPE  C318  384   3.638   5.563  14.886  0.3727  0.0098  0.5456
    3DOPE  H18X  385   3.612   5.656  14.941 -1.5751 -0.1650  0.0077
    3DOPE  H18Y  386   3.688   5.589  14.790  0.0730 -0.9346  0.1297
    3DOPE  H18Z  387   3.536   5.527  14.860  0.5420 -0.1078  0.0455
    4DOPE     N  388   6.381   2.475  16.811 -0.2507 -0.6093  0.0873
    4DOPE   HN1  389   6.293   2.448  16.762  0.1522  2.3335 -2.5040
    4DOPE   HN2  390   6.369   2.451  16.912  0.9168  0.5015  0.5117
    4DOPE   HN3  391   6.395   2.577  16.800 -0.5126 -0.5716  0.0965
    4DOPE   C12  392   6.500   2.397  16.758 -0.5036  0.3897  0.0468
    4DOPE  H12A  393   6.593   2.433  16.808  1.6329 -4.4677  0.1577
    4DOPE  H12B  394   6.496   2.418  16.649  1.2077 -1.5980 -0.4625
    4DOPE   C11  395   6.494   2.244  16.788 -0.1442  0.1072  0.7433
    4DOPE  H11A  396   6.578   2.187  16.744 -1.1021 -0.7909  0.0467
    4DOPE  H11B  397   6.406   2.206  16.732  1.4274 -2.3905 -0.1722
    4DOPE     P  398   6.612   2.214  17.018 -0.4020 -0.1365  0.4065
    4DOPE   O13  399   6.633   2.076  17.063 -0.3349  0.0329 -0.2718
    4DOPE   O14  400   6.601   2.310  17.129  0.8485 -0.5467 -0.4147
    4DOPE   O11  401   6.728   2.257  16.922  0.0723  0.7530 -0.0511
    4DOPE   O12  402   6.480   2.220  16.931 -0.2941  0.2195  0.6439
    4DOPE    C1  403   6.816   2.156  16.877 -0.3796 -0.2150  1.0523
    4DOPE    HA  404   6.769   2.056  16.872 -0.0383 -0.3163 -0.6190
    4DOPE    HB  405   6.902   2.160  16.948 -0.1922  0.3915  0.8046
    4DOPE    C2  406   6.879   2.186  16.734 -0.1972  0.1217  0.1410
    4DOPE    HS  407   6.950   2.271  16.749  0.3510  0.2587 -2.6900
    4DOPE   O21  408   6.775   2.223  16.644  0.0764  0.1268 -0.3346
    4DOPE   C21  409   6.815   2.286  16.538 -0.0592 -0.4200  0.2102
    4DOPE   O22  410   6.931   2.324  16.516 -0.1112  0.8988 -0.1190
    4DOPE   C22  411   6.690   2.295  16.449  0.2018  0.1031  0.2929
    4DOPE   H2R  412   6.596   2.310  16.507 -0.0567 -4.4466  1.3929
    4DOPE   H2S  413   6.672   2.197  16.400  0.4692 -1.1214  2.5046
    4DOPE    C3  414   6.978   2.068  16.693  0.3829  0.0612 -0.0912
    4DOPE    HX  415   7.024   2.034  16.788  0.5164  1.7565  0.4934
    4DOPE    HY  416   7.062   2.111  16.635  0.2760  1.7693  0.9503
    4DOPE   O31  417   6.902   1.966  16.625 -0.2517  0.2868  0.5669
    4DOPE   C31  418   6.885   1.849  16.685  0.2079 -0.5089  0.5561
    4DOPE   O32  419   6.924   1.815  16.792 -0.4019  0.1688 -0.2119
    4DOPE   C32  420   6.779   1.766  16.611 -0.7532  0.0480 -0.4439
    4DOPE   H2X  421   6.820   1.744  16.510 -2.3002 -1.3843 -0.7959
    4DOPE   H2Y  422   6.774   1.674  16.673  0.0844  0.0734 -0.3333
    4DOPE   C23  423   6.707   2.396  16.333  0.2016  0.1158  0.5354
    4DOPE   H3R  424   6.797   2.363  16.276 -0.7427  0.0381 -0.9698
    4DOPE   H3S  425   6.729   2.500  16.364  1.9338  0.4730 -1.6363
    4DOPE   C24  426   6.584   2.385  16.235  0.3256 -0.4799  0.6779
    4DOPE   H4R  427   6.499   2.432  16.289 -0.0786  0.9809 -1.1419
    4DOPE   H4S  428   6.561   2.278  16.216  0.4345 -0.2491 -0.8891
    4DOPE   C25  429   6.610   2.458  16.100  0.4371 -0.3530 -0.3960
    4DOPE   H5R  430   6.697   2.424  16.041  0.5515 -1.6825  0.5016
    4DOPE   H5S  431   6.630   2.566  16.117  0.8777 -0.4370 -0.3507
    4DOPE   C26  432   6.496   2.452  15.995  0.7906 -0.7335 -0.3008
    4DOPE   H6R  433   6.412   2.511  16.039  1.6532  1.2680 -1.1950
    4DOPE   H6S  434   6.457   2.349  15.983 -3.1125  0.2632  1.8605
    4DOPE   C27  435   6.538   2.523  15.862  0.2165  0.1613 -0.2615
    4DOPE   H7R  436   6.630   2.470  15.828 -0.5584 -1.4950  0.1238
    4DOPE   H7S  437   6.579   2.623  15.889  2.0498 -1.1703  2.3897
    4DOPE   C28  438   6.431   2.523  15.750 -0.2701  0.2863 -0.1649
    4DOPE   H8R  439   6.349   2.585  15.792 -0.2677  0.0792  0.1531
    4DOPE   H8S  440   6.401   2.416  15.743  3.1958 -0.8598  0.2695
    4DOPE   C29  441   6.495   2.579  15.627 -0.3651 -0.0974 -0.2919
    4DOPE   H9R  442   6.507   2.688  15.621  1.9530 -0.3085 -0.4718
    4DOPE  C210  443   6.507   2.512  15.511 -0.9193  0.0591 -0.6818
    4DOPE  H10R  444   6.545   2.568  15.424 -5.1808  0.9180 -2.2580
    4DOPE  C211  445   6.475   2.367  15.478  0.6714 -0.4395 -0.0649
    4DOPE  H11R  446   6.390   2.364  15.407  1.3175  0.2176 -0.8814
    4DOPE  H11S  447   6.442   2.312  15.569  0.5581  0.6555  0.5739
    4DOPE  C212  448   6.574   2.286  15.399  0.4437 -0.1248 -1.2001
    4DOPE  H12R  449   6.667   2.274  15.458  0.6799 -1.8312 -1.8575
    4DOPE  H12S  450   6.599   2.347  15.309 -1.8285  1.2010 -0.9932
    4DOPE  C213  451   6.517   2.155  15.359 -0.1711  0.6647  0.2454
    4DOPE  H13R  452   6.434   2.137  15.431 -0.6951  1.6100 -0.1148
    4DOPE  H13S  453   6.591   2.073  15.374 -0.6763  0.4933  2.0661
    4DOPE  C214  454   6.469   2.152  15.217 -0.4575  0.0603 -0.7562
    4DOPE  H14R  455   6.560   2.150  15.152  0.1330 -0.8842  0.0665
    4DOPE  H14S  456   6.398   2.237  15.210 -1.6007 -0.8061 -0.0293
    4DOPE  C215  457   6.377   2.031  15.200 -0.1642  0.3438 -0.1501
    4DOPE  H15R  458   6.311   2.020  15.289 -0.3387  1.0597 -0.1842
    4DOPE  H15S  459   6.436   1.937  15.199  0.1516  0.4841  1.8884
    4DOPE  C216  460   6.303   2.039  15.064 -0.7968 -0.2696  0.1400
    4DOPE  H16R  461   6.375   2.093  14.998 -0.9424 -0.3318 -0.0687
    4DOPE  H16S  462   6.218   2.111  15.074  0.9574  1.6812  2.4694
    4DOPE  C217  463   6.281   1.908  14.992 -0.5484 -0.4384 -0.6148
    4DOPE  H17R  464   6.202   1.856  15.049 -0.6623  1.9622  1.6172
    4DOPE  H17S  465   6.368   1.840  14.992 -1.1770 -1.2509 -0.5978
    4DOPE  C218  466   6.226   1.913  14.849  0.2248  0.6326 -0.3603
    4DOPE  H18R  467   6.193   1.809  14.827  0.6063  0.2376  0.8479
    4DOPE  H18S  468   6.291   1.953  14.767 -0.0683  1.0681 -0.3850
    4DOPE  H18T  469   6.140   1.982  14.857 -0.7702 -0.7757  2.6719
    4DOPE   C33  470   6.654   1.841  16.598 -0.2725  0.1589 -0.0078
    4DOPE   H3X  471   6.668   1.940  16.549  0.5944  0.0361 -0.0384
    4DOPE   H3Y  472   6.608   1.837  16.699 -2.1175 -0.3379 -0.8239
    4DOPE   C34  473   6.559   1.764  16.508  0.0499 -0.3107  0.1312
    4DOPE   H4X  474   6.489   1.832  16.454  0.1849 -1.5194 -1.6845
    4DOPE   H4Y  475   6.627   1.727  16.429  0.0404  2.7120 -1.4581
    4DOPE   C35  476   6.488   1.637  16.563  0.3594 -0.4577 -0.1686
    4DOPE   H5X  477   6.408   1.676  16.630  1.2460  1.7628 -0.3462
    4DOPE   H5Y  478   6.567   1.592  16.627 -0.8632 -0.0078  1.7380
    4DOPE   C36  479   6.437   1.542  16.457 -0.0240  0.2576 -0.9403
    4DOPE   H6X  480   6.381   1.465  16.515 -1.3510  1.7901 -0.0907
    4DOPE   H6Y  481   6.530   1.497  16.416 -0.4539  1.0813 -2.9515
    4DOPE   C37  482   6.350   1.595  16.346 -0.0953  0.0145 -0.2686
    4DOPE   H7X  483   6.268   1.659  16.383  1.2360  1.8548 -0.3602
    4DOPE   H7Y  484   6.405   1.654  16.269  0.5602  2.9679  2.2399
    4DOPE   C38  485   6.276   1.485  16.270 -0.1795  0.4484 -0.0858
    4DOPE   H8X  486   6.201   1.543  16.211  0.0742  0.2302 -0.6324
    4DOPE   H8Y  487   6.226   1.425  16.349 -1.5936  0.1827 -1.1394
    4DOPE   C39  488   6.357   1.400  16.180 -0.0310  0.1343  0.2072
    4DOPE   H9X  489   6.445   1.351  16.225  0.2335  1.4837  1.2116
    4DOPE  C310  490   6.335   1.384  16.052  0.2704 -0.3835  0.4392
    4DOPE  H10X  491   6.416   1.343  15.990 -0.1816  1.4292 -1.4822
    4DOPE  C311  492   6.221   1.441  15.962  0.1300  0.8345 -0.3685
    4DOPE  H11X  493   6.159   1.350  15.947 -0.6085  1.4871 -1.3784
    4DOPE  H11Y  494   6.148   1.506  16.015 -1.4110 -0.0056 -1.3866
    4DOPE  C312  495   6.261   1.505  15.824  0.0429  0.4422 -0.5680
    4DOPE  H12X  496   6.326   1.589  15.856  0.0051 -0.0403  0.8587
    4DOPE  H12Y  497   6.170   1.553  15.781 -0.5017  1.0797  1.2091
    4DOPE  C313  498   6.333   1.413  15.723 -0.0963 -0.5620  0.1513
    4DOPE  H13X  499   6.417   1.367  15.779  1.2039  0.1198 -1.1459
    4DOPE  H13Y  500   6.271   1.328  15.688 -2.0634  1.1379 -0.7223
    4DOPE  C314  501   6.387   1.490  15.594  0.4869  0.1076  0.4287
    4DOPE  H14X  502   6.463   1.427  15.545  2.0899  1.1401  1.5090
    4DOPE  H14Y  503   6.427   1.589  15.624  0.7845  0.5156 -1.2380
    4DOPE  C315  504   6.268   1.516  15.495 -0.4849 -0.4891  0.0147
    4DOPE  H15X  505   6.192   1.586  15.536 -0.9794 -1.3915  0.6926
    4DOPE  H15Y  506   6.218   1.417  15.486  1.7042 -1.7663  1.1488
    4DOPE  C316  507   6.302   1.553  15.346 -0.8847  0.1324 -0.5189
    4DOPE  H16X  508   6.389   1.491  15.314 -0.4601  0.3645  0.1530
    4DOPE  H16Y  509   6.342   1.657  15.344  0.5090 -0.3480  0.2738
    4DOPE  C317  510   6.180   1.534  15.263 -0.0119 -0.3419 -0.1031
    4DOPE  H17X  511   6.148   1.430  15.285 -0.1564 -0.6285 -1.5345
    4DOPE  H17Y  512   6.099   1.602  15.294 -0.8506 -2.4861  2.7812
    4DOPE  C318  513   6.206   1.538  15.112  0.0283 -0.3435 -0.0411
    4DOPE  H18X  514   6.234   1.643  15.090  0.1952 -0.2650  0.5421
    4DOPE  H18Y  515   6.280   1.459  15.091 -0.1333 -0.3117 -0.7657
    4DOPE  H18Z  516   6.111   1.514  15.059 -0.5419 -2.7158  1.8659
    5DOPE     N  517   3.789   4.173  17.186 -0.3745  0.2440 -0.4124
    5DOPE   HN1  518   3.864   4.135  17.248  0.7747  1.5389 -0.9572
    5DOPE   HN2  519   3.786   4.277  17.181 -1.6890  0.1618 -1.9777
    5DOPE   HN3  520   3.700   4.138  17.227  1.1805 -3.0071  0.5210
    5DOPE   C12  521   3.802   4.125  17.046  0.1463  0.1428  0.8503
    5DOPE  H12A  522   3.720   4.175  16.990 -0.7512 -0.0020  1.9886
    5DOPE  H12B  523   3.785   4.015  17.044  1.1771 -0.0326 -1.2623
    5DOPE   C11  524   3.934   4.172  16.983  0.2643  0.6490 -0.3690
    5DOPE  H11A  525   3.939   4.283  16.986  0.1128  0.6466  0.0861
    5DOPE  H11B  526   3.943   4.152  16.874 -1.5950  0.2542 -0.4954
    5DOPE     P  527   4.091   3.967  17.004 -0.1608 -0.1569 -0.2571
    5DOPE   O13  528   3.975   3.886  16.975  0.1190  0.2017  0.2486
    5DOPE   O14  529   4.183   3.918  17.105  0.0783 -0.1137 -0.4236
    5DOPE   O11  530   4.169   3.985  16.870 -0.0587 -0.2329 -0.2834
    5DOPE   O12  531   4.044   4.108  17.050  0.2044  0.1219 -0.2121
    5DOPE    C1  532   4.229   4.112  16.826  0.1525 -0.0321 -0.4101
    5DOPE    HA  533   4.232   4.182  16.912 -4.7565 -0.1489  0.1231
    5DOPE    HB  534   4.175   4.165  16.744 -0.4900 -0.0541 -0.0028
    5DOPE    C2  535   4.380   4.100  16.783 -0.0247  0.3977  0.0876
    5DOPE    HS  536   4.423   4.202  16.796  0.0696  0.3109  0.4925
    5DOPE   O21  537   4.388   4.050  16.646  0.4477  0.2188 -1.1850
    5DOPE   C21  538   4.342   4.125  16.554  0.3193 -0.2048  0.8115
    5DOPE   O22  539   4.304   4.242  16.562  0.4261 -0.3540  0.1991
    5DOPE   C22  540   4.372   4.055  16.419  0.1516 -0.0078  0.4570
    5DOPE   H2R  541   4.286   3.989  16.393 -0.2210 -0.5183  2.8143
    5DOPE   H2S  542   4.464   3.993  16.414  0.1281  0.0308 -1.7351
    5DOPE    C3  543   4.478   4.019  16.877 -0.7757 -0.3780 -0.6875
    5DOPE    HX  544   4.453   3.910  16.871  1.6267 -0.8697 -3.3060
    5DOPE    HY  545   4.457   4.045  16.983  1.6611 -1.5535  0.1414
    5DOPE   O31  546   4.617   4.042  16.843  0.5956 -0.1953 -0.1676
    5DOPE   C31  547   4.669   3.961  16.753  0.5780  0.8197  0.3713
    5DOPE   O32  548   4.626   3.858  16.708  0.0011 -0.2704  0.0735
    5DOPE   C32  549   4.807   4.006  16.719 -0.1766  0.0060  0.3394
    5DOPE   H2X  550   4.868   4.013  16.812 -1.5994 -0.1551  1.3133
    5DOPE   H2Y  551   4.843   3.925  16.653 -0.8056  0.4583 -0.5688
    5DOPE   C23  552   4.372   4.155  16.303 -0.2642 -0.5517  0.3389
    5DOPE   H3R  553   4.467   4.213  16.304 -1.2671  1.1519 -0.3572
    5DOPE   H3S  554   4.292   4.231  16.310  1.5236  1.6106 -1.2656
    5DOPE   C24  555   4.341   4.101  16.168 -0.2100  0.8167 -0.6061
    5DOPE   H4R  556   4.247   4.042  16.177  0.7285 -0.5354  0.8097
    5DOPE   H4S  557   4.411   4.018  16.143 -2.5463 -1.4774  0.0608
    5DOPE   C25  558   4.333   4.216  16.067  0.8365  0.0468  0.3829
    5DOPE   H5R  559   4.430   4.270  16.064  0.7059  0.2771  0.2773
    5DOPE   H5S  560   4.247   4.276  16.103  0.8800  0.3152  0.0427
    5DOPE   C26  561   4.299   4.166  15.926 -0.0742 -0.2023 -0.0812
    5DOPE   H6R  562   4.383   4.100  15.895  2.3315  2.2911  0.6788
    5DOPE   H6S  563   4.301   4.245  15.848  3.3552 -0.9217 -0.8865
    5DOPE   C27  564   4.164   4.091  15.911 -0.4112  0.1524  0.7210
    5DOPE   H7R  565   4.087   4.146  15.969 -2.0943 -0.2133 -1.0729
    5DOPE   H7S  566   4.164   3.986  15.948 -0.7518  0.3086  1.1824
    5DOPE   C28  567   4.117   4.086  15.761 -0.3310 -0.1197 -0.1806
    5DOPE   H8R  568   4.191   4.014  15.717  1.1643  0.5354  1.1610
    5DOPE   H8S  569   4.129   4.185  15.711 -0.2995  0.0681  0.2011
    5DOPE   C29  570   3.977   4.035  15.731  0.1334  0.0041 -0.2173
    5DOPE   H9R  571   3.900   4.113  15.725  1.4666  1.4593  0.7042
    5DOPE  C210  572   3.944   3.913  15.683 -0.3144 -0.1536 -0.1140
    5DOPE  H10R  573   3.840   3.900  15.650 -0.5766 -2.5927  1.3796
    5DOPE  C211  574   4.037   3.796  15.652 -0.1028  0.0657  0.0008
    5DOPE  H11R  575   3.979   3.709  15.690 -1.2437  1.0914  0.6957
    5DOPE  H11S  576   4.132   3.804  15.708 -0.3875  2.2096  0.2987
    5DOPE  C212  577   4.081   3.754  15.509  0.3418 -0.1978  0.1068
    5DOPE  H12R  578   4.000   3.714  15.445  0.8094  0.2460 -0.7794
    5DOPE  H12S  579   4.140   3.663  15.533 -1.6900 -2.1270 -1.7543
    5DOPE  C213  580   4.159   3.857  15.431  0.2002 -0.6484 -0.0361
    5DOPE  H13R  581   4.221   3.917  15.500 -0.4819 -0.3998  0.3698
    5DOPE  H13S  582   4.080   3.924  15.392 -0.5975 -1.3541  0.3104
    5DOPE  C214  583   4.243   3.789  15.325  0.9575 -0.4236 -0.5327
    5DOPE  H14R  584   4.166   3.731  15.270  0.3226 -0.0127 -0.0883
    5DOPE  H14S  585   4.311   3.711  15.365  3.6069  2.4185  0.8708
    5DOPE  C215  586   4.315   3.873  15.226 -0.0690  0.2327  0.3695
    5DOPE  H15R  587   4.389   3.933  15.283  0.5293  0.5704 -0.7358
    5DOPE  H15S  588   4.238   3.943  15.186 -0.1515  1.0771  1.9369
    5DOPE  C216  589   4.376   3.781  15.123  0.2563  0.2246  0.4487
    5DOPE  H16R  590   4.314   3.692  15.100  3.3345 -2.0318  0.1639
    5DOPE  H16S  591   4.465   3.734  15.170 -0.2700  0.3214  1.6016
    5DOPE  C217  592   4.418   3.856  14.998 -0.3659 -0.3893 -0.1473
    5DOPE  H17R  593   4.326   3.902  14.955 -0.5389 -1.1648 -0.6310
    5DOPE  H17S  594   4.471   3.783  14.932 -0.6207 -2.1976  1.5590
    5DOPE  C218  595   4.516   3.973  15.032 -0.4662  0.3095 -0.1002
    5DOPE  H18R  596   4.458   4.055  15.079 -0.7189  0.9560 -1.4768
    5DOPE  H18S  597   4.554   4.022  14.939 -1.3600 -0.4102 -0.8650
    5DOPE  H18T  598   4.611   3.938  15.079 -0.9571 -0.7159  0.1721
    5DOPE   C33  599   4.809   4.140  16.644  0.0175 -0.5755  0.1059
    5DOPE   H3X  600   4.907   4.188  16.663  0.1800 -0.5047 -0.8506
    5DOPE   H3Y  601   4.728   4.203  16.687  0.3265 -0.7448  0.9488
    5DOPE   C34  602   4.787   4.131  16.493  0.2498 -0.1488  0.7435
    5DOPE   H4X  603   4.857   4.068  16.434 -1.0891  0.8945 -2.1623
    5DOPE   H4Y  604   4.684   4.090  16.480  0.2546  0.5007 -1.8107
    5DOPE   C35  605   4.781   4.262  16.420 -0.7220  0.5123  0.4478
    5DOPE   H5X  606   4.870   4.319  16.457 -0.8469  0.1772  1.2866
    5DOPE   H5Y  607   4.692   4.315  16.461 -0.2779  0.5830  1.3404
    5DOPE   C36  608   4.762   4.254  16.266  0.2287 -0.1938  0.2264
    5DOPE   H6X  609   4.698   4.338  16.233 -1.5014 -1.1800  0.9507
    5DOPE   H6Y  610   4.702   4.163  16.244  1.6741 -0.9323 -0.7963
    5DOPE   C37  611   4.896   4.237  16.192  0.5769 -0.1071 -0.1767
    5DOPE   H7X  612   4.969   4.310  16.234 -1.0876  0.7453  1.3612
    5DOPE   H7Y  613   4.944   4.141  16.220  0.0993 -0.2020  0.3396
    5DOPE   C38  614   4.894   4.271  16.043  0.6018 -0.2476  0.0469
    5DOPE   H8X  615   4.999   4.281  16.006  0.9391  0.0600  1.0575
    5DOPE   H8Y  616   4.844   4.369  16.028  2.7161  1.1320  1.4142
    5DOPE   C39  617   4.816   4.169  15.963  0.1467 -0.9247 -0.0693
    5DOPE   H9X  618   4.727   4.128  16.013  1.1946 -0.0342  2.7558
    5DOPE  C310  619   4.860   4.105  15.852 -0.4572  0.0407 -0.8594
    5DOPE  H10X  620   4.800   4.020  15.818  2.5538 -2.2039 -0.9675
    5DOPE  C311  621   4.996   4.127  15.783  0.1860  0.5318 -0.1190
    5DOPE  H11X  622   5.051   4.208  15.836  0.3884  0.2601  0.0875
    5DOPE  H11Y  623   5.065   4.041  15.796  1.2909  0.9541 -2.5348
    5DOPE  C312  624   4.999   4.176  15.637  0.8002  0.2725 -1.0698
    5DOPE  H12X  625   4.923   4.256  15.629  0.1822 -0.2450 -0.4903
    5DOPE  H12Y  626   4.966   4.093  15.570 -0.6026  0.5628 -0.7596
    5DOPE  C313  627   5.139   4.229  15.600  1.3431  0.7058  0.0900
    5DOPE  H13X  628   5.172   4.302  15.676 -1.0911  3.0571 -0.9700
    5DOPE  H13Y  629   5.210   4.144  15.602  0.1921 -0.2893  1.5418
    5DOPE  C314  630   5.143   4.282  15.458 -0.1882  0.4169 -0.3540
    5DOPE  H14X  631   5.101   4.385  15.454 -0.5828  0.2290 -1.3799
    5DOPE  H14Y  632   5.076   4.235  15.383  1.2593  1.1758 -2.2045
    5DOPE  C315  633   5.286   4.288  15.404  0.1278  0.0797 -0.6350
    5DOPE  H15X  634   5.332   4.188  15.414 -1.3113 -0.6987 -1.4568
    5DOPE  H15Y  635   5.349   4.357  15.464 -1.7612 -1.1989  3.1004
    5DOPE  C316  636   5.299   4.313  15.258 -0.0246 -0.3460  0.0556
    5DOPE  H16X  637   5.268   4.223  15.201  3.2882 -1.2010 -0.5912
    5DOPE  H16Y  638   5.408   4.330  15.242  0.1243 -0.7191  0.6536
    5DOPE  C317  639   5.231   4.440  15.206  0.9073 -0.1244  0.3384
    5DOPE  H17X  640   5.124   4.424  15.231  1.2952 -2.4256  0.6770
    5DOPE  H17Y  641   5.272   4.527  15.263 -0.4448  1.9047 -1.6173
    5DOPE  C318  642   5.238   4.436  15.052 -0.6376 -0.1645  0.4375
    5DOPE  H18X  643   5.180   4.524  15.017 -0.1074  0.3364  0.7831
    5DOPE  H18Y  644   5.341   4.455  15.013 -0.6712 -0.3818  0.2376
    5DOPE  H18Z  645   5.193   4.343  15.010  1.1153 -1.7189  1.8457
    6DOPE     N  646   3.338   3.675  16.649 -0.3861 -0.5132  0.1732
    6DOPE   HN1  647   3.416   3.609  16.630 -1.0138 -0.3363 -3.8705
    6DOPE   HN2  648   3.300   3.679  16.746  1.4638  2.5424  0.9127
    6DOPE   HN3  649   3.267   3.646  16.579 -2.1227 -0.3306  1.7918
    6DOPE   C12  650   3.380   3.820  16.610 -0.5576 -0.0097 -0.1753
    6DOPE  H12A  651   3.445   3.826  16.520 -2.7485 -1.0622 -1.9299
    6DOPE  H12B  652   3.434   3.864  16.697  1.6391  0.3751 -1.6615
    6DOPE   C11  653   3.251   3.899  16.593 -0.1859 -0.2990 -0.4833
    6DOPE  H11A  654   3.197   3.865  16.501 -0.1206  0.3150 -0.7523
    6DOPE  H11B  655   3.296   3.998  16.571 -0.1963 -0.5667 -1.7929
    6DOPE     P  656   3.191   4.008  16.833  0.2224 -0.2221 -0.1015
    6DOPE   O13  657   3.336   4.012  16.862 -1.1379 -0.3870  0.3774
    6DOPE   O14  658   3.105   3.961  16.947 -0.0847 -0.0964  0.4291
    6DOPE   O11  659   3.143   4.148  16.766  0.2148  0.3569 -0.5529
    6DOPE   O12  660   3.174   3.905  16.713 -0.1662  0.5814 -0.0619
    6DOPE    C1  661   3.006   4.147  16.725 -0.0405  0.1572  0.6928
    6DOPE    HA  662   2.935   4.202  16.792 -0.4119 -0.2460  0.6366
    6DOPE    HB  663   2.968   4.044  16.706  0.9095 -0.1047  0.1676
    6DOPE    C2  664   2.997   4.210  16.578  0.1869  0.3620 -0.4710
    6DOPE    HS  665   3.058   4.146  16.511 -0.0807 -2.5990  1.8830
    6DOPE   O21  666   3.062   4.338  16.589  0.5028  0.3727 -0.2540
    6DOPE   C21  667   3.109   4.382  16.467  0.9709  0.4332 -0.1682
    6DOPE   O22  668   3.109   4.315  16.363 -0.1083  0.3176  0.8428
    6DOPE   C22  669   3.143   4.527  16.470 -0.2419  0.6012 -0.2713
    6DOPE   H2R  670   3.240   4.548  16.420  1.5459 -2.7637  1.4441
    6DOPE   H2S  671   3.165   4.545  16.577  0.8146 -0.3793 -0.3045
    6DOPE    C3  672   2.848   4.214  16.515 -0.3944  0.0050 -0.0570
    6DOPE    HX  673   2.782   4.275  16.581 -0.8387 -0.1486 -0.3532
    6DOPE    HY  674   2.798   4.116  16.531  0.4250  0.0304  3.3723
    6DOPE   O31  675   2.830   4.255  16.375 -0.0005  0.9491 -0.2854
    6DOPE   C31  676   2.865   4.170  16.284 -0.2091  0.0119  0.3717
    6DOPE   O32  677   2.904   4.059  16.302 -0.3507 -0.1922  0.6629
    6DOPE   C32  678   2.836   4.233  16.145 -0.3253  0.4642  0.3002
    6DOPE   H2X  679   2.736   4.192  16.123 -0.2872 -1.5377  3.2831
    6DOPE   H2Y  680   2.861   4.341  16.141  3.6116 -0.2823  0.7647
    6DOPE   C23  681   3.036   4.620  16.404  0.5369 -0.2957 -0.0136
    6DOPE   H3R  682   3.047   4.727  16.431 -1.1465  0.0695 -0.6211
    6DOPE   H3S  683   2.940   4.581  16.445  0.2900  0.1169 -0.1917
    6DOPE   C24  684   3.042   4.600  16.251 -0.0137  0.0228 -0.4606
    6DOPE   H4R  685   3.000   4.504  16.215 -2.4046  1.2784 -1.2324
    6DOPE   H4S  686   3.151   4.602  16.230  0.1362 -0.2917  0.2584
    6DOPE   C25  687   2.967   4.713  16.171 -0.3198 -0.6543  0.0529
    6DOPE   H5R  688   3.022   4.810  16.172  1.4708 -1.5841 -1.4159
    6DOPE   H5S  689   2.871   4.718  16.226 -0.2032  0.0105  0.2027
    6DOPE   C26  690   2.947   4.676  16.028 -0.2399 -0.1156 -0.0638
    6DOPE   H6R  691   2.887   4.582  16.026  0.7015 -0.8145  2.1510
    6DOPE   H6S  692   3.040   4.660  15.970  0.5353 -1.8769  1.5514
    6DOPE   C27  693   2.866   4.771  15.945 -0.5748 -0.2655 -0.1986
    6DOPE   H7R  694   2.908   4.873  15.960 -1.8659  0.6384 -2.3108
    6DOPE   H7S  695   2.761   4.759  15.980 -0.0845 -1.9686  0.7691
    6DOPE   C28  696   2.886   4.737  15.800 -0.0251  0.3537  0.9509
    6DOPE   H8R  697   2.804   4.787  15.744  0.9340 -1.2444 -2.1376
    6DOPE   H8S  698   2.883   4.626  15.788  3.1959  0.2447  0.0560
    6DOPE   C29  699   3.002   4.789  15.714  0.6276 -0.1330  0.2930
    6DOPE   H9R  700   3.068   4.866  15.757  0.0300 -0.8263  2.6078
    6DOPE  C210  701   3.038   4.743  15.593  0.5177 -0.0009 -0.0837
    6DOPE  H10R  702   3.134   4.778  15.555  0.5356 -0.7419 -0.7426
    6DOPE  C211  703   2.973   4.625  15.518  0.1142 -0.3618  0.1562
    6DOPE  H11R  704   2.898   4.579  15.586  0.8418  2.1418  2.8650
    6DOPE  H11S  705   3.054   4.552  15.500  0.1562  0.2530 -2.6544
    6DOPE  C212  706   2.897   4.645  15.387 -0.0936 -0.1184  0.6396
    6DOPE  H12R  707   2.865   4.540  15.371  1.6689 -0.9411  2.1499
    6DOPE  H12S  708   2.959   4.686  15.305  1.0285  0.3756  1.7077
    6DOPE  C213  709   2.765   4.717  15.385  0.9563  0.1123 -0.1607
    6DOPE  H13R  710   2.786   4.826  15.392 -0.7084  0.3700  2.1762
    6DOPE  H13S  711   2.710   4.682  15.475  0.5642  0.4164 -0.2790
    6DOPE  C214  712   2.676   4.679  15.272  0.1370  0.4005 -0.7755
    6DOPE  H14R  713   2.649   4.573  15.293 -0.4455  0.9780  1.5699
    6DOPE  H14S  714   2.726   4.683  15.172  0.9059  0.1639 -0.4093
    6DOPE  C215  715   2.541   4.749  15.268  0.3630 -0.2160 -0.2819
    6DOPE  H15R  716   2.559   4.859  15.264 -2.2335  0.3422  0.8085
    6DOPE  H15S  717   2.487   4.724  15.362 -0.1128  1.6906  0.0036
    6DOPE  C216  718   2.454   4.704  15.149  0.4269 -0.3100 -0.0771
    6DOPE  H16R  719   2.447   4.593  15.148 -0.9587 -0.2401 -0.4370
    6DOPE  H16S  720   2.504   4.725  15.052  2.5326 -1.1909  0.7452
    6DOPE  C217  721   2.318   4.776  15.161 -0.3453 -0.4317  0.4703
    6DOPE  H17R  722   2.338   4.871  15.214  0.5714  0.3360 -1.1496
    6DOPE  H17S  723   2.246   4.716  15.220 -1.3706 -0.6413 -0.9250
    6DOPE  C218  724   2.247   4.809  15.027  0.4537  0.8337  0.1158
    6DOPE  H18R  725   2.153   4.862  15.056 -0.4105 -0.9547  0.7140
    6DOPE  H18S  726   2.235   4.715  14.969 -2.0725  1.0972  0.0891
    6DOPE  H18T  727   2.306   4.871  14.956 -2.3754  1.3375 -1.9585
    6DOPE   C33  728   2.932   4.166  16.033 -0.1808 -0.7419 -0.0606
    6DOPE   H3X  729   2.902   4.066  15.995 -1.7121 -0.4520  0.3094
    6DOPE   H3Y  730   3.035   4.150  16.072 -0.0849 -1.1235 -0.4680
    6DOPE   C34  731   2.929   4.243  15.907  0.2055  0.7692 -0.1434
    6DOPE   H4X  732   2.831   4.226  15.857  0.5997 -0.5292 -0.5114
    6DOPE   H4Y  733   2.925   4.353  15.923  0.7294  1.6199 -4.5547
    6DOPE   C35  734   3.046   4.221  15.814  0.5264  0.4851  0.3092
    6DOPE   H5X  735   3.042   4.112  15.791  0.0077  0.9701 -2.1915
    6DOPE   H5Y  736   3.141   4.253  15.861  0.7750 -0.6861  0.6359
    6DOPE   C36  737   3.036   4.295  15.687  0.6746 -0.5367 -0.1457
    6DOPE   H6X  738   3.045   4.403  15.712  1.4288 -1.0276  1.8968
    6DOPE   H6Y  739   2.934   4.278  15.646 -0.4586 -2.5847  3.1208
    6DOPE   C37  740   3.136   4.271  15.581  0.3508 -0.6183 -0.3510
    6DOPE   H7X  741   3.138   4.348  15.501  1.1436  3.3580  3.1573
    6DOPE   H7Y  742   3.236   4.279  15.627  0.2243 -0.5153 -0.0940
    6DOPE   C38  743   3.115   4.126  15.526 -0.2408  0.4892 -0.0522
    6DOPE   H8X  744   3.010   4.104  15.497 -0.9024  1.4814  1.4481
    6DOPE   H8Y  745   3.141   4.065  15.615  0.4754 -0.1661 -0.7060
    6DOPE   C39  746   3.224   4.103  15.421  0.7530  0.7341 -0.2245
    6DOPE   H9X  747   3.320   4.120  15.471  1.5422 -0.4023 -1.2819
    6DOPE  C310  748   3.222   4.083  15.292 -0.0875 -0.1179  0.5626
    6DOPE  H10X  749   3.315   4.053  15.242 -0.4987  0.4987 -0.6208
    6DOPE  C311  750   3.099   4.079  15.207 -0.4003 -0.8690  0.5002
    6DOPE  H11X  751   3.108   3.990  15.141  0.5556 -2.8421  3.1027
    6DOPE  H11Y  752   3.007   4.081  15.270  0.4206 -0.9534  1.7475
    6DOPE  C312  753   3.102   4.203  15.116 -0.0163  0.3029 -0.1414
    6DOPE  H12X  754   3.017   4.190  15.046  0.8231  1.5284 -1.4233
    6DOPE  H12Y  755   3.200   4.213  15.066 -0.3778 -1.0584 -1.2048
    6DOPE  C313  756   3.085   4.330  15.195  0.0158  0.0776  0.1172
    6DOPE  H13X  757   2.994   4.336  15.257  0.3444  1.2616  0.5049
    6DOPE  H13Y  758   3.174   4.339  15.260  0.7518 -0.5493 -0.7688
    6DOPE  C314  759   3.085   4.459  15.112 -0.1573  0.0566  0.4939
    6DOPE  H14X  760   3.192   4.472  15.085  0.1624  0.0659  1.6934
    6DOPE  H14Y  761   3.054   4.542  15.179 -0.7458  0.4287 -0.2298
    6DOPE  C315  762   2.996   4.463  14.987  0.0075  0.3563 -0.0841
    6DOPE  H15X  763   2.890   4.448  15.016  0.1755 -2.2471 -0.6044
    6DOPE  H15Y  764   3.021   4.374  14.926  0.0078  1.6686 -2.1110
    6DOPE  C316  765   3.009   4.587  14.893  0.5305  0.2055  0.3308
    6DOPE  H16X  766   3.008   4.549  14.789 -0.2214  0.2527  0.3220
    6DOPE  H16Y  767   3.108   4.630  14.919  0.8451 -1.5006  2.2739
    6DOPE  C317  768   2.893   4.687  14.900 -0.3660 -0.1352  0.0423
    6DOPE  H17X  769   2.806   4.646  14.845  0.3655 -2.4290  0.4919
    6DOPE  H17Y  770   2.850   4.691  15.002 -0.1308  1.1496  0.1061
    6DOPE  C318  771   2.930   4.826  14.851 -0.6338 -0.3824  0.1010
    6DOPE  H18X  772   2.955   4.832  14.743 -1.6518  1.5241 -0.0893
    6DOPE  H18Y  773   2.852   4.904  14.864 -0.3261  0.1614 -1.1002
    6DOPE  H18Z  774   3.014   4.877  14.903  0.9260 -1.8828 -0.8645
    7DOPE     N  775   5.049   5.653  16.830  0.3226  0.5869  0.5430
    7DOPE   HN1  776   5.102   5.627  16.745  0.2981 -0.8614  0.9337
    7DOPE   HN2  777   5.020   5.568  16.883 -4.3572  2.8110  2.1461
    7DOPE   HN3  778   4.965   5.701  16.794 -0.3629 -1.3573 -0.6044
    7DOPE   C12  779   5.128   5.755  16.910 -0.3004  0.1717 -0.5248
    7DOPE  H12A  780   5.068   5.756  17.004 -1.0792 -1.0243 -0.9911
    7DOPE  H12B  781   5.119   5.857  16.867 -1.3355  0.6861  0.8407
    7DOPE   C11  782   5.268   5.704  16.949  0.2028  0.7744  0.1520
    7DOPE  H11A  783   5.265   5.597  16.978  1.1288  0.6591 -0.1503
    7DOPE  H11B  784   5.299   5.761  17.039  1.6445 -0.0260  0.1823
    7DOPE     P  785   5.383   5.637  16.727  0.0546 -0.0870  0.1532
    7DOPE   O13  786   5.247   5.588  16.684 -0.0889  0.2485 -0.6054
    7DOPE   O14  787   5.482   5.534  16.761 -0.8897 -0.2872  0.2582
    7DOPE   O11  788   5.439   5.729  16.609 -0.2736  0.4651 -0.3838
    7DOPE   O12  789   5.369   5.735  16.856 -1.1276 -0.7106  0.9002
    7DOPE    C1  790   5.394   5.862  16.600  0.2793  0.1639  0.3466
    7DOPE    HA  791   5.482   5.929  16.612 -0.0677  0.8889 -0.9278
    7DOPE    HB  792   5.322   5.895  16.678 -0.9138 -0.9660 -0.2454
    7DOPE    C2  793   5.338   5.905  16.462 -0.0714  0.2879  0.0597
    7DOPE    HS  794   5.294   6.006  16.473 -3.3122 -1.0483  0.7123
    7DOPE   O21  795   5.236   5.814  16.415  0.6275  0.0800 -0.2711
    7DOPE   C21  796   5.127   5.806  16.490 -1.0661 -0.0331  0.2381
    7DOPE   O22  797   5.102   5.884  16.581 -0.4089 -0.0063 -0.2307
    7DOPE   C22  798   5.051   5.678  16.455  0.1791 -0.3404  0.1337
    7DOPE   H2R  799   5.035   5.619  16.547  0.0084  0.1081  0.3942
    7DOPE   H2S  800   5.106   5.613  16.383  1.5902 -1.6801  2.3212
    7DOPE    C3  801   5.454   5.912  16.354  0.2196  0.0770  0.2371
    7DOPE    HX  802   5.501   5.812  16.339 -0.7614 -0.1115 -2.1384
    7DOPE    HY  803   5.533   5.974  16.402  2.2342 -2.3031  0.2359
    7DOPE   O31  804   5.405   5.973  16.228 -0.0361  0.1731  0.2100
    7DOPE   C31  805   5.482   5.950  16.123  0.0170  0.2339 -1.4436
    7DOPE   O32  806   5.581   5.877  16.123 -0.0127 -0.0169 -0.5206
    7DOPE   C32  807   5.428   6.019  15.996 -0.0615  0.4684 -0.5511
    7DOPE   H2X  808   5.363   5.942  15.950  0.5062 -0.2724 -0.1291
    7DOPE   H2Y  809   5.370   6.107  16.030  0.9592 -0.1827  3.3333
    7DOPE   C23  810   4.914   5.698  16.396  0.0400 -0.0093  0.0687
    7DOPE   H3R  811   4.900   5.773  16.316  1.4580 -0.9313 -1.0852
    7DOPE   H3S  812   4.852   5.745  16.476  0.6961  2.8083 -0.9622
    7DOPE   C24  813   4.844   5.569  16.357  0.9434  0.0308  0.0525
    7DOPE   H4R  814   4.816   5.514  16.450 -0.0716  0.3311 -0.0694
    7DOPE   H4S  815   4.916   5.511  16.296  0.1944  0.7839 -1.6089
    7DOPE   C25  816   4.718   5.583  16.257 -0.0387  0.1765 -0.0124
    7DOPE   H5R  817   4.645   5.653  16.304 -0.6192 -0.7241  0.4589
    7DOPE   H5S  818   4.667   5.486  16.275 -0.7220  0.9117  2.3878
    7DOPE   C26  819   4.753   5.619  16.117  0.0529  0.0654 -0.4376
    7DOPE   H6R  820   4.820   5.550  16.062  1.5168  0.1774  1.1147
    7DOPE   H6S  821   4.810   5.715  16.119 -1.2487  0.8629  1.0476
    7DOPE   C27  822   4.634   5.661  16.029 -0.2971 -0.2162  0.6715
    7DOPE   H7R  823   4.545   5.695  16.086 -1.1058 -0.7474 -0.2257
    7DOPE   H7S  824   4.608   5.576  15.962  1.3017 -0.3555  0.1976
    7DOPE   C28  825   4.661   5.784  15.936  0.0378  0.4178 -0.6362
    7DOPE   H8R  826   4.744   5.746  15.872 -0.8930 -0.1490 -1.5327
    7DOPE   H8S  827   4.703   5.871  15.991 -0.5366  0.5934 -0.4648
    7DOPE   C29  828   4.540   5.816  15.849  0.7175  0.0341  0.0999
    7DOPE   H9R  829   4.463   5.875  15.901 -0.3741 -0.8902 -0.4217
    7DOPE  C210  830   4.528   5.791  15.719 -0.2855  0.3944  0.0923
    7DOPE  H10R  831   4.448   5.850  15.672 -2.4593 -2.6859 -0.3773
    7DOPE  C211  832   4.629   5.729  15.625  0.3151 -0.1251  0.8234
    7DOPE  H11R  833   4.724   5.707  15.679 -1.2089 -1.2261  3.2511
    7DOPE  H11S  834   4.650   5.798  15.540  1.3808 -0.8302  0.4888
    7DOPE  C212  835   4.570   5.594  15.570  0.1892 -0.4928  0.2795
    7DOPE  H12R  836   4.459   5.602  15.566  0.3053  0.9820 -0.5401
    7DOPE  H12S  837   4.598   5.508  15.635  2.3777  0.6986  1.0384
    7DOPE  C213  838   4.617   5.566  15.428  0.2024  0.1167  0.1987
    7DOPE  H13R  839   4.727   5.585  15.422  0.2200  0.2338  0.7723
    7DOPE  H13S  840   4.569   5.644  15.366  1.3600 -0.0395 -0.9410
    7DOPE  C214  841   4.584   5.431  15.386  0.0777  0.2069  0.4721
    7DOPE  H14R  842   4.476   5.412  15.372  0.6617 -3.9734  0.3275
    7DOPE  H14S  843   4.610   5.351  15.459  0.0021 -0.5926 -0.3473
    7DOPE  C215  844   4.668   5.392  15.255  0.2699 -0.1796  0.5981
    7DOPE  H15R  845   4.777   5.408  15.271  0.3509  0.0058 -0.1296
    7DOPE  H15S  846   4.630   5.461  15.177 -0.1119 -1.6499 -0.5708
    7DOPE  C216  847   4.644   5.251  15.207 -0.2512  0.3917 -0.5467
    7DOPE  H16R  848   4.534   5.236  15.205 -0.2866  0.7099 -1.2228
    7DOPE  H16S  849   4.686   5.188  15.289 -2.6491  0.0562  0.4948
    7DOPE  C217  850   4.711   5.217  15.073 -0.6836 -0.3315 -0.4901
    7DOPE  H17R  851   4.714   5.107  15.057  3.7774 -0.8723  2.5411
    7DOPE  H17S  852   4.814   5.252  15.097 -0.4954 -0.8415 -0.5531
    7DOPE  C218  853   4.646   5.276  14.948 -0.3028 -0.1454 -0.1562
    7DOPE  H18R  854   4.651   5.386  14.962 -0.0958 -0.2975  1.0054
    7DOPE  H18S  855   4.539   5.253  14.929 -0.0849  0.6035 -2.6321
    7DOPE  H18T  856   4.702   5.255  14.854  2.8524  1.9426  1.0891
    7DOPE   C33  857   5.527   6.077  15.893  0.1419 -0.0069 -0.3126
    7DOPE   H3X  858   5.614   6.010  15.880  2.4522  2.4614  1.4618
    7DOPE   H3Y  859   5.586   6.160  15.936 -0.2029 -1.1784  2.6541
    7DOPE   C34  860   5.458   6.111  15.759 -0.4078  0.2040 -0.4661
    7DOPE   H4X  861   5.444   6.013  15.707 -2.1867  0.6159 -0.8245
    7DOPE   H4Y  862   5.360   6.160  15.775 -1.2046 -1.7315  0.9237
    7DOPE   C35  863   5.541   6.201  15.661  0.2307  0.1730 -0.6542
    7DOPE   H5X  864   5.646   6.165  15.661  0.2920  0.3520 -1.1105
    7DOPE   H5Y  865   5.546   6.308  15.692  0.7869 -0.0598  0.0942
    7DOPE   C36  866   5.497   6.186  15.516  0.4344  0.7623 -0.3514
    7DOPE   H6X  867   5.396   6.227  15.495 -1.0241 -2.3836 -0.0048
    7DOPE   H6Y  868   5.486   6.081  15.485 -1.2599  1.0998 -0.9992
    7DOPE   C37  869   5.599   6.256  15.420  0.1484  0.0427  0.7163
    7DOPE   H7X  870   5.608   6.363  15.447 -2.7093  0.4909  0.2350
    7DOPE   H7Y  871   5.695   6.201  15.434 -0.6059 -0.7709  3.1970
    7DOPE   C38  872   5.563   6.239  15.267 -0.8979 -0.3541 -0.8366
    7DOPE   H8X  873   5.572   6.131  15.243 -0.4713 -0.0359 -2.1954
    7DOPE   H8Y  874   5.645   6.296  15.219  0.2081 -1.9258 -0.8857
    7DOPE   C39  875   5.429   6.287  15.230 -0.0143 -0.1874  0.2032
    7DOPE   H9X  876   5.422   6.387  15.276 -0.0086 -1.3804  3.0521
    7DOPE  C310  877   5.333   6.225  15.158  1.0966 -0.4167  0.5757
    7DOPE  H10X  878   5.234   6.273  15.147 -0.0968 -2.3969  1.9849
    7DOPE  C311  879   5.353   6.086  15.097  0.3646  0.8504 -1.0091
    7DOPE  H11X  880   5.284   6.079  15.010 -0.9372  1.1663 -0.0317
    7DOPE  H11Y  881   5.456   6.064  15.062  0.6711 -0.1766  0.4716
    7DOPE  C312  882   5.317   5.968  15.196 -0.6222 -0.1273 -0.4405
    7DOPE  H12X  883   5.209   5.965  15.225 -0.4793 -1.0207  0.0408
    7DOPE  H12Y  884   5.378   5.993  15.284 -0.1903 -0.0347 -0.7635
    7DOPE  C313  885   5.368   5.835  15.141 -0.4017  1.0380  0.5608
    7DOPE  H13X  886   5.313   5.802  15.050  1.2457 -1.3766  0.3555
    7DOPE  H13Y  887   5.472   5.850  15.104 -0.8895  0.5179 -1.0997
    7DOPE  C314  888   5.368   5.724  15.247  0.4005  1.0198 -0.5636
    7DOPE  H14X  889   5.292   5.753  15.323 -2.4262 -2.5229 -1.7241
    7DOPE  H14Y  890   5.458   5.705  15.308 -0.5749 -0.7088  0.4110
    7DOPE  C315  891   5.343   5.593  15.179  0.3342 -0.0479  0.1903
    7DOPE  H15X  892   5.419   5.558  15.106 -1.3429 -3.3134 -0.1782
    7DOPE  H15Y  893   5.252   5.605  15.116  1.8983 -0.9859 -2.3923
    7DOPE  C316  894   5.306   5.469  15.260 -0.0134 -0.2216  0.5269
    7DOPE  H16X  895   5.394   5.450  15.326 -1.2991 -0.4031  2.2428
    7DOPE  H16Y  896   5.278   5.382  15.198 -0.1090  0.0470  0.1889
    7DOPE  C317  897   5.180   5.497  15.345  0.2665 -0.1337 -0.0153
    7DOPE  H17X  898   5.154   5.420  15.421 -1.0898  1.8597  1.6768
    7DOPE  H17Y  899   5.190   5.588  15.409 -0.3371 -1.0283  1.3988
    7DOPE  C318  900   5.045   5.521  15.271  0.0851 -0.0451 -0.1213
    7DOPE  H18X  901   5.030   5.433  15.205 -0.0803 -0.5533  0.5820
    7DOPE  H18Y  902   4.960   5.535  15.342  1.3333 -2.7420  2.0922
    7DOPE  H18Z  903   5.055   5.616  15.214  2.4632  0.0247  0.3198
    8DOPE     N  904   7.652   4.925  16.569 -0.2255 -0.0875  0.4639
    8DOPE   HN1  905   7.661   4.962  16.473 -1.3293 -2.4207 -0.6182
    8DOPE   HN2  906   7.617   4.997  16.636 -0.3073 -1.3907  1.8712
    8DOPE   HN3  907   7.749   4.905  16.602 -0.7135 -0.1829  1.9587
    8DOPE   C12  908   7.586   4.794  16.578 -0.1241  0.0588  0.2506
    8DOPE  H12A  909   7.638   4.735  16.499 -1.0642  0.0094 -0.3385
    8DOPE  H12B  910   7.482   4.805  16.541  0.3703  0.1925 -1.1685
    8DOPE   C11  911   7.594   4.721  16.709  0.2077 -0.1839 -0.7641
    8DOPE  H11A  912   7.694   4.675  16.724 -0.1095 -0.6268  0.0646
    8DOPE  H11B  913   7.515   4.643  16.705 -0.3281  0.2750  0.4690
    8DOPE     P  914   7.422   4.833  16.874 -0.0629  0.1885  0.1776
    8DOPE   O13  915   7.428   4.937  16.976 -0.2864 -0.0481 -1.0656
    8DOPE   O14  916   7.372   4.702  16.919  0.2504 -0.6228  0.5980
    8DOPE   O11  917   7.347   4.888  16.751 -0.5352  0.4466  0.0657
    8DOPE   O12  918   7.573   4.810  16.819  0.2320  0.0725  0.0839
    8DOPE    C1  919   7.206   4.904  16.755 -0.5297  0.2277 -0.0060
    8DOPE    HA  920   7.184   4.983  16.830 -1.9946 -2.1622  2.2913
    8DOPE    HB  921   7.146   4.816  16.786  0.6573 -0.1172  1.4340
    8DOPE    C2  922   7.162   4.943  16.617  0.2178 -0.4902 -0.4733
    8DOPE    HS  923   7.052   4.957  16.622  0.4334  0.7396  1.9743
    8DOPE   O21  924   7.208   4.848  16.519  0.1774  0.2334  0.5311
    8DOPE   C21  925   7.157   4.732  16.541  0.3995 -0.2364 -0.4647
    8DOPE   O22  926   7.048   4.705  16.592  0.0349 -0.2644 -0.1530
    8DOPE   C22  927   7.250   4.632  16.477 -0.2300  0.2521  0.5279
    8DOPE   H2R  928   7.328   4.601  16.550 -2.2141 -1.2860  2.1078
    8DOPE   H2S  929   7.307   4.685  16.398 -2.4616  0.7148 -0.8632
    8DOPE    C3  930   7.222   5.087  16.577 -0.1775  0.7432  0.2195
    8DOPE    HX  931   7.326   5.071  16.540 -0.3242 -0.5095  0.2967
    8DOPE    HY  932   7.238   5.151  16.666 -3.4329  3.4223 -0.9482
    8DOPE   O31  933   7.144   5.160  16.479 -0.1034 -0.0656  0.2433
    8DOPE   C31  934   7.043   5.239  16.521  0.1144 -0.1194  0.2714
    8DOPE   O32  935   7.004   5.248  16.636 -0.6312  0.1641  0.5351
    8DOPE   C32  936   6.970   5.315  16.409 -0.3761  0.0666 -0.9861
    8DOPE   H2X  937   6.910   5.241  16.351 -2.0827  0.4243  0.2337
    8DOPE   H2Y  938   6.894   5.381  16.456 -1.0207 -1.7802  0.6907
    8DOPE   C23  939   7.173   4.505  16.406 -0.3021 -0.9284 -0.1747
    8DOPE   H3R  940   7.092   4.464  16.470 -0.4341  2.4305  2.0592
    8DOPE   H3S  941   7.249   4.426  16.389 -0.6518 -1.2805 -0.1100
    8DOPE   C24  942   7.108   4.563  16.283 -0.0770 -0.1940  0.0208
    8DOPE   H4R  943   7.187   4.620  16.229 -0.4289  0.8341  0.5642
    8DOPE   H4S  944   7.027   4.633  16.312  0.3561 -0.6091  2.4813
    8DOPE   C25  945   7.056   4.453  16.204  0.1274 -0.0572  0.1336
    8DOPE   H5R  946   6.985   4.387  16.259 -1.0373  1.0929  0.0614
    8DOPE   H5S  947   7.138   4.393  16.158  0.5023  0.1523  0.5332
    8DOPE   C26  948   6.975   4.506  16.087  0.1439 -0.5257  0.2229
    8DOPE   H6R  949   7.054   4.541  16.018  0.9446 -1.6847  0.5342
    8DOPE   H6S  950   6.910   4.584  16.131 -1.5885 -1.9888  0.3724
    8DOPE   C27  951   6.899   4.393  16.019  0.2305 -0.5623 -0.1458
    8DOPE   H7R  952   6.817   4.345  16.076  0.4788 -0.8723 -0.0459
    8DOPE   H7S  953   6.981   4.322  15.997  2.3325  1.7153 -0.1509
    8DOPE   C28  954   6.839   4.439  15.885 -0.2758  0.3603 -0.7485
    8DOPE   H8R  955   6.820   4.351  15.820  2.0393 -1.5679  0.9912
    8DOPE   H8S  956   6.909   4.497  15.820 -0.5999  1.6157 -0.0098
    8DOPE   C29  957   6.722   4.529  15.908  0.0781  0.1110 -0.4660
    8DOPE   H9R  958   6.732   4.588  16.000  1.7958 -0.5718 -0.1732
    8DOPE  C210  959   6.600   4.529  15.847  0.4735  0.2515  0.0704
    8DOPE  H10R  960   6.526   4.599  15.889  0.8403  0.6062  0.1279
    8DOPE  C211  961   6.565   4.430  15.738 -0.3800 -0.0417 -0.7336
    8DOPE  H11R  962   6.464   4.384  15.737  0.6708 -2.5295  0.1210
    8DOPE  H11S  963   6.632   4.342  15.741 -0.8209 -0.3570 -0.0403
    8DOPE  C212  964   6.596   4.493  15.591  0.4175 -0.2686  0.4889
    8DOPE  H12R  965   6.602   4.405  15.523 -0.4012 -1.5599  2.0256
    8DOPE  H12S  966   6.688   4.555  15.587 -0.4164  1.0336 -3.9475
    8DOPE  C213  967   6.488   4.589  15.540  0.4517 -0.0507  0.0622
    8DOPE  H13R  968   6.482   4.675  15.609 -0.3874 -0.5794  0.6604
    8DOPE  H13S  969   6.394   4.535  15.561  0.6162  0.2818  1.7846
    8DOPE  C214  970   6.497   4.632  15.393 -0.0733 -0.3707  0.2600
    8DOPE  H14R  971   6.562   4.559  15.339  1.6048  1.3165 -0.1103
    8DOPE  H14S  972   6.546   4.730  15.379 -0.1942 -0.5608 -1.7063
    8DOPE  C215  973   6.370   4.629  15.316 -0.0315 -1.0437 -0.6164
    8DOPE  H15R  974   6.373   4.701  15.231 -0.5364 -0.5159 -0.1949
    8DOPE  H15S  975   6.283   4.641  15.384 -0.6479  1.0369 -1.6687
    8DOPE  C216  976   6.351   4.483  15.258  0.5716 -0.2109 -0.1282
    8DOPE  H16R  977   6.369   4.414  15.343  2.6747 -0.1574 -0.4721
    8DOPE  H16S  978   6.428   4.457  15.182  1.0244  0.6331  0.0278
    8DOPE  C217  979   6.213   4.464  15.198 -0.8926 -0.5218 -0.4996
    8DOPE  H17R  980   6.137   4.469  15.279 -0.0200 -1.0449  0.3733
    8DOPE  H17S  981   6.199   4.359  15.164  0.6830 -1.2012  0.8094
    8DOPE  C218  982   6.171   4.559  15.089 -0.1709  0.1369 -0.0691
    8DOPE  H18R  983   6.073   4.520  15.053  0.9820 -1.5168 -1.6372
    8DOPE  H18S  984   6.237   4.573  15.001  0.4655 -0.7433  0.2601
    8DOPE  H18T  985   6.153   4.660  15.132  2.1341  0.3237  0.5678
    8DOPE   C33  986   7.069   5.399  16.335 -0.3919  0.1709  0.0234
    8DOPE   H3X  987   7.017   5.425  16.240 -0.5534 -1.3769 -0.3293
    8DOPE   H3Y  988   7.162   5.352  16.296 -1.2932  0.1806 -2.3450
    8DOPE   C34  989   7.092   5.535  16.407 -0.2353  0.9772  0.1856
    8DOPE   H4X  990   6.992   5.585  16.409 -1.5509 -1.0772 -3.4212
    8DOPE   H4Y  991   7.127   5.511  16.509  0.8761 -1.1093 -0.6373
    8DOPE   C35  992   7.194   5.615  16.338  0.3150  0.0573 -0.1848
    8DOPE   H5X  993   7.152   5.642  16.239  1.0940 -1.0017 -0.8219
    8DOPE   H5Y  994   7.289   5.558  16.326 -0.4876 -1.2261 -0.7301
    8DOPE   C36  995   7.208   5.750  16.411  0.7644 -0.1292  0.5873
    8DOPE   H6X  996   7.265   5.736  16.505 -0.2201 -1.4794  1.0136
    8DOPE   H6Y  997   7.105   5.784  16.437  1.0200 -0.2027  1.7308
    8DOPE   C37  998   7.287   5.845  16.324 -0.0440  0.5479  0.5339
    8DOPE   H7X  999   7.390   5.806  16.311 -0.0720  0.4927  0.4831
    8DOPE   H7Y 1000   7.237   5.845  16.225  0.9963 -1.3275 -0.0329
    8DOPE   C38 1001   7.298   5.992  16.367  0.0624  0.3904  0.6216
    8DOPE   H8X 1002   7.376   6.039  16.303  1.9415 -2.8382  0.3345
    8DOPE   H8Y 1003   7.331   5.988  16.473 -3.3132 -1.1888  1.7760
    8DOPE   C39 1004   7.168   6.067  16.355 -0.2693  0.0809  0.6095
    8DOPE   H9X 1005   7.088   6.022  16.417 -4.2023  2.8866 -1.9974
    8DOPE  C310 1006   7.130   6.168  16.272 -0.3582 -0.1134  0.4599
    8DOPE  H10X 1007   7.029   6.210  16.286  0.5302  1.4339  2.8266
    8DOPE  C311 1008   7.210   6.234  16.157  0.3705  0.3999 -0.4780
    8DOPE  H11X 1009   7.245   6.337  16.182  2.5847 -0.4396  0.1248
    8DOPE  H11Y 1010   7.305   6.179  16.141 -0.2379 -0.4223 -1.3365
    8DOPE  C312 1011   7.150   6.236  16.014  0.0742  0.1324 -0.0037
    8DOPE  H12X 1012   7.046   6.275  16.022 -0.1424 -0.3455 -0.3997
    8DOPE  H12Y 1013   7.150   6.128  15.986  0.6032 -0.0244  0.5808
    8DOPE  C313 1014   7.228   6.302  15.903  0.1786  0.0194 -0.1838
    8DOPE  H13X 1015   7.334   6.267  15.897  0.1502 -0.2318  0.7151
    8DOPE  H13Y 1016   7.188   6.288  15.800  2.9550  0.2123 -1.3930
    8DOPE  C314 1017   7.244   6.449  15.909  0.4245  0.1973  0.9461
    8DOPE  H14X 1018   7.318   6.468  15.829  0.2874  1.2246  1.0485
    8DOPE  H14Y 1019   7.293   6.492  15.999 -0.6030  0.3944  1.4294
    8DOPE  C315 1020   7.119   6.528  15.884 -0.1626  0.3167  0.0195
    8DOPE  H15X 1021   7.042   6.473  15.942  0.5192 -1.4726 -0.6695
    8DOPE  H15Y 1022   7.101   6.511  15.775 -0.2564  0.4234  0.0193
    8DOPE  C316 1023   7.127   6.681  15.905  0.1135  0.1603  0.2630
    8DOPE  H16X 1024   7.197   6.726  15.831  0.0174  0.7115  0.5029
    8DOPE  H16Y 1025   7.163   6.703  16.007 -2.0315  4.7302  0.3045
    8DOPE  C317 1026   6.991   6.748  15.884 -0.4563 -0.1846 -0.3472
    8DOPE  H17X 1027   7.009   6.856  15.903 -0.9899  0.2153 -1.9711
    8DOPE  H17Y 1028   6.958   6.742  15.778  2.3068 -2.4917 -1.1873
    8DOPE  C318 1029   6.890   6.692  15.977 -0.6243  0.1253 -0.9556
    8DOPE  H18X 1030   6.927   6.680  16.082 -1.4402 -0.2700 -0.7088
    8DOPE  H18Y 1031   6.851   6.600  15.930 -0.3538 -0.3296 -0.3129
    8DOPE  H18Z 1032   6.804   6.760  15.989 -0.5971 -0.0814  0.7610
    9DOPE     N 1033   2.674   4.543  17.397 -0.0326  0.1549 -0.2846
    9DOPE   HN1 1034   2.611   4.509  17.472 -0.0635 -0.8118 -0.7334
    9DOPE   HN2 1035   2.770   4.503  17.405 -0.3280 -0.4575  0.1925
    9DOPE   HN3 1036   2.678   4.647  17.398  0.2117  0.1455 -0.1518
    9DOPE   C12 1037   2.604   4.520  17.262 -0.4530 -0.5385  0.4618
    9DOPE  H12A 1038   2.508   4.575  17.262  0.3070  0.8227  0.1245
    9DOPE  H12B 1039   2.601   4.410  17.246 -0.5423 -0.7873  2.0363
    9DOPE   C11 1040   2.700   4.581  17.153 -0.1769 -0.5827 -0.2285
    9DOPE  H11A 1041   2.728   4.688  17.166  0.7474 -0.5339 -2.2516
    9DOPE  H11B 1042   2.639   4.590  17.060 -0.4934  1.2478  0.1005
    9DOPE     P 1043   2.840   4.388  17.059 -0.2584 -0.1833 -0.1919
    9DOPE   O13 1044   2.756   4.284  17.126  0.3483 -0.2685  0.3015
    9DOPE   O14 1045   2.987   4.362  17.046  0.4414 -0.1708 -0.6008
    9DOPE   O11 1046   2.790   4.435  16.916 -0.3218 -0.1817  0.1633
    9DOPE   O12 1047   2.829   4.518  17.146  0.5110 -0.1093  0.4497
    9DOPE    C1 1048   2.851   4.547  16.856  0.3188 -0.1640  0.2810
    9DOPE    HA 1049   2.941   4.521  16.797  0.1492  1.7843 -0.9219
    9DOPE    HB 1050   2.890   4.627  16.922 -0.9022  1.1092 -0.4879
    9DOPE    C2 1051   2.751   4.622  16.760 -0.3343  0.7300 -0.3698
    9DOPE    HS 1052   2.660   4.645  16.819 -2.4126  2.0858 -3.8053
    9DOPE   O21 1053   2.712   4.531  16.650 -0.2465 -0.0743 -0.0426
    9DOPE   C21 1054   2.592   4.554  16.601 -0.2250 -0.4191 -0.1410
    9DOPE   O22 1055   2.501   4.619  16.651 -0.1216  0.5552  0.0021
    9DOPE   C22 1056   2.598   4.516  16.453  0.3465  0.4575 -0.2471
    9DOPE   H2R 1057   2.627   4.409  16.445 -1.2009 -0.1225  1.3127
    9DOPE   H2S 1058   2.680   4.577  16.410 -0.1867  1.4591  0.1212
    9DOPE    C3 1059   2.812   4.753  16.700 -0.1405  0.6351  0.5321
    9DOPE    HX 1060   2.910   4.726  16.656  0.1605  1.5892  0.5753
    9DOPE    HY 1061   2.830   4.836  16.772 -1.3129  1.4580 -0.0783
    9DOPE   O31 1062   2.737   4.809  16.589  0.5587 -0.1131 -0.0067
    9DOPE   C31 1063   2.634   4.885  16.626  0.4264  0.3820  0.1628
    9DOPE   O32 1064   2.607   4.910  16.747  0.0032  0.2601  0.3081
    9DOPE   C32 1065   2.544   4.928  16.501  0.2462 -0.6237  0.3223
    9DOPE   H2X 1066   2.458   4.858  16.494  1.1768 -1.8429  0.6785
    9DOPE   H2Y 1067   2.523   5.034  16.527  1.7445  0.2799 -1.8635
    9DOPE   C23 1068   2.482   4.556  16.363  0.1887  0.1624  0.1287
    9DOPE   H3R 1069   2.472   4.666  16.373 -0.4862  0.0682  0.6156
    9DOPE   H3S 1070   2.394   4.503  16.405  0.2897 -0.4975 -0.4629
    9DOPE   C24 1071   2.489   4.504  16.218 -0.7881  0.4766  0.1269
    9DOPE   H4R 1072   2.503   4.394  16.213 -0.7726  0.5183 -0.7678
    9DOPE   H4S 1073   2.590   4.536  16.184 -0.3124 -0.3444  0.7219
    9DOPE   C25 1074   2.380   4.552  16.123  0.3491 -0.2353  1.2400
    9DOPE   H5R 1075   2.347   4.656  16.143 -1.6201  0.0283 -2.5061
    9DOPE   H5S 1076   2.291   4.485  16.128 -0.8063  0.9231 -1.6507
    9DOPE   C26 1077   2.418   4.548  15.969 -0.2693  0.1660 -0.3420
    9DOPE   H6R 1078   2.449   4.448  15.933  0.1260  0.5039 -0.9469
    9DOPE   H6S 1079   2.503   4.615  15.945 -0.3030 -0.6573 -3.0222
    9DOPE   C27 1080   2.301   4.594  15.883 -0.5894 -0.0813  0.0739
    9DOPE   H7R 1081   2.260   4.688  15.924 -0.2843 -1.2806  3.4110
    9DOPE   H7S 1082   2.214   4.527  15.899 -2.0692  1.8932  0.6500
    9DOPE   C28 1083   2.339   4.622  15.740 -0.5958 -0.4681 -0.4769
    9DOPE   H8R 1084   2.426   4.692  15.743  0.8204 -2.0899 -1.5856
    9DOPE   H8S 1085   2.257   4.666  15.679 -1.3480  0.0998  0.9035
    9DOPE   C29 1086   2.391   4.497  15.674  0.3008  0.4364  0.0576
    9DOPE   H9R 1087   2.499   4.479  15.683  0.3067  0.2503 -0.3544
    9DOPE  C210 1088   2.318   4.410  15.589  0.1445 -0.0370 -0.1760
    9DOPE  H10R 1089   2.374   4.338  15.528 -1.4555 -0.3295 -1.3425
    9DOPE  C211 1090   2.169   4.421  15.545 -1.1717  0.8909  0.2229
    9DOPE  H11R 1091   2.099   4.493  15.592 -1.3558  1.2918 -0.6477
    9DOPE  H11S 1092   2.120   4.323  15.565 -1.5603  1.0079 -0.1283
    9DOPE  C212 1093   2.160   4.430  15.390  0.5221 -0.8174  0.5094
    9DOPE  H12R 1094   2.208   4.521  15.348 -0.6050 -1.0462 -1.3667
    9DOPE  H12S 1095   2.055   4.431  15.356 -0.1490 -1.7085  2.3953
    9DOPE  C213 1096   2.229   4.324  15.306  1.0377 -0.3377  0.1370
    9DOPE  H13R 1097   2.340   4.333  15.309  0.9261  1.3227 -0.0434
    9DOPE  H13S 1098   2.206   4.336  15.198  1.9694 -0.1164 -0.0454
    9DOPE  C214 1099   2.182   4.179  15.343  0.6428 -0.5445  0.5244
    9DOPE  H14R 1100   2.071   4.174  15.336  0.6152  0.8397 -0.2540
    9DOPE  H14S 1101   2.201   4.145  15.447  0.9581 -2.3708 -0.0925
    9DOPE  C215 1102   2.226   4.077  15.241 -0.1426 -0.5065  0.1829
    9DOPE  H15R 1103   2.334   4.090  15.218 -0.2643 -1.5116 -1.0399
    9DOPE  H15S 1104   2.181   4.097  15.142  0.1756 -0.5457  0.0312
    9DOPE  C216 1105   2.199   3.932  15.299 -0.7465  0.3643 -0.3436
    9DOPE  H16R 1106   2.091   3.928  15.326 -1.4230  1.1853 -2.6924
    9DOPE  H16S 1107   2.269   3.925  15.385 -0.6351 -0.7499 -0.5059
    9DOPE  C217 1108   2.227   3.803  15.218 -0.1563 -0.2747  0.0574
    9DOPE  H17R 1109   2.338   3.801  15.209  0.0767  0.9638  1.9641
    9DOPE  H17S 1110   2.178   3.825  15.121 -0.1947 -0.0806  0.1216
    9DOPE  C218 1111   2.179   3.671  15.287  0.3612 -0.0808 -0.0220
    9DOPE  H18R 1112   2.241   3.587  15.250  2.2616  0.8092  0.9882
    9DOPE  H18S 1113   2.071   3.652  15.272 -0.0020  2.3846 -1.0618
    9DOPE  H18T 1114   2.202   3.686  15.395  0.9398 -0.8996 -0.0247
    9DOPE   C33 1115   2.615   4.931  16.364 -0.5565 -0.2877 -0.2616
    9DOPE   H3X 1116   2.669   4.836  16.343  0.5674  0.2843 -0.0060
    9DOPE   H3Y 1117   2.689   5.013  16.375  1.3660 -1.9801  0.0323
    9DOPE   C34 1118   2.519   4.961  16.246 -0.5452  0.2310 -0.4271
    9DOPE   H4X 1119   2.439   4.885  16.237 -1.7704  1.6003 -1.7630
    9DOPE   H4Y 1120   2.461   5.056  16.252 -0.0785  0.4402  1.3505
    9DOPE   C35 1121   2.582   4.974  16.104 -0.1383 -0.4539 -0.1552
    9DOPE   H5X 1122   2.650   4.887  16.089  1.9032  1.2319 -1.1380
    9DOPE   H5Y 1123   2.634   5.070  16.089  1.4439 -1.4151 -1.1292
    9DOPE   C36 1124   2.467   4.979  16.005  0.3270 -0.0408  0.8611
    9DOPE   H6X 1125   2.395   5.057  16.036 -2.3473 -2.5861  1.4278
    9DOPE   H6Y 1126   2.422   4.877  15.997 -0.4322  0.4182 -2.5256
    9DOPE   C37 1127   2.503   4.999  15.855  0.4732 -0.6568  0.0801
    9DOPE   H7X 1128   2.588   5.070  15.847 -0.2375  0.1429 -0.7174
    9DOPE   H7Y 1129   2.540   4.898  15.828 -1.5765 -1.4673  0.1056
    9DOPE   C38 1130   2.385   5.030  15.766  0.2986 -0.3569 -0.0685
    9DOPE   H8X 1131   2.338   5.128  15.786 -0.7611 -0.5248 -1.5655
    9DOPE   H8Y 1132   2.307   4.951  15.774 -0.4003  0.3203 -0.0353
    9DOPE   C39 1133   2.429   5.024  15.618 -0.5447  0.4206 -0.0030
    9DOPE   H9X 1134   2.511   4.957  15.591 -0.6799  0.1734  0.2011
    9DOPE  C310 1135   2.362   5.074  15.511  0.3064  0.2019  0.0012
    9DOPE  H10X 1136   2.397   5.052  15.409  3.1165  0.0390  0.8993
    9DOPE  C311 1137   2.233   5.151  15.514 -0.3871  0.4231  0.1864
    9DOPE  H11X 1138   2.201   5.158  15.620 -0.8587  0.0653  0.0720
    9DOPE  H11Y 1139   2.243   5.258  15.489 -2.3491  0.3239 -1.1987
    9DOPE  C312 1140   2.112   5.098  15.434  0.5377  0.4943  0.4571
    9DOPE  H12X 1141   2.148   5.030  15.354 -1.8469 -0.1924 -0.1059
    9DOPE  H12Y 1142   2.062   5.184  15.384 -2.4363  0.3832  2.9624
    9DOPE  C313 1143   2.012   5.011  15.514 -0.0566  0.1018  0.0783
    9DOPE  H13X 1144   2.063   4.919  15.550  0.3010 -0.0792 -0.8500
    9DOPE  H13Y 1145   1.972   5.066  15.601 -1.0562 -1.6270  0.7624
    9DOPE  C314 1146   1.900   4.952  15.430 -0.2684 -0.2219 -0.8049
    9DOPE  H14X 1147   1.852   5.022  15.359 -0.3282  0.4406 -0.1226
    9DOPE  H14Y 1148   1.824   4.904  15.496  0.4699  0.5073  0.6261
    9DOPE  C315 1149   1.949   4.831  15.344 -0.4583 -0.0444  0.7593
    9DOPE  H15X 1150   1.947   4.743  15.412  1.4369  1.4441  2.9106
    9DOPE  H15Y 1151   2.057   4.848  15.323 -0.7050 -0.2631 -0.8105
    9DOPE  C316 1152   1.871   4.815  15.212  0.0396 -1.1582  0.0145
    9DOPE  H16X 1153   1.888   4.907  15.152 -0.2526 -0.7141  0.5964
    9DOPE  H16Y 1154   1.762   4.804  15.228 -0.1316 -3.1469 -2.0928
    9DOPE  C317 1155   1.929   4.696  15.138  0.8631  0.2244  0.0924
    9DOPE  H17X 1156   1.925   4.721  15.030  0.7580 -0.5937 -0.1034
    9DOPE  H17Y 1157   2.032   4.671  15.171  0.1165 -1.9843  0.9314
    9DOPE  C318 1158   1.845   4.571  15.171  0.4079  0.3344 -0.0857
    9DOPE  H18X 1159   1.740   4.604  15.184  0.0223  0.1637 -2.4112
    9DOPE  H18Y 1160   1.866   4.484  15.106 -0.4901  0.4403 -0.5372
    9DOPE  H18Z 1161   1.867   4.543  15.276 -1.7965  1.9871  0.9002
   10DOPE     N 1162   3.267   5.199  17.234 -0.5876 -0.7015 -0.6524
   10DOPE   HN1 1163   3.342   5.246  17.290 -1.2406  0.3048 -0.5915
   10DOPE   HN2 1164   3.206   5.282  17.216 -0.6187 -0.5142  0.2461
   10DOPE   HN3 1165   3.231   5.142  17.313  2.8264 -0.9594  0.9102
   10DOPE   C12 1166   3.314   5.125  17.112  0.2425  0.0042 -0.1366
   10DOPE  H12A 1167   3.416   5.082  17.117  0.1173 -0.1998  1.0481
   10DOPE  H12B 1168   3.309   5.187  17.020  1.6927  0.3498 -0.0016
   10DOPE   C11 1169   3.209   5.019  17.083  0.1597 -0.5968  0.0930
   10DOPE  H11A 1170   3.221   4.939  17.159 -0.5315 -0.2004  0.6304
   10DOPE  H11B 1171   3.235   4.965  16.989  0.0522  0.2872 -0.4643
   10DOPE     P 1172   2.967   5.011  16.989  0.2493 -0.4334  0.1959
   10DOPE   O13 1173   2.830   5.064  17.006 -0.0343  0.0163  0.1553
   10DOPE   O14 1174   2.974   4.863  16.984 -0.9427 -0.1878  0.1398
   10DOPE   O11 1175   3.016   5.069  16.847  0.2099  0.0371 -0.4189
   10DOPE   O12 1176   3.070   5.071  17.089 -0.4083  0.5656  0.1980
   10DOPE    C1 1177   3.062   5.198  16.827 -0.0944 -0.1748  0.0567
   10DOPE    HA 1178   3.173   5.190  16.818 -0.3261 -0.9797 -4.0430
   10DOPE    HB 1179   3.036   5.255  16.919 -0.9440 -2.2609  1.1547
   10DOPE    C2 1180   3.003   5.269  16.703  0.2087 -0.1197 -0.1987
   10DOPE    HS 1181   2.895   5.280  16.725  0.0794 -2.6911  0.8337
   10DOPE   O21 1182   3.032   5.192  16.587 -0.7721  0.1830  0.7112
   10DOPE   C21 1183   2.936   5.113  16.536 -0.3623 -0.1461  0.1134
   10DOPE   O22 1184   2.824   5.109  16.577  0.5520 -0.3922  0.1421
   10DOPE   C22 1185   2.993   5.031  16.418 -0.1618 -0.8195 -0.0721
   10DOPE   H2R 1186   2.955   4.928  16.423  1.8456 -1.5762  0.7195
   10DOPE   H2S 1187   3.102   5.023  16.438 -0.3533  0.1879  1.5987
   10DOPE    C3 1188   3.068   5.411  16.696  0.2156  0.5153 -0.4154
   10DOPE    HX 1189   3.175   5.391  16.674  0.8464  0.7737  2.1101
   10DOPE    HY 1190   3.064   5.468  16.791  0.0751  1.0456 -0.7377
   10DOPE   O31 1191   3.001   5.493  16.596 -0.0567 -0.8961  0.0421
   10DOPE   C31 1192   3.054   5.608  16.589  0.3054  0.5848 -0.2784
   10DOPE   O32 1193   3.158   5.650  16.641 -0.1918 -0.2021  0.0158
   10DOPE   C32 1194   2.968   5.684  16.489  0.7201 -0.0730  0.0073
   10DOPE   H2X 1195   2.938   5.618  16.404 -1.6366  0.9277 -0.0037
   10DOPE   H2Y 1196   2.873   5.714  16.537  0.4577 -0.9655  0.0681
   10DOPE   C23 1197   2.966   5.102  16.284 -0.8032 -0.4138  0.2773
   10DOPE   H3R 1198   2.858   5.124  16.276 -0.6572  0.1276 -0.3495
   10DOPE   H3S 1199   3.004   5.047  16.195  0.5559  1.5010 -0.4086
   10DOPE   C24 1200   3.040   5.235  16.278 -0.3017  0.4177 -0.4290
   10DOPE   H4R 1201   3.148   5.212  16.266 -0.3027 -0.7754  1.3656
   10DOPE   H4S 1202   3.026   5.282  16.378 -3.7329 -1.3986  0.1058
   10DOPE   C25 1203   2.974   5.325  16.170 -0.1613  0.3497 -0.8227
   10DOPE   H5R 1204   2.877   5.373  16.195 -0.6718 -0.6646 -0.7890
   10DOPE   H5S 1205   2.952   5.264  16.080 -0.4183  0.7608 -1.0388
   10DOPE   C26 1206   3.070   5.436  16.136  0.0889  0.1821 -0.2923
   10DOPE   H6R 1207   3.169   5.410  16.093  0.9531  1.4901  0.8598
   10DOPE   H6S 1208   3.082   5.485  16.234  1.3443 -4.4075  2.1493
   10DOPE   C27 1209   3.006   5.534  16.039  0.4840 -0.4443  0.3972
   10DOPE   H7R 1210   3.067   5.628  16.039 -1.0001  0.5585  0.3317
   10DOPE   H7S 1211   2.908   5.565  16.080  0.4268  0.2926 -0.2705
   10DOPE   C28 1212   2.992   5.483  15.891 -0.4862  0.0491  0.1659
   10DOPE   H8R 1213   2.943   5.383  15.891 -1.9968  0.7661 -0.1512
   10DOPE   H8S 1214   3.093   5.474  15.846  0.6412  1.6749  2.1706
   10DOPE   C29 1215   2.914   5.584  15.806 -0.5518 -0.4571  0.8590
   10DOPE   H9R 1216   2.807   5.598  15.823 -0.9140  0.7380 -1.8557
   10DOPE  C210 1217   2.976   5.671  15.716  0.6471 -0.1537 -0.8114
   10DOPE  H10R 1218   2.916   5.743  15.657  0.7826 -1.9271 -3.3032
   10DOPE  C211 1219   3.119   5.681  15.682 -0.6012  0.0410  0.3759
   10DOPE  H11R 1220   3.172   5.594  15.725  1.3623  0.9346 -0.0978
   10DOPE  H11S 1221   3.162   5.777  15.719  0.1641 -0.1836  0.0859
   10DOPE  C212 1222   3.127   5.679  15.527 -0.3435 -0.3116  0.1404
   10DOPE  H12R 1223   3.234   5.673  15.499 -0.0708  0.4446  0.9671
   10DOPE  H12S 1224   3.086   5.777  15.493  1.6522  1.6030  2.7512
   10DOPE  C213 1225   3.048   5.573  15.448 -0.1677 -0.1645  0.6834
   10DOPE  H13R 1226   2.942   5.605  15.457 -0.6541 -1.4033 -0.4800
   10DOPE  H13S 1227   3.062   5.473  15.494 -1.0447 -0.6807 -0.1464
   10DOPE  C214 1228   3.089   5.552  15.302  0.5907 -0.4375  0.2124
   10DOPE  H14R 1229   3.200   5.545  15.301  0.5277 -1.7249  0.5989
   10DOPE  H14S 1230   3.058   5.648  15.254 -0.3245 -1.1318 -0.6004
   10DOPE  C215 1231   3.025   5.436  15.226 -0.9683  0.3659  0.0675
   10DOPE  H15R 1232   2.918   5.459  15.207 -0.3376  1.3815 -2.6882
   10DOPE  H15S 1233   3.039   5.347  15.290  1.1881  0.4375 -0.2409
   10DOPE  C216 1234   3.090   5.403  15.084  0.1746  0.2183 -0.4883
   10DOPE  H16R 1235   3.089   5.489  15.013 -0.0638 -0.3149 -1.1407
   10DOPE  H16S 1236   3.034   5.313  15.051 -0.0327  0.5672 -1.1013
   10DOPE  C217 1237   3.239   5.362  15.090 -0.0060 -0.3287 -0.4153
   10DOPE  H17R 1238   3.300   5.454  15.100 -0.6745  0.2052 -1.1566
   10DOPE  H17S 1239   3.265   5.304  15.000 -2.2568 -1.3058 -0.5202
   10DOPE  C218 1240   3.281   5.271  15.209 -0.2544  0.1769  0.3187
   10DOPE  H18R 1241   3.223   5.176  15.210  0.5357 -0.3252 -0.1289
   10DOPE  H18S 1242   3.271   5.325  15.306  0.0511 -0.3543  0.6548
   10DOPE  H18T 1243   3.389   5.252  15.189  0.5684  1.4825  3.0718
   10DOPE   C33 1244   3.038   5.803  16.420 -0.1597  0.1962 -0.4823
   10DOPE   H3X 1245   3.127   5.777  16.359  0.2038  1.0385 -0.3308
   10DOPE   H3Y 1246   3.070   5.879  16.495 -0.1599  0.5894 -0.8739
   10DOPE   C34 1247   2.934   5.869  16.330  0.1613  0.3412 -0.1708
   10DOPE   H4X 1248   2.870   5.790  16.287  0.3481  1.5690 -2.8580
   10DOPE   H4Y 1249   2.867   5.930  16.395  0.9971  1.3567 -0.2184
   10DOPE   C35 1250   3.012   5.961  16.237  0.6482  0.4992  0.4052
   10DOPE   H5X 1251   3.076   5.900  16.169  0.5210  0.5427  0.2459
   10DOPE   H5Y 1252   3.074   6.028  16.299  0.7443  0.0190  0.8342
   10DOPE   C36 1253   2.917   6.057  16.153 -0.1382  0.0762  0.2967
   10DOPE   H6X 1254   2.994   6.091  16.080  1.5327 -0.5750  1.6724
   10DOPE   H6Y 1255   2.901   6.149  16.214  0.1583  0.4393 -0.1610
   10DOPE   C37 1256   2.787   5.987  16.105  0.1345 -0.3410 -0.0288
   10DOPE   H7X 1257   2.828   5.885  16.088 -0.6629 -0.4929 -1.1792
   10DOPE   H7Y 1258   2.712   5.980  16.187  0.2917  0.1921  0.1696
   10DOPE   C38 1259   2.730   6.049  15.976  0.9971 -0.3290  0.4095
   10DOPE   H8X 1260   2.691   6.152  15.993  1.2136 -0.4880  2.0355
   10DOPE   H8Y 1261   2.638   5.988  15.962  0.3145  0.9321 -0.9964
   10DOPE   C39 1262   2.816   6.045  15.853 -0.0279  0.2566  0.3934
   10DOPE   H9X 1263   2.919   6.078  15.868 -0.3812  1.4077  0.4197
   10DOPE  C310 1264   2.768   6.013  15.728 -0.0467  0.6876 -0.1781
   10DOPE  H10X 1265   2.837   6.023  15.643  0.4956  1.0858  0.2980
   10DOPE  C311 1266   2.629   5.980  15.686  0.9133 -0.6908  0.7740
   10DOPE  H11X 1267   2.613   5.870  15.674 -3.9983 -0.6103  3.7642
   10DOPE  H11Y 1268   2.555   6.009  15.763 -0.6945 -1.9257 -0.2277
   10DOPE  C312 1269   2.588   6.056  15.554  1.3476  0.0495 -0.0104
   10DOPE  H12X 1270   2.641   6.018  15.464  1.4088  0.3133 -0.0862
   10DOPE  H12Y 1271   2.617   6.163  15.561  0.0863  0.5091 -1.2830
   10DOPE  C313 1272   2.433   6.037  15.521 -0.7507  0.1018 -0.0833
   10DOPE  H13X 1273   2.409   5.928  15.518 -0.6074  0.0743 -0.2953
   10DOPE  H13Y 1274   2.364   6.075  15.599 -2.4926 -4.8295  1.1777
   10DOPE  C314 1275   2.394   6.111  15.394  0.9492  0.1847  0.7869
   10DOPE  H14X 1276   2.456   6.198  15.363 -0.2215  0.7338 -0.0579
   10DOPE  H14Y 1277   2.293   6.154  15.407  0.2222 -1.0072 -0.6351
   10DOPE  C315 1278   2.362   6.017  15.269  0.8413 -0.2238  0.5024
   10DOPE  H15X 1279   2.275   5.952  15.294 -0.4857  0.7625 -1.3345
   10DOPE  H15Y 1280   2.443   5.943  15.249 -0.5907 -1.2380 -1.8549
   10DOPE  C316 1281   2.318   6.095  15.137 -0.1018  0.1518 -0.1736
   10DOPE  H16X 1282   2.405   6.158  15.109  1.4714 -2.7128 -2.2511
   10DOPE  H16Y 1283   2.239   6.171  15.153 -0.0561  0.5711 -1.7752
   10DOPE  C317 1284   2.265   6.011  15.025 -0.5452 -0.2199 -0.0346
   10DOPE  H17X 1285   2.347   5.966  14.965 -0.7420 -0.0074 -0.4711
   10DOPE  H17Y 1286   2.206   5.924  15.061  1.5591 -2.7006 -2.1795
   10DOPE  C318 1287   2.173   6.103  14.941 -0.7601  0.3444 -0.7348
   10DOPE  H18X 1288   2.222   6.201  14.925  2.6574 -1.2933 -1.1777
   10DOPE  H18Y 1289   2.136   6.060  14.845 -0.2231 -2.0913  0.0699
   10DOPE  H18Z 1290   2.091   6.139  15.006 -1.6218  0.0746 -1.6450
   11DOPE     N 1291   2.750   2.142  16.765  0.0677 -0.5441  0.6638
   11DOPE   HN1 1292   2.758   2.194  16.854 -2.1819  1.7255 -0.3370
   11DOPE   HN2 1293   2.647   2.131  16.756 -0.6604  3.7609  1.5821
   11DOPE   HN3 1294   2.799   2.050  16.766  0.1874 -0.4814  0.6048
   11DOPE   C12 1295   2.784   2.218  16.632  0.8678 -0.2690  0.3927
   11DOPE  H12A 1296   2.703   2.294  16.620  2.9345  1.7039 -2.6783
   11DOPE  H12B 1297   2.783   2.140  16.553 -1.0281 -0.0384  0.1401
   11DOPE   C11 1298   2.919   2.287  16.634  0.0218  0.6095 -0.2071
   11DOPE  H11A 1299   2.937   2.348  16.543  0.0924  0.8032 -0.0648
   11DOPE  H11B 1300   3.003   2.215  16.641 -0.6610 -0.1533  0.2206
   11DOPE     P 1301   3.052   2.454  16.785 -0.1972  0.2323 -0.0274
   11DOPE   O13 1302   3.131   2.352  16.861 -0.0560  0.3737  0.0639
   11DOPE   O14 1303   3.029   2.580  16.857 -0.3717 -0.3385 -0.0996
   11DOPE   O11 1304   3.124   2.482  16.653 -0.1666 -0.1257  0.9595
   11DOPE   O12 1305   2.917   2.389  16.732 -0.6128 -0.3324  0.0048
   11DOPE    C1 1306   3.260   2.443  16.628 -0.0358 -0.1858  0.4165
   11DOPE    HA 1307   3.271   2.333  16.641 -2.1725 -0.3180  1.3958
   11DOPE    HB 1308   3.325   2.504  16.696 -1.3365  1.7295  0.0301
   11DOPE    C2 1309   3.300   2.493  16.483  0.2046  0.7972  0.6458
   11DOPE    HS 1310   3.321   2.602  16.482  1.5096  0.5653  1.0852
   11DOPE   O21 1311   3.186   2.468  16.399  0.4520  0.6233  0.0475
   11DOPE   C21 1312   3.110   2.572  16.365 -0.0059 -0.6293 -0.2061
   11DOPE   O22 1313   3.142   2.691  16.387  0.4029 -0.0985 -0.4891
   11DOPE   C22 1314   2.996   2.524  16.276 -0.1557  0.4955 -0.2494
   11DOPE   H2R 1315   2.934   2.451  16.331  0.4246 -0.9904 -1.4809
   11DOPE   H2S 1316   3.042   2.469  16.190 -0.5257  0.4009 -0.3903
   11DOPE    C3 1317   3.428   2.422  16.426 -0.2584 -0.0006  0.3343
   11DOPE    HX 1318   3.406   2.313  16.423  0.6243 -0.2828  2.1947
   11DOPE    HY 1319   3.514   2.433  16.496  0.1391  0.2166 -0.1857
   11DOPE   O31 1320   3.451   2.475  16.294  0.1615  0.4705  0.4428
   11DOPE   C31 1321   3.573   2.511  16.264 -0.5286 -0.2540  0.4051
   11DOPE   O32 1322   3.678   2.503  16.324 -0.1331  0.2989 -0.3570
   11DOPE   C32 1323   3.573   2.551  16.116 -0.4229  0.3243 -0.0235
   11DOPE   H2X 1324   3.585   2.460  16.053 -2.0801  1.1365 -1.6134
   11DOPE   H2Y 1325   3.475   2.600  16.097  0.7322  3.1943  0.9752
   11DOPE   C23 1326   2.911   2.640  16.223  0.1931  0.1387  0.3097
   11DOPE   H3R 1327   2.873   2.712  16.299 -1.3106  0.3563 -0.6157
   11DOPE   H3S 1328   2.817   2.597  16.184  0.7036  0.9574 -1.9699
   11DOPE   C24 1329   2.989   2.703  16.109  0.0038  0.6286  0.2463
   11DOPE   H4R 1330   2.990   2.638  16.019  0.2495  1.5905 -0.4598
   11DOPE   H4S 1331   3.094   2.727  16.139  0.3356  1.3759 -1.4050
   11DOPE   C25 1332   2.924   2.838  16.060 -1.2483 -0.5910 -0.0710
   11DOPE   H5R 1333   3.012   2.889  16.016  0.2119 -1.5508  1.6028
   11DOPE   H5S 1334   2.891   2.901  16.146 -0.7032  0.4102 -0.5807
   11DOPE   C26 1335   2.804   2.822  15.961  0.8515 -0.1979 -0.0383
   11DOPE   H6R 1336   2.743   2.735  15.992 -0.1913  0.7793  0.7226
   11DOPE   H6S 1337   2.852   2.799  15.863  0.9240  2.1343 -0.5990
   11DOPE   C27 1338   2.706   2.947  15.946 -0.1081  0.1316  0.3439
   11DOPE   H7R 1339   2.754   3.035  15.896 -1.1316 -0.2823 -1.4561
   11DOPE   H7S 1340   2.673   2.974  16.049  0.6520 -0.8443  0.8568
   11DOPE   C28 1341   2.575   2.917  15.870  0.6416  0.5810  0.6777
   11DOPE   H8R 1342   2.508   3.005  15.864  0.2887  0.1861 -2.8951
   11DOPE   H8S 1343   2.535   2.827  15.922  1.1458 -0.0404  0.0042
   11DOPE   C29 1344   2.615   2.875  15.729 -0.8010 -0.3892 -0.4286
   11DOPE   H9R 1345   2.685   2.790  15.728 -1.2940 -0.7976 -1.0425
   11DOPE  C210 1346   2.582   2.933  15.611 -0.4168 -0.0319  0.4053
   11DOPE  H10R 1347   2.625   2.892  15.518  2.1681  0.4212  1.3174
   11DOPE  C211 1348   2.493   3.055  15.596  0.5140  0.3571 -1.0273
   11DOPE  H11R 1349   2.419   3.063  15.679  1.0030 -0.2508 -0.5142
   11DOPE  H11S 1350   2.435   3.049  15.502 -2.4490 -2.8115  0.7637
   11DOPE  C212 1351   2.589   3.182  15.593  0.2753 -0.1442 -0.6042
   11DOPE  H12R 1352   2.666   3.176  15.514  0.8983  0.7108 -0.0729
   11DOPE  H12S 1353   2.633   3.199  15.694 -1.4086 -0.4197  0.2244
   11DOPE  C213 1354   2.512   3.304  15.553  0.0117 -0.3837  0.0484
   11DOPE  H13R 1355   2.471   3.349  15.645  0.8337  1.4445 -0.4391
   11DOPE  H13S 1356   2.438   3.281  15.473  1.0802 -0.1001 -1.0510
   11DOPE  C214 1357   2.608   3.420  15.509 -0.3176 -0.4703 -0.1045
   11DOPE  H14R 1358   2.679   3.376  15.436 -0.4322  0.9622 -1.1330
   11DOPE  H14S 1359   2.667   3.453  15.597  0.9417 -1.8040 -0.4114
   11DOPE  C215 1360   2.528   3.530  15.442  0.0649 -0.2926  0.2825
   11DOPE  H15R 1361   2.459   3.578  15.515  1.0984  0.9264  0.4825
   11DOPE  H15S 1362   2.468   3.494  15.356  0.8175  0.7068 -0.6834
   11DOPE  C216 1363   2.612   3.639  15.377  0.4018 -0.1737  0.2879
   11DOPE  H16R 1364   2.665   3.713  15.442 -0.2638  0.8639 -0.3176
   11DOPE  H16S 1365   2.543   3.702  15.316  0.7222  1.4493  1.5171
   11DOPE  C217 1366   2.700   3.582  15.263  0.0800  0.5498  0.1923
   11DOPE  H17R 1367   2.634   3.539  15.185 -1.2059  3.2066 -0.2877
   11DOPE  H17S 1368   2.768   3.509  15.312  1.7228 -0.3101 -3.0778
   11DOPE  C218 1369   2.780   3.685  15.183 -0.7691 -0.0123  0.3413
   11DOPE  H18R 1370   2.726   3.776  15.150 -1.8629  0.2982  2.8134
   11DOPE  H18S 1371   2.825   3.645  15.090 -0.1943 -1.5756  1.2474
   11DOPE  H18T 1372   2.862   3.726  15.246 -2.0166  0.0655  1.9766
   11DOPE   C33 1373   3.678   2.659  16.078  0.2594  0.4390  0.4339
   11DOPE   H3X 1374   3.775   2.608  16.094  0.7762  0.5762 -1.8237
   11DOPE   H3Y 1375   3.670   2.752  16.139  0.0723  2.1706 -2.0554
   11DOPE   C34 1376   3.671   2.697  15.925 -0.3118  0.0991 -0.4129
   11DOPE   H4X 1377   3.573   2.746  15.909 -0.7786 -0.3860  0.8153
   11DOPE   H4Y 1378   3.744   2.779  15.908  0.0394 -0.3083 -0.9122
   11DOPE   C35 1379   3.699   2.586  15.827 -0.1382  0.5979  0.6560
   11DOPE   H5X 1380   3.630   2.500  15.840 -1.2407  1.7184  2.6272
   11DOPE   H5Y 1381   3.797   2.543  15.855  0.3191  1.3206  0.2023
   11DOPE   C36 1382   3.702   2.617  15.671  0.4601 -0.2058 -1.2029
   11DOPE   H6X 1383   3.743   2.527  15.622  1.0800 -0.9535  0.6297
   11DOPE   H6Y 1384   3.776   2.700  15.663  1.1310 -0.6067  0.4068
   11DOPE   C37 1385   3.569   2.651  15.607  0.4082 -0.1277  0.1167
   11DOPE   H7X 1386   3.518   2.740  15.651 -3.9041 -1.7769 -0.9808
   11DOPE   H7Y 1387   3.589   2.692  15.506 -2.0636  1.1179  0.0434
   11DOPE   C38 1388   3.454   2.550  15.611  0.0392  0.0022  0.4766
   11DOPE   H8X 1389   3.486   2.450  15.575 -1.6281 -0.4977  0.3207
   11DOPE   H8Y 1390   3.376   2.579  15.538 -0.6848  0.7400  1.5221
   11DOPE   C39 1391   3.394   2.517  15.747  0.1949  0.6394 -0.1661
   11DOPE   H9X 1392   3.426   2.419  15.783  0.4997  0.2869 -1.3696
   11DOPE  C310 1393   3.309   2.589  15.819  0.0201 -0.1428  0.2893
   11DOPE  H10X 1394   3.264   2.545  15.909  1.6322 -0.3024  1.0499
   11DOPE  C311 1395   3.249   2.720  15.774 -0.6012 -0.9403 -0.1801
   11DOPE  H11X 1396   3.257   2.786  15.863  0.9902 -1.6777  0.2581
   11DOPE  H11Y 1397   3.309   2.768  15.693 -0.2364 -0.7033  0.2280
   11DOPE  C312 1398   3.104   2.705  15.722  0.1247 -0.5156 -0.0669
   11DOPE  H12X 1399   3.070   2.810  15.709  2.2975  0.1678 -0.7061
   11DOPE  H12Y 1400   3.050   2.659  15.808 -1.8437  0.5698 -0.6638
   11DOPE  C313 1401   3.079   2.627  15.594  0.1202  0.1683  0.0611
   11DOPE  H13X 1402   3.131   2.673  15.508  2.5888  0.7984  1.7963
   11DOPE  H13Y 1403   3.122   2.525  15.601 -0.4496 -0.2053 -1.3540
   11DOPE  C314 1404   2.933   2.623  15.558 -0.5956  0.0206 -0.7552
   11DOPE  H14X 1405   2.891   2.725  15.572 -0.9547 -0.1173 -0.8126
   11DOPE  H14Y 1406   2.887   2.559  15.637 -0.4604  0.9652  0.1059
   11DOPE  C315 1407   2.923   2.581  15.409  0.0802 -0.3282 -0.0175
   11DOPE  H15X 1408   2.992   2.642  15.346 -1.1064  1.9971  0.7942
   11DOPE  H15Y 1409   2.818   2.606  15.383  0.3778  0.5583 -0.3983
   11DOPE  C316 1410   2.947   2.431  15.383  0.3103  0.6523  0.3051
   11DOPE  H16X 1411   2.875   2.377  15.449 -2.5637  0.6169 -2.6343
   11DOPE  H16Y 1412   3.052   2.398  15.403 -0.5367 -1.6197  1.4045
   11DOPE  C317 1413   2.913   2.379  15.240  0.0164 -0.8460  0.2939
   11DOPE  H17X 1414   2.815   2.428  15.218  1.2851  1.6201 -0.2590
   11DOPE  H17Y 1415   2.986   2.427  15.172 -0.4757  0.9822  0.9829
   11DOPE  C318 1416   2.925   2.225  15.233  0.0877  0.3580  0.4344
   11DOPE  H18X 1417   2.837   2.181  15.285  1.2697 -2.6226  0.0702
   11DOPE  H18Y 1418   2.949   2.184  15.133 -0.6376 -1.1126  0.8268
   11DOPE  H18Z 1419   3.016   2.200  15.292 -0.2738 -1.0678  0.4131
   12DOPE     N 1420   5.027   6.170  17.266 -0.0034  0.1931 -0.4132
   12DOPE   HN1 1421   4.937   6.221  17.278  0.3674  1.6608 -3.0630
   12DOPE   HN2 1422   5.028   6.085  17.327 -1.2719  0.0872 -0.5200
   12DOPE   HN3 1423   5.108   6.235  17.276 -0.7279  0.8863  1.3309
   12DOPE   C12 1424   5.020   6.125  17.127 -0.3344  0.4016 -0.5346
   12DOPE  H12A 1425   5.120   6.086  17.097  0.8060  0.5646  2.7576
   12DOPE  H12B 1426   4.994   6.213  17.064  2.6096  0.6853 -1.4826
   12DOPE   C11 1427   4.908   6.017  17.113  0.9808 -0.4316 -0.0706
   12DOPE  H11A 1428   4.813   6.060  17.152  2.4197  0.8822  2.2157
   12DOPE  H11B 1429   4.930   5.927  17.174  0.1435  0.1076  1.0750
   12DOPE     P 1430   4.787   5.905  16.893 -0.1456  0.2825 -0.2468
   12DOPE   O13 1431   4.684   5.841  16.977 -0.0571  0.4469  0.0755
   12DOPE   O14 1432   4.844   5.820  16.784  0.0651  0.0505 -0.3165
   12DOPE   O11 1433   4.712   6.031  16.839 -0.4711  0.5311 -0.3802
   12DOPE   O12 1434   4.907   5.960  16.983 -0.3250  0.0594 -0.4286
   12DOPE    C1 1435   4.776   6.145  16.781 -0.0189 -0.3136  0.0987
   12DOPE    HA 1436   4.886   6.134  16.773  0.0244 -0.1018  0.4215
   12DOPE    HB 1437   4.772   6.229  16.853  3.4123 -0.1184  0.2308
   12DOPE    C2 1438   4.714   6.186  16.641 -0.2340  0.3390 -0.0761
   12DOPE    HS 1439   4.778   6.265  16.595 -1.3450  1.1333 -0.3049
   12DOPE   O21 1440   4.578   6.220  16.654  0.6938 -0.3512  0.3305
   12DOPE   C21 1441   4.547   6.342  16.692 -0.8298 -0.1787 -0.0492
   12DOPE   O22 1442   4.632   6.426  16.727  0.7137 -0.1503 -0.2846
   12DOPE   C22 1443   4.395   6.358  16.679  0.3053 -0.1831  0.5476
   12DOPE   H2R 1444   4.369   6.418  16.769  2.0692  2.0382 -0.3258
   12DOPE   H2S 1445   4.340   6.261  16.679 -1.7138  0.9129 -0.7227
   12DOPE    C3 1446   4.726   6.066  16.545  0.0156  0.4324 -0.1358
   12DOPE    HX 1447   4.668   5.983  16.588 -1.3184 -0.1887 -2.9078
   12DOPE    HY 1448   4.833   6.034  16.539  0.2559  1.3281 -0.8776
   12DOPE   O31 1449   4.684   6.098  16.409 -0.4107 -0.1373 -0.5153
   12DOPE   C31 1450   4.633   6.000  16.343  0.3579 -0.6495  0.6257
   12DOPE   O32 1451   4.590   5.896  16.388 -0.2102 -0.1896  0.2882
   12DOPE   C32 1452   4.607   6.041  16.192  0.1351  0.3164 -0.7146
   12DOPE   H2X 1453   4.692   5.998  16.135  0.9580  0.4362  0.3881
   12DOPE   H2Y 1454   4.506   5.999  16.171  0.1699 -0.0705 -0.1633
   12DOPE   C23 1455   4.362   6.450  16.556 -0.1614 -0.7610 -0.4876
   12DOPE   H3R 1456   4.419   6.545  16.556 -0.8422 -0.3120  0.9951
   12DOPE   H3S 1457   4.254   6.475  16.564  0.3803  1.4505  0.7217
   12DOPE   C24 1458   4.394   6.377  16.424 -0.3448  0.3756  0.3616
   12DOPE   H4R 1459   4.325   6.290  16.417 -0.5965  0.6351 -0.5938
   12DOPE   H4S 1460   4.492   6.326  16.424  0.3336  1.6162 -0.8308
   12DOPE   C25 1461   4.390   6.466  16.293  0.8567  0.1235 -0.4910
   12DOPE   H5R 1462   4.292   6.517  16.284  1.7281  1.6731 -2.1022
   12DOPE   H5S 1463   4.398   6.408  16.198 -1.0017  2.5907 -2.2929
   12DOPE   C26 1464   4.508   6.564  16.278  0.3909 -0.2192  0.2392
   12DOPE   H6R 1465   4.599   6.508  16.306  0.9402  1.0945  1.1890
   12DOPE   H6S 1466   4.501   6.649  16.350  1.2950 -0.4997  0.6768
   12DOPE   C27 1467   4.520   6.614  16.133 -0.2185 -0.1964  0.0274
   12DOPE   H7R 1468   4.420   6.655  16.105  0.4298  0.3249 -1.6428
   12DOPE   H7S 1469   4.551   6.538  16.059  1.0886  0.0317  0.3164
   12DOPE   C28 1470   4.607   6.744  16.122  0.0638  0.6470 -0.0441
   12DOPE   H8R 1471   4.708   6.703  16.140 -0.9690 -1.7968  0.6252
   12DOPE   H8S 1472   4.568   6.810  16.202  0.6049 -0.2393  0.9851
   12DOPE   C29 1473   4.599   6.800  15.983  0.8780  0.4868 -0.3743
   12DOPE   H9R 1474   4.600   6.722  15.905 -0.1802  0.5639 -0.4694
   12DOPE  C210 1475   4.553   6.923  15.946 -0.1879 -0.5472 -0.7869
   12DOPE  H10R 1476   4.544   6.946  15.839 -1.1411  2.3637 -0.1808
   12DOPE  C211 1477   4.494   7.030  16.036 -0.3066 -0.3997 -0.0983
   12DOPE  H11R 1478   4.535   7.130  16.009  0.1456 -0.5115  0.1547
   12DOPE  H11S 1479   4.523   7.027  16.143  0.9205 -1.5267 -0.4288
   12DOPE  C212 1480   4.348   7.034  16.038 -0.2908  0.1139 -0.7172
   12DOPE  H12R 1481   4.304   6.945  16.087 -1.2591  1.6011  1.3082
   12DOPE  H12S 1482   4.306   7.037  15.935 -0.0976  1.0950 -0.7815
   12DOPE  C213 1483   4.288   7.158  16.113 -0.2850 -0.0403 -0.4905
   12DOPE  H13R 1484   4.347   7.242  16.070  1.5109 -2.9272 -4.2284
   12DOPE  H13S 1485   4.317   7.155  16.220  1.9351  1.0336 -0.9961
   12DOPE  C214 1486   4.139   7.170  16.093 -0.2828 -0.3233 -0.2830
   12DOPE  H14R 1487   4.093   7.076  16.128 -1.3108 -0.3519 -1.6486
   12DOPE  H14S 1488   4.131   7.162  15.983  0.8018  1.6036 -0.5621
   12DOPE  C215 1489   4.066   7.291  16.149 -0.7027  0.5361 -0.8336
   12DOPE  H15R 1490   3.958   7.274  16.166 -0.4588 -0.2807 -0.0499
   12DOPE  H15S 1491   4.071   7.379  16.082 -2.7894 -0.7110 -2.7733
   12DOPE  C216 1492   4.126   7.326  16.291  0.0803 -0.0372 -0.1211
   12DOPE  H16R 1493   4.234   7.354  16.284  0.4670 -1.4831 -0.3409
   12DOPE  H16S 1494   4.130   7.239  16.360  3.0642  0.0757 -0.0258
   12DOPE  C217 1495   4.045   7.437  16.349 -0.1215 -0.4909 -0.3209
   12DOPE  H17R 1496   3.940   7.401  16.359 -1.2195  1.9078 -2.1958
   12DOPE  H17S 1497   4.052   7.526  16.283  2.0939  0.5289  1.1635
   12DOPE  C218 1498   4.084   7.490  16.491 -0.0948  0.1841 -0.2668
   12DOPE  H18R 1499   4.021   7.578  16.516  0.2268  0.3356  0.0185
   12DOPE  H18S 1500   4.185   7.534  16.496 -0.1449  0.8867 -3.3378
   12DOPE  H18T 1501   4.066   7.413  16.570  2.1192 -1.5851 -1.3829
   12DOPE   C33 1502   4.605   6.195  16.170 -0.1663  0.9171  0.1554
   12DOPE   H3X 1503   4.701   6.241  16.201 -1.5621  2.5579  2.3375
   12DOPE   H3Y 1504   4.515   6.235  16.222  0.4011  0.8397  1.2155
   12DOPE   C34 1505   4.591   6.229  16.021  0.0343 -0.0548 -0.6378
   12DOPE   H4X 1506   4.609   6.339  16.017  3.7701 -0.4214  1.3361
   12DOPE   H4Y 1507   4.674   6.188  15.960  0.0515 -1.0375  0.0211
   12DOPE   C35 1508   4.459   6.192  15.956 -0.7932  0.1946 -0.4241
   12DOPE   H5X 1509   4.383   6.249  16.014 -1.8217 -0.6594 -0.9038
   12DOPE   H5Y 1510   4.433   6.084  15.957  3.3336 -1.0504  2.9294
   12DOPE   C36 1511   4.474   6.236  15.809 -0.6265  0.6889 -0.7683
   12DOPE   H6X 1512   4.576   6.198  15.786 -0.5460  0.0059  0.5872
   12DOPE   H6Y 1513   4.470   6.347  15.801  2.0367  0.8509 -0.8304
   12DOPE   C37 1514   4.371   6.167  15.719 -0.0924 -0.5207  0.6382
   12DOPE   H7X 1515   4.353   6.060  15.744 -0.9944 -0.2954  1.0062
   12DOPE   H7Y 1516   4.276   6.216  15.749  1.1407  1.3731  1.6510
   12DOPE   C38 1517   4.393   6.183  15.566 -0.1462 -0.6566  0.0973
   12DOPE   H8X 1518   4.321   6.128  15.502  0.8899 -1.2308 -0.5985
   12DOPE   H8Y 1519   4.498   6.150  15.550 -0.0210  0.6410 -2.2101
   12DOPE   C39 1520   4.415   6.332  15.523  0.0929  0.6861 -0.5793
   12DOPE   H9X 1521   4.497   6.385  15.574 -1.1665  1.5602  0.5912
   12DOPE  C310 1522   4.345   6.390  15.427  0.2993  0.1513 -0.3958
   12DOPE  H10X 1523   4.364   6.497  15.414  1.0092  0.0840  0.0363
   12DOPE  C311 1524   4.237   6.334  15.339 -0.4127  0.0535  0.5733
   12DOPE  H11X 1525   4.185   6.248  15.385  0.2183  0.5436  2.2844
   12DOPE  H11Y 1526   4.161   6.414  15.324 -0.6886 -0.4236 -0.7276
   12DOPE  C312 1527   4.288   6.296  15.197 -0.3101  0.0812 -0.1270
   12DOPE  H12X 1528   4.199   6.272  15.134 -0.9045 -0.7197  0.9761
   12DOPE  H12Y 1529   4.347   6.202  15.196 -0.4450 -0.0033 -0.5355
   12DOPE  C313 1530   4.366   6.410  15.126  0.8630 -0.3317 -0.4949
   12DOPE  H13X 1531   4.336   6.512  15.155  2.0207  0.1817 -1.0340
   12DOPE  H13Y 1532   4.469   6.401  15.167  1.1011 -0.8432 -1.1781
   12DOPE  C314 1533   4.361   6.394  14.971 -0.2567  0.1211 -0.0377
   12DOPE  H14X 1534   4.435   6.465  14.929  0.5300  0.5933  2.0105
   12DOPE  H14Y 1535   4.254   6.408  14.943 -0.4200 -2.3194 -0.7983
   12DOPE  C315 1536   4.406   6.255  14.930 -1.0675  1.0554  0.7677
   12DOPE  H15X 1537   4.326   6.189  14.970  2.1834 -2.3734  2.1864
   12DOPE  H15Y 1538   4.498   6.220  14.982  0.1149 -0.0796 -1.8958
   12DOPE  C316 1539   4.412   6.235  14.776  0.3944 -0.8797 -0.4132
   12DOPE  H16X 1540   4.467   6.139  14.763 -1.1306 -2.1279  1.7199
   12DOPE  H16Y 1541   4.474   6.317  14.734 -2.3322  1.3441 -0.3327
   12DOPE  C317 1542   4.282   6.242  14.699 -0.3676  0.5943  0.0220
   12DOPE  H17X 1543   4.238   6.343  14.707  0.8125  1.0679  0.7653
   12DOPE  H17Y 1544   4.307   6.218  14.593  0.4209  2.7089 -0.3079
   12DOPE  C318 1545   4.172   6.133  14.733  0.4384 -0.7314 -0.6482
   12DOPE  H18X 1546   4.089   6.147  14.660  1.5862 -2.8221 -2.4872
   12DOPE  H18Y 1547   4.217   6.037  14.701  2.4197 -0.6705  1.7228
   12DOPE  H18Z 1548   4.148   6.143  14.841  0.4188  0.5571 -0.7490
   13DOPE     N 1549   3.615   0.774  17.106  0.2073 -0.2895 -0.7693
   13DOPE   HN1 1550   3.592   0.869  17.070 -1.4736 -0.9157 -1.4834
   13DOPE   HN2 1551   3.562   0.763  17.196  1.8780  0.1674  0.3142
   13DOPE   HN3 1552   3.717   0.767  17.123  0.1688 -1.5263 -0.9515
   13DOPE   C12 1553   3.579   0.693  16.992  0.1431 -0.4002  0.4207
   13DOPE  H12A 1554   3.476   0.727  16.965  0.1668 -1.3347 -0.9104
   13DOPE  H12B 1555   3.570   0.585  17.013  1.1155 -0.6574 -0.3976
   13DOPE   C11 1556   3.680   0.717  16.874  0.2663 -0.3616  0.3312
   13DOPE  H11A 1557   3.653   0.667  16.779  3.7524 -1.6590 -0.1351
   13DOPE  H11B 1558   3.774   0.667  16.905  2.5427  2.2465 -1.7863
   13DOPE     P 1559   3.663   0.975  16.788 -0.4665 -0.1376  0.2517
   13DOPE   O13 1560   3.666   1.103  16.868 -0.1773  0.6543  0.2647
   13DOPE   O14 1561   3.527   0.937  16.743  0.2835  0.4717 -0.2615
   13DOPE   O11 1562   3.764   0.983  16.666 -0.3095 -0.6640  0.4698
   13DOPE   O12 1563   3.724   0.852  16.867 -0.5249 -0.2665 -0.0905
   13DOPE    C1 1564   3.733   0.906  16.550  0.6973 -0.2650 -0.1870
   13DOPE    HA 1565   3.637   0.950  16.517  0.0194 -2.1953 -0.9172
   13DOPE    HB 1566   3.727   0.800  16.583  0.3095  0.0487  0.7995
   13DOPE    C2 1567   3.839   0.915  16.438  0.0362  0.4836 -0.4659
   13DOPE    HS 1568   3.927   0.965  16.485  1.0365 -2.5048  1.1120
   13DOPE   O21 1569   3.785   0.994  16.332 -0.3476 -0.6222 -0.6626
   13DOPE   C21 1570   3.872   1.069  16.267 -0.0316 -0.1428 -0.1144
   13DOPE   O22 1571   3.988   1.086  16.303  0.0456  0.3475  0.2031
   13DOPE   C22 1572   3.807   1.142  16.151  0.3305  0.1284 -0.8088
   13DOPE   H2R 1573   3.799   1.245  16.193  2.4031  0.0304 -0.0389
   13DOPE   H2S 1574   3.712   1.091  16.125  0.6069 -0.3141 -0.9472
   13DOPE    C3 1575   3.885   0.772  16.382  0.6128  0.2025 -0.2943
   13DOPE    HX 1576   3.795   0.739  16.327  1.1370  0.0450 -1.0660
   13DOPE    HY 1577   3.911   0.712  16.472  0.7485 -1.2833 -1.2993
   13DOPE   O31 1578   4.003   0.770  16.295  0.6350 -0.0872  0.5287
   13DOPE   C31 1579   4.115   0.778  16.362  0.1985 -0.4811  0.5824
   13DOPE   O32 1580   4.131   0.771  16.482 -0.2404 -0.1218  0.0935
   13DOPE   C32 1581   4.233   0.785  16.264 -0.5698  0.9355  0.1034
   13DOPE   H2X 1582   4.209   0.887  16.227 -0.6726  1.1152  0.6575
   13DOPE   H2Y 1583   4.329   0.786  16.319 -1.0832 -1.6077  1.1842
   13DOPE   C23 1584   3.908   1.145  16.034  1.1399  0.6369  0.2716
   13DOPE   H3R 1585   3.912   1.045  15.987 -1.6368  0.5744  0.0036
   13DOPE   H3S 1586   4.010   1.180  16.060  0.8770  1.4006  0.3231
   13DOPE   C24 1587   3.866   1.250  15.929 -0.5095  0.1690 -0.8146
   13DOPE   H4R 1588   3.868   1.350  15.977  1.0693  0.3242 -1.1333
   13DOPE   H4S 1589   3.763   1.227  15.893 -0.7022  1.4387 -1.1176
   13DOPE   C25 1590   3.951   1.273  15.799  0.3970  1.3662 -0.7173
   13DOPE   H5R 1591   4.057   1.306  15.815  0.4054  2.1130 -2.1382
   13DOPE   H5S 1592   3.910   1.354  15.734 -0.5900  2.4849  1.2107
   13DOPE   C26 1593   3.958   1.140  15.722 -0.6983 -0.1691  0.0405
   13DOPE   H6R 1594   3.862   1.124  15.668  0.2329 -0.0760 -1.7217
   13DOPE   H6S 1595   3.963   1.052  15.790  0.4548  1.3282  1.9838
   13DOPE   C27 1596   4.079   1.139  15.613 -0.2506 -0.2284  0.4204
   13DOPE   H7R 1597   4.178   1.140  15.664 -0.2812  0.2952  0.4742
   13DOPE   H7S 1598   4.078   1.231  15.551 -0.5829 -0.5218 -0.0103
   13DOPE   C28 1599   4.073   1.019  15.511  1.4015 -0.5171 -0.5823
   13DOPE   H8R 1600   3.980   1.030  15.453  1.3417  3.2381 -0.0343
   13DOPE   H8S 1601   4.063   0.924  15.567 -1.7149 -0.3834 -0.7835
   13DOPE   C29 1602   4.178   1.024  15.411 -0.5169 -0.2471  0.1790
   13DOPE   H9R 1603   4.260   1.083  15.453 -1.3058 -0.0982  1.5411
   13DOPE  C210 1604   4.177   0.961  15.292  0.5168  0.0198  0.2109
   13DOPE  H10R 1605   4.262   0.968  15.223  0.7775 -2.3825  0.1710
   13DOPE  C211 1606   4.068   0.868  15.240 -0.1017  0.4782 -0.5130
   13DOPE  H11R 1607   4.026   0.905  15.143 -1.7631  2.2617  0.8016
   13DOPE  H11S 1608   3.985   0.852  15.312  0.9352 -0.4811  0.5079
   13DOPE  C212 1609   4.140   0.733  15.203  0.4794 -0.1481  0.1072
   13DOPE  H12R 1610   4.151   0.668  15.292 -0.1238  0.2304  0.4649
   13DOPE  H12S 1611   4.242   0.751  15.163  0.5668 -0.9025 -0.0132
   13DOPE  C213 1612   4.061   0.656  15.094 -0.0351 -0.4081  1.1390
   13DOPE  H13R 1613   4.033   0.729  15.015  0.8334  1.0991  2.1454
   13DOPE  H13S 1614   3.966   0.611  15.129 -2.5195  1.4573 -2.5440
   13DOPE  C214 1615   4.140   0.539  15.038  0.0041  0.3945  0.0377
   13DOPE  H14R 1616   4.158   0.458  15.112  0.4251  0.8052  0.3874
   13DOPE  H14S 1617   4.234   0.581  14.997  0.3359  0.2658  0.6690
   13DOPE  C215 1618   4.070   0.450  14.930 -0.5297  0.4125  0.4091
   13DOPE  H15R 1619   3.985   0.406  14.987 -2.0218  2.5302 -0.0221
   13DOPE  H15S 1620   4.144   0.374  14.898  0.3764 -0.2247  3.6958
   13DOPE  C216 1621   4.005   0.526  14.813 -0.8383  0.4094  0.8952
   13DOPE  H16R 1622   4.078   0.599  14.772 -0.3641 -1.0586 -1.0446
   13DOPE  H16S 1623   3.922   0.589  14.850 -0.3660  1.4774  0.1905
   13DOPE  C217 1624   3.965   0.445  14.684 -0.2475  0.2185  0.4312
   13DOPE  H17R 1625   4.046   0.373  14.663 -1.8377 -1.6904  0.5089
   13DOPE  H17S 1626   3.950   0.507  14.593  0.1131 -0.5002 -0.1357
   13DOPE  C218 1627   3.851   0.347  14.707  0.0075 -0.4456 -0.3270
   13DOPE  H18R 1628   3.874   0.269  14.783  1.1339 -0.6705 -0.8650
   13DOPE  H18S 1629   3.809   0.304  14.613 -1.0823 -1.3201  0.5349
   13DOPE  H18T 1630   3.771   0.405  14.757  1.8001  1.5440  0.3671
   13DOPE   C33 1631   4.225   0.671  16.162 -0.0790  0.0668  0.0976
   13DOPE   H3X 1632   4.134   0.652  16.101  1.4109 -2.5830 -1.5056
   13DOPE   H3Y 1633   4.241   0.583  16.227 -2.9089  0.3263  1.2698
   13DOPE   C34 1634   4.343   0.693  16.059  0.1632  0.1709 -1.2524
   13DOPE   H4X 1635   4.436   0.719  16.114 -0.1886 -0.2338 -0.4563
   13DOPE   H4Y 1636   4.367   0.602  16.001  1.6676  0.7332 -1.5712
   13DOPE   C35 1637   4.305   0.795  15.951  0.7085  0.2105 -0.2682
   13DOPE   H5X 1638   4.293   0.890  16.006 -0.6305 -0.6703  1.0169
   13DOPE   H5Y 1639   4.211   0.763  15.902  2.2374 -3.3584 -1.2107
   13DOPE   C36 1640   4.415   0.805  15.845 -0.3324  0.5254 -0.1015
   13DOPE   H6X 1641   4.428   0.716  15.780  4.0421  1.9803 -1.5303
   13DOPE   H6Y 1642   4.515   0.794  15.891 -0.0680 -0.0737 -0.7972
   13DOPE   C37 1643   4.428   0.925  15.755 -0.3503 -0.6984  0.2049
   13DOPE   H7X 1644   4.342   0.938  15.685 -0.9651  0.3258  1.1057
   13DOPE   H7Y 1645   4.429   1.010  15.827  1.0588  0.8045 -1.5173
   13DOPE   C38 1646   4.560   0.929  15.685 -0.0560  0.1985  0.1289
   13DOPE   H8X 1647   4.544   0.843  15.617 -0.3445 -0.2980  0.8121
   13DOPE   H8Y 1648   4.644   0.903  15.753 -0.3394  0.0154  0.4130
   13DOPE   C39 1649   4.595   1.051  15.612 -0.0628 -0.2102  0.2715
   13DOPE   H9X 1650   4.517   1.126  15.589 -1.2623 -2.0864 -2.3220
   13DOPE  C310 1651   4.723   1.085  15.575 -0.3540  0.0650 -0.5188
   13DOPE  H10X 1652   4.739   1.166  15.503  0.7705  0.4149  0.1093
   13DOPE  C311 1653   4.843   1.007  15.602 -0.7615  0.2858 -0.0896
   13DOPE  H11X 1654   4.822   0.899  15.617 -0.3051  0.0475 -1.0396
   13DOPE  H11Y 1655   4.897   1.000  15.505  0.5585  0.7620  0.5807
   13DOPE  C312 1656   4.949   1.067  15.689 -0.5592  0.3492 -0.5160
   13DOPE  H12X 1657   4.962   1.175  15.665 -0.8277  0.8238  1.3881
   13DOPE  H12Y 1658   5.039   1.006  15.667 -0.6823  0.5268 -1.5795
   13DOPE  C313 1659   4.901   1.036  15.831  0.1821  0.2108 -0.3119
   13DOPE  H13X 1660   4.824   1.113  15.853  0.8262  0.4136  1.3272
   13DOPE  H13Y 1661   4.850   0.939  15.849 -0.5791  0.4375 -1.1285
   13DOPE  C314 1662   5.013   1.043  15.931  0.4890  0.3294 -0.2482
   13DOPE  H14X 1663   5.055   1.146  15.929 -0.0399  0.5437 -0.4234
   13DOPE  H14Y 1664   5.093   0.970  15.904  3.0725  3.3829 -1.5801
   13DOPE  C315 1665   4.982   1.016  16.074  0.3999 -0.3570 -0.7970
   13DOPE  H15X 1666   4.899   0.944  16.088  0.8516 -0.4990  1.5822
   13DOPE  H15Y 1667   4.939   1.106  16.124  0.8731  1.0025 -2.7360
   13DOPE  C316 1668   5.107   0.982  16.155 -0.5411  0.2195  0.2041
   13DOPE  H16X 1669   5.186   1.054  16.127 -1.6654  1.0110 -1.0388
   13DOPE  H16Y 1670   5.149   0.887  16.115 -0.0214  1.1041 -1.4129
   13DOPE  C317 1671   5.090   0.983  16.304  0.1593 -0.4279 -0.3549
   13DOPE  H17X 1672   5.087   1.087  16.345 -0.1160 -0.8799  0.8204
   13DOPE  H17Y 1673   4.989   0.941  16.326 -0.2614  0.0085 -1.3746
   13DOPE  C318 1674   5.204   0.912  16.378 -0.3080 -0.2437 -0.1338
   13DOPE  H18X 1675   5.193   0.929  16.487 -2.6772 -2.1490 -0.0029
   13DOPE  H18Y 1676   5.209   0.807  16.342  0.6881  0.3745 -1.9128
   13DOPE  H18Z 1677   5.302   0.954  16.345 -0.1519 -1.5295 -1.4084
   14DOPE     N 1678   7.356   4.467  17.023 -0.0104  0.2557 -0.5803
   14DOPE   HN1 1679   7.347   4.475  17.126 -0.9981  2.5016 -0.7835
   14DOPE   HN2 1680   7.441   4.416  16.991  1.9180  2.4197  0.7424
   14DOPE   HN3 1681   7.375   4.563  16.987  1.9062  0.4258  0.7214
   14DOPE   C12 1682   7.236   4.404  16.961 -0.2527  0.1411  0.3403
   14DOPE  H12A 1683   7.145   4.468  16.964  0.2946  0.9489  0.1805
   14DOPE  H12B 1684   7.212   4.312  17.018  0.0757  1.1616  2.2148
   14DOPE   C11 1685   7.268   4.366  16.811 -0.1840 -0.0088 -0.3487
   14DOPE  H11A 1686   7.310   4.455  16.760  1.5026 -0.9641 -0.6860
   14DOPE  H11B 1687   7.171   4.352  16.758 -0.2113  1.1397 -0.6402
   14DOPE     P 1688   7.501   4.237  16.794 -0.0142  0.1242 -0.5402
   14DOPE   O13 1689   7.558   4.101  16.774 -0.5588  0.3028  0.5638
   14DOPE   O14 1690   7.536   4.297  16.925  0.0193 -0.0708  0.3894
   14DOPE   O11 1691   7.549   4.334  16.678 -0.2608 -0.4119 -0.5313
   14DOPE   O12 1692   7.344   4.247  16.783 -0.8144 -0.6848  0.0207
   14DOPE    C1 1693   7.531   4.306  16.542  0.9842  0.1661  0.4130
   14DOPE    HA 1694   7.447   4.366  16.501  1.9229  0.6193 -0.9526
   14DOPE    HB 1695   7.512   4.198  16.523  0.9753 -0.0698  1.7254
   14DOPE    C2 1696   7.655   4.344  16.459  0.0890  0.1528 -0.4638
   14DOPE    HS 1697   7.696   4.444  16.485  1.5629 -0.6108  0.2386
   14DOPE   O21 1698   7.613   4.333  16.326  0.3598  0.5587 -0.2929
   14DOPE   C21 1699   7.567   4.452  16.273  0.1591 -0.5550  0.2177
   14DOPE   O22 1700   7.559   4.558  16.332 -0.1188 -0.2709 -0.1114
   14DOPE   C22 1701   7.534   4.426  16.128 -0.0084  0.5473  0.7688
   14DOPE   H2R 1702   7.608   4.356  16.083  0.7569  1.3209  0.8029
   14DOPE   H2S 1703   7.558   4.523  16.080 -2.0006  0.9183  0.4283
   14DOPE    C3 1704   7.774   4.251  16.488 -0.1703  0.2895 -0.3906
   14DOPE    HX 1705   7.753   4.145  16.465  1.8052 -0.8069  2.3538
   14DOPE    HY 1706   7.801   4.257  16.595 -1.8117 -0.5260  0.1029
   14DOPE   O31 1707   7.889   4.296  16.410  0.1511 -0.1663  0.2480
   14DOPE   C31 1708   7.987   4.210  16.392 -0.1057 -0.1041 -0.9505
   14DOPE   O32 1709   8.005   4.115  16.467 -0.4239 -0.2232 -0.3139
   14DOPE   C32 1710   8.065   4.233  16.258  0.2255 -0.3016 -0.5869
   14DOPE   H2X 1711   8.161   4.286  16.271  0.0240  0.5743 -2.3344
   14DOPE   H2Y 1712   8.084   4.128  16.227  0.7488 -0.9184  1.6489
   14DOPE   C23 1713   7.384   4.389  16.100  0.0187  0.2181 -0.2300
   14DOPE   H3R 1714   7.323   4.468  16.149  0.1031 -0.4618  0.9982
   14DOPE   H3S 1715   7.363   4.296  16.156 -0.7848  1.4624  1.6389
   14DOPE   C24 1716   7.342   4.377  15.946 -0.1715 -0.1102 -0.5997
   14DOPE   H4R 1717   7.375   4.456  15.876 -1.8891  1.3262  0.1657
   14DOPE   H4S 1718   7.231   4.377  15.948 -0.1821  1.0726  0.9107
   14DOPE   C25 1719   7.393   4.239  15.890 -0.9663 -0.0240  1.5155
   14DOPE   H5R 1720   7.392   4.162  15.970  1.7588 -0.8159  0.8951
   14DOPE   H5S 1721   7.497   4.262  15.858 -0.8001  0.9192  2.6577
   14DOPE   C26 1722   7.306   4.204  15.766  0.4740  0.3524 -0.3437
   14DOPE   H6R 1723   7.207   4.172  15.805  0.8157  1.0084  1.1418
   14DOPE   H6S 1724   7.358   4.122  15.712  0.4423  0.8691 -1.1801
   14DOPE   C27 1725   7.271   4.330  15.682 -0.0023  0.7639  0.5105
   14DOPE   H7R 1726   7.367   4.386  15.672  0.3962  0.0049 -0.0643
   14DOPE   H7S 1727   7.188   4.381  15.734 -1.8186 -2.7240  1.3467
   14DOPE   C28 1728   7.230   4.295  15.532 -0.6290  0.7805  0.0623
   14DOPE   H8R 1729   7.300   4.232  15.474 -2.1388  1.4711 -2.6825
   14DOPE   H8S 1730   7.224   4.386  15.469 -0.7603  0.1710 -0.8277
   14DOPE   C29 1731   7.100   4.219  15.538 -1.1848  0.5794 -0.6347
   14DOPE   H9R 1732   7.122   4.112  15.552  1.2752  1.0636 -0.3611
   14DOPE  C210 1733   6.978   4.269  15.519  0.0815  0.6190  0.0343
   14DOPE  H10R 1734   6.896   4.197  15.510 -0.0939  0.6446  1.2204
   14DOPE  C211 1735   6.952   4.414  15.494 -0.0965  0.6986 -0.4906
   14DOPE  H11R 1736   7.043   4.472  15.522  0.3912 -0.9501  1.5876
   14DOPE  H11S 1737   6.863   4.439  15.555 -1.2953 -1.1060 -1.3994
   14DOPE  C212 1738   6.927   4.447  15.344  0.4585  0.3130 -0.3590
   14DOPE  H12R 1739   6.840   4.385  15.313  0.0207  1.4665 -1.5624
   14DOPE  H12S 1740   7.002   4.400  15.277 -0.0907  1.5124 -1.8811
   14DOPE  C213 1741   6.888   4.593  15.310 -0.4011  0.0428 -0.1426
   14DOPE  H13R 1742   6.818   4.627  15.388  1.4280  4.2010 -0.0894
   14DOPE  H13S 1743   6.827   4.602  15.218 -2.2545 -1.2000  0.9087
   14DOPE  C214 1744   7.010   4.688  15.296  0.6406  0.3911 -0.6689
   14DOPE  H14R 1745   7.067   4.679  15.391 -1.2902 -2.7317  0.3536
   14DOPE  H14S 1746   6.966   4.790  15.288 -1.2882 -0.3645 -0.3187
   14DOPE  C215 1747   7.100   4.650  15.181  0.4757  0.2423  0.0095
   14DOPE  H15R 1748   7.182   4.580  15.208  0.8456  0.8380  0.4589
   14DOPE  H15S 1749   7.159   4.739  15.150 -1.2545  0.0916 -4.6196
   14DOPE  C216 1750   7.031   4.595  15.059  0.9251  0.8142  0.1402
   14DOPE  H16R 1751   6.947   4.665  15.038 -1.8921 -2.1773  0.5478
   14DOPE  H16S 1752   6.983   4.498  15.084  0.8854  0.3678 -1.5753
   14DOPE  C217 1753   7.111   4.549  14.935 -0.1139  0.2336 -0.1585
   14DOPE  H17R 1754   7.188   4.627  14.917  0.7734 -0.7185 -0.5668
   14DOPE  H17S 1755   7.051   4.546  14.842  0.5178 -2.1041 -0.5504
   14DOPE  C218 1756   7.185   4.413  14.936  0.7565 -0.1871  0.2427
   14DOPE  H18R 1757   7.257   4.400  15.019 -1.3514 -1.9639  1.9046
   14DOPE  H18S 1758   7.231   4.405  14.835  1.3719 -0.7969  0.5610
   14DOPE  H18T 1759   7.111   4.331  14.946  1.8362 -1.0181  1.7939
   14DOPE   C33 1760   7.982   4.296  16.155  0.0263 -0.2885 -0.1601
   14DOPE   H3X 1761   7.965   4.405  16.169 -0.4312 -0.2745 -0.7651
   14DOPE   H3Y 1762   7.878   4.254  16.154  0.1096 -0.5084 -1.5458
   14DOPE   C34 1763   8.037   4.277  16.010  0.1925 -0.2514  0.1099
   14DOPE   H4X 1764   8.140   4.319  16.004  0.3704 -0.7898 -0.7081
   14DOPE   H4Y 1765   8.044   4.169  15.984 -1.7819 -0.2841 -0.4229
   14DOPE   C35 1766   7.948   4.332  15.897 -0.9021 -0.1352 -0.7764
   14DOPE   H5X 1767   7.904   4.429  15.928  0.8745  0.6954 -0.7005
   14DOPE   H5Y 1768   7.874   4.254  15.869 -0.4286 -0.4075 -1.2913
   14DOPE   C36 1769   8.036   4.354  15.773 -0.2277 -0.3501 -0.1745
   14DOPE   H6X 1770   8.092   4.259  15.761  0.5589  0.1790 -0.7745
   14DOPE   H6Y 1771   8.111   4.435  15.788 -0.2295 -0.1358 -1.2901
   14DOPE   C37 1772   7.962   4.381  15.642 -0.0676  0.1634 -0.1325
   14DOPE   H7X 1773   7.889   4.300  15.622 -0.4863  0.5082 -0.0296
   14DOPE   H7Y 1774   7.899   4.473  15.646 -0.4223  0.0097 -1.5855
   14DOPE   C38 1775   8.062   4.386  15.520  0.1251  0.0961 -0.3672
   14DOPE   H8X 1776   8.112   4.288  15.509 -0.9861 -0.3320 -1.9662
   14DOPE   H8Y 1777   8.137   4.459  15.555 -0.2773  0.4659 -0.2612
   14DOPE   C39 1778   7.992   4.416  15.393  0.2289  0.5962  0.0015
   14DOPE   H9X 1779   7.950   4.338  15.328 -0.9111  0.7164  0.5735
   14DOPE  C310 1780   7.987   4.538  15.338 -0.8816 -0.6375  0.1629
   14DOPE  H10X 1781   7.944   4.553  15.238  1.1285 -0.5612 -0.7412
   14DOPE  C311 1782   8.048   4.664  15.393 -0.2556 -0.3397  0.6130
   14DOPE  H11X 1783   7.966   4.739  15.390  0.0924  0.0062 -0.4025
   14DOPE  H11Y 1784   8.073   4.662  15.502  0.1896  1.0717  0.5536
   14DOPE  C312 1785   8.177   4.701  15.310  0.6803  0.0295 -0.3034
   14DOPE  H12X 1786   8.262   4.630  15.313 -0.0895 -0.8920 -0.0587
   14DOPE  H12Y 1787   8.215   4.797  15.353 -1.0275  0.0034  1.3930
   14DOPE  C313 1788   8.150   4.721  15.157  0.1450  0.5497  0.5172
   14DOPE  H13X 1789   8.157   4.627  15.097 -0.1585  1.2484 -0.6567
   14DOPE  H13Y 1790   8.047   4.759  15.141 -0.5103 -0.1456  2.7399
   14DOPE  C314 1791   8.255   4.821  15.103  0.2576 -0.2488  0.0446
   14DOPE  H14X 1792   8.262   4.916  15.160 -1.0356  0.8061 -1.4854
   14DOPE  H14Y 1793   8.219   4.845  15.001  1.1445 -2.4250 -0.8551
   14DOPE  C315 1794   8.400   4.769  15.091 -0.2407  0.5288  0.2455
   14DOPE  H15X 1795   8.395   4.667  15.047  1.2126  0.2626  0.6703
   14DOPE  H15Y 1796   8.442   4.748  15.192  0.9524 -0.1083 -0.3653
   14DOPE  C316 1797   8.480   4.860  15.000  0.7175 -0.7788 -0.1915
   14DOPE  H16X 1798   8.470   4.959  15.050  2.0930  0.9148 -3.0547
   14DOPE  H16Y 1799   8.437   4.869  14.898  1.4955  0.3376 -0.4481
   14DOPE  C317 1800   8.625   4.820  15.008 -0.7790 -0.1522  0.0543
   14DOPE  H17X 1801   8.693   4.900  14.973  0.1547 -0.7307  0.5148
   14DOPE  H17Y 1802   8.650   4.791  15.112 -1.0327 -0.5358  0.0124
   14DOPE  C318 1803   8.664   4.698  14.925 -0.1493  0.7601  0.6600
   14DOPE  H18X 1804   8.767   4.696  14.882 -0.1515 -0.6911  0.6666
   14DOPE  H18Y 1805   8.659   4.607  14.989 -0.5070 -0.5341 -1.1251
   14DOPE  H18Z 1806   8.590   4.675  14.846 -1.0545  2.4703  0.9635
   15DOPE     N 1807   2.926   1.586  17.033  0.2336 -0.1132 -0.4090
   15DOPE   HN1 1808   2.856   1.542  16.969 -0.7089  1.0842 -0.2475
   15DOPE   HN2 1809   2.889   1.594  17.130  1.7889  0.2092  0.1828
   15DOPE   HN3 1810   2.950   1.674  16.983  2.5623  0.0985  0.9761
   15DOPE   C12 1811   3.053   1.511  17.041 -0.3660 -0.2437  0.3537
   15DOPE  H12A 1812   3.042   1.406  17.008 -1.1175 -0.0282 -0.0982
   15DOPE  H12B 1813   3.096   1.526  17.142 -0.5110  0.9399  0.2602
   15DOPE   C11 1814   3.166   1.571  16.946 -0.6644 -0.3433  0.2615
   15DOPE  H11A 1815   3.138   1.571  16.838 -0.2773 -1.5692  0.1551
   15DOPE  H11B 1816   3.246   1.495  16.956 -1.1087 -0.8512 -0.0419
   15DOPE     P 1817   3.157   1.836  16.937  0.2675  0.1961 -0.0605
   15DOPE   O13 1818   3.235   1.942  17.003 -0.3267 -0.6339 -0.2526
   15DOPE   O14 1819   3.011   1.832  16.962  0.0383  0.5768  0.0173
   15DOPE   O11 1820   3.184   1.838  16.785  0.2319 -0.0705 -0.5782
   15DOPE   O12 1821   3.216   1.697  16.988  0.5837  0.2335  0.6005
   15DOPE    C1 1822   3.310   1.831  16.727 -0.3098  0.3754 -0.4068
   15DOPE    HA 1823   3.387   1.776  16.787 -1.4886 -0.1631  0.6655
   15DOPE    HB 1824   3.363   1.928  16.734 -1.0920  0.7234  1.2059
   15DOPE    C2 1825   3.295   1.780  16.578  1.1895  0.5563 -1.2171
   15DOPE    HS 1826   3.399   1.791  16.540  1.9805  1.1518  0.9574
   15DOPE   O21 1827   3.204   1.860  16.509 -0.7039  0.2640  0.6328
   15DOPE   C21 1828   3.250   1.970  16.439 -0.1110 -0.0784  0.2190
   15DOPE   O22 1829   3.364   2.000  16.414  0.3363 -0.5180  0.3504
   15DOPE   C22 1830   3.129   2.042  16.386  0.0316 -1.3894 -0.0925
   15DOPE   H2R 1831   3.082   2.104  16.466 -0.9193 -0.9792 -0.9541
   15DOPE   H2S 1832   3.049   1.972  16.356 -2.0809 -0.4650  2.8491
   15DOPE    C3 1833   3.254   1.629  16.563  0.5546 -0.4137  0.0768
   15DOPE    HX 1834   3.164   1.612  16.626 -0.1808  0.7727 -0.6029
   15DOPE    HY 1835   3.333   1.568  16.611  0.2129 -0.0263  1.1781
   15DOPE   O31 1836   3.233   1.594  16.425 -0.3693 -0.5991 -0.0647
   15DOPE   C31 1837   3.113   1.625  16.375 -0.6185 -0.4019  0.0816
   15DOPE   O32 1838   3.008   1.645  16.442  0.1134 -0.1836  0.7692
   15DOPE   C32 1839   3.108   1.608  16.220 -0.2768  0.1039  0.2271
   15DOPE   H2X 1840   3.202   1.652  16.180 -1.2098  0.8724 -1.1944
   15DOPE   H2Y 1841   3.102   1.498  16.203  2.2034 -0.0166 -0.3195
   15DOPE   C23 1842   3.173   2.131  16.267  0.5304 -0.2579  0.4694
   15DOPE   H3R 1843   3.272   2.179  16.281  0.9405  0.0374 -2.5924
   15DOPE   H3S 1844   3.112   2.224  16.275 -0.5080 -0.7079 -1.4599
   15DOPE   C24 1845   3.154   2.069  16.127 -0.8616  0.3379  0.1426
   15DOPE   H4R 1846   3.053   2.031  16.101 -0.5060  0.4803 -1.5531
   15DOPE   H4S 1847   3.214   1.975  16.131  0.1271  0.9658  0.5154
   15DOPE   C25 1848   3.203   2.152  16.008 -0.3586  0.3031  0.3457
   15DOPE   H5R 1849   3.303   2.192  16.036 -0.5168  1.5137 -0.7131
   15DOPE   H5S 1850   3.138   2.242  16.003  1.4669  1.5903 -2.4290
   15DOPE   C26 1851   3.204   2.089  15.874  0.2123  0.0956 -0.2669
   15DOPE   H6R 1852   3.167   2.165  15.801  1.9592  0.5045 -0.7748
   15DOPE   H6S 1853   3.138   2.001  15.864  0.9090 -0.6962  1.6598
   15DOPE   C27 1854   3.351   2.054  15.823  0.5701  0.0813 -0.5407
   15DOPE   H7R 1855   3.401   1.994  15.902  1.0240  1.8092  0.5489
   15DOPE   H7S 1856   3.402   2.152  15.810  0.0650  0.1898 -1.8529
   15DOPE   C28 1857   3.359   1.969  15.700 -0.4341  0.2255 -0.2323
   15DOPE   H8R 1858   3.282   2.005  15.627  0.0984  0.0089 -0.9065
   15DOPE   H8S 1859   3.322   1.868  15.728 -0.1233  0.5217  1.3165
   15DOPE   C29 1860   3.502   1.954  15.654 -0.1589  0.7253  0.7408
   15DOPE   H9R 1861   3.573   1.903  15.720 -1.0008 -0.0413  1.0596
   15DOPE  C210 1862   3.549   2.015  15.541 -0.4073 -0.2330 -1.0966
   15DOPE  H10R 1863   3.652   1.993  15.510 -0.0467 -2.1579  1.2084
   15DOPE  C211 1864   3.460   2.106  15.453  0.9216  0.9668  0.0814
   15DOPE  H11R 1865   3.525   2.190  15.422 -0.5241  1.4867 -1.7632
   15DOPE  H11S 1866   3.385   2.157  15.516  1.7519  0.3012  1.6561
   15DOPE  C212 1867   3.388   2.063  15.323  0.1083 -0.3406 -0.2300
   15DOPE  H12R 1868   3.326   1.972  15.343 -1.4931  0.0202 -3.0524
   15DOPE  H12S 1869   3.463   2.048  15.243  0.0851  0.6446 -0.4522
   15DOPE  C213 1870   3.313   2.184  15.265  0.9571 -0.4341 -0.6596
   15DOPE  H13R 1871   3.371   2.278  15.266  0.9699 -0.4430 -0.6055
   15DOPE  H13S 1872   3.223   2.196  15.329 -0.4434 -3.7200 -1.7469
   15DOPE  C214 1873   3.260   2.170  15.120  0.5044  0.4269 -0.4018
   15DOPE  H14R 1874   3.189   2.247  15.082 -0.6545 -0.2002  0.4016
   15DOPE  H14S 1875   3.210   2.074  15.095  3.1464 -0.8031 -1.2799
   15DOPE  C215 1876   3.371   2.182  15.016  0.5800  0.5788  0.4243
   15DOPE  H15R 1877   3.443   2.098  15.022 -0.2268 -0.2867 -1.2285
   15DOPE  H15S 1878   3.423   2.278  15.037  0.6667  0.2457  1.8003
   15DOPE  C216 1879   3.325   2.192  14.867  1.0877  0.0448 -0.4357
   15DOPE  H16R 1880   3.412   2.192  14.798  0.2938 -1.4331 -1.5034
   15DOPE  H16S 1881   3.272   2.289  14.853  2.7197  0.7077 -2.6145
   15DOPE  C217 1882   3.230   2.080  14.816  0.0546 -0.0602 -0.8046
   15DOPE  H17R 1883   3.138   2.086  14.878  1.4028  0.2892  1.2652
   15DOPE  H17S 1884   3.271   1.977  14.826 -1.4735 -0.6817 -0.6910
   15DOPE  C218 1885   3.178   2.096  14.672 -0.4410 -0.1346 -0.7891
   15DOPE  H18R 1886   3.181   2.206  14.661 -1.2004 -0.1133 -0.8941
   15DOPE  H18S 1887   3.070   2.074  14.655 -1.1020  0.2305  2.4205
   15DOPE  H18T 1888   3.237   2.059  14.586 -0.0352 -0.5554 -0.3314
   15DOPE   C33 1889   2.989   1.688  16.151  1.4899 -0.1697 -0.4075
   15DOPE   H3X 1890   2.973   1.791  16.190 -3.3585 -0.4538 -0.9960
   15DOPE   H3Y 1891   2.896   1.634  16.178  0.4922  1.1398 -1.0792
   15DOPE   C34 1892   3.000   1.690  16.000  0.3166 -0.1889  0.2595
   15DOPE   H4X 1893   2.918   1.755  15.962  0.9905  0.7123  0.3182
   15DOPE   H4Y 1894   3.096   1.741  15.978 -1.1917  2.4769 -0.7439
   15DOPE   C35 1895   2.995   1.554  15.936  0.0515  0.1410 -0.2434
   15DOPE   H5X 1896   2.920   1.498  15.996  0.3791  1.3370  1.3467
   15DOPE   H5Y 1897   3.092   1.501  15.947  1.2149  2.1698 -0.3629
   15DOPE   C36 1898   2.966   1.562  15.790 -0.5651 -0.1290 -0.0434
   15DOPE   H6X 1899   3.050   1.612  15.738 -0.4534 -1.1140 -0.8305
   15DOPE   H6Y 1900   2.872   1.620  15.779  0.0855  0.9029 -0.2974
   15DOPE   C37 1901   2.952   1.422  15.725  0.6586  0.2202  0.1200
   15DOPE   H7X 1902   3.056   1.389  15.703  0.8025  1.4175 -1.1093
   15DOPE   H7Y 1903   2.911   1.345  15.794 -0.7156  0.9133  0.1160
   15DOPE   C38 1904   2.857   1.421  15.599  0.2933  0.7157 -0.5248
   15DOPE   H8X 1905   2.754   1.462  15.608 -0.5470 -1.5618  1.5248
   15DOPE   H8Y 1906   2.825   1.317  15.574  0.8516  1.0385 -2.8323
   15DOPE   C39 1907   2.938   1.490  15.488 -0.0520 -0.1116  0.3629
   15DOPE   H9X 1908   2.928   1.599  15.498 -2.8702 -0.3761  1.3274
   15DOPE  C310 1909   2.998   1.438  15.377 -0.2147  0.2986 -0.1390
   15DOPE  H10X 1910   3.047   1.501  15.303 -0.7339  1.8097  0.7610
   15DOPE  C311 1911   2.996   1.291  15.340  0.1074  0.6095 -0.1435
   15DOPE  H11X 1912   3.084   1.231  15.372 -0.1068  0.8512  0.9327
   15DOPE  H11Y 1913   2.914   1.233  15.387  0.9495 -1.8271 -1.4553
   15DOPE  C312 1914   2.980   1.260  15.186 -0.9378 -0.2892  0.1366
   15DOPE  H12X 1915   3.064   1.299  15.124  0.8197 -1.2975  1.7598
   15DOPE  H12Y 1916   2.888   1.313  15.152 -0.4276  1.1310  0.8867
   15DOPE  C313 1917   2.959   1.107  15.152  0.4224 -0.4019 -0.5642
   15DOPE  H13X 1918   3.038   1.055  15.211  1.5443  0.5790 -1.1739
   15DOPE  H13Y 1919   2.855   1.086  15.184  1.3030 -2.6913  1.1378
   15DOPE  C314 1920   2.960   1.067  15.005 -0.2026  0.5881 -0.6320
   15DOPE  H14X 1921   3.053   1.100  14.955 -0.2384  1.9563  0.1566
   15DOPE  H14Y 1922   2.871   1.114  14.958 -0.8854  0.3123  0.3535
   15DOPE  C315 1923   2.948   0.912  14.991 -0.4685 -0.3702 -0.2577
   15DOPE  H15X 1924   2.854   0.870  15.033 -0.9464 -0.7376 -1.6332
   15DOPE  H15Y 1925   3.023   0.849  15.045 -0.9957  0.3960  1.4368
   15DOPE  C316 1926   2.954   0.872  14.844  0.2067  0.5614 -0.4994
   15DOPE  H16X 1927   3.055   0.904  14.810  0.6349  0.3836  0.5763
   15DOPE  H16Y 1928   2.867   0.924  14.799 -0.3239  0.5912  0.5363
   15DOPE  C317 1929   2.939   0.721  14.826  0.3425 -0.5150  0.0600
   15DOPE  H17X 1930   3.011   0.663  14.887  1.5292 -0.2116 -1.0160
   15DOPE  H17Y 1931   2.838   0.685  14.854  0.7943 -2.3556 -0.5541
   15DOPE  C318 1932   2.965   0.672  14.680 -0.0313 -0.5185  0.1419
   15DOPE  H18X 1933   3.061   0.717  14.647 -0.2548 -1.4633 -1.9937
   15DOPE  H18Y 1934   2.970   0.561  14.670 -1.3941 -0.6557  0.7727
   15DOPE  H18Z 1935   2.887   0.717  14.615  2.4500  3.4358 -0.4150
   16DOPE     N 1936   2.472   3.509  16.635 -0.0869  1.0765  0.9293
   16DOPE   HN1 1937   2.476   3.405  16.632  0.4876  1.1099  0.2682
   16DOPE   HN2 1938   2.433   3.550  16.548  1.0683 -2.1376 -1.2756
   16DOPE   HN3 1939   2.570   3.545  16.636  0.2569  0.2036  3.1820
   16DOPE   C12 1940   2.401   3.545  16.763  0.2148  0.0071 -0.2201
   16DOPE  H12A 1941   2.410   3.655  16.770  0.2287 -0.0475  0.8147
   16DOPE  H12B 1942   2.457   3.503  16.849  0.4423 -0.5815 -0.6533
   16DOPE   C11 1943   2.251   3.489  16.781 -0.2802  0.6824 -0.6102
   16DOPE  H11A 1944   2.185   3.520  16.698  0.6362 -0.4118 -1.7802
   16DOPE  H11B 1945   2.207   3.536  16.872  1.0243 -0.3059  0.5832
   16DOPE     P 1946   2.126   3.252  16.771 -0.0936  0.1411 -0.0157
   16DOPE   O13 1947   2.028   3.252  16.885  0.2769 -0.1810  0.0607
   16DOPE   O14 1948   2.166   3.115  16.729  0.0382 -0.0341 -0.4554
   16DOPE   O11 1949   2.068   3.327  16.647 -0.4178 -0.1770  0.2641
   16DOPE   O12 1950   2.261   3.345  16.800  0.9347 -0.2922  0.2868
   16DOPE    C1 1951   2.143   3.344  16.526  0.1216 -0.6168 -0.2350
   16DOPE    HA 1952   2.253   3.355  16.539  0.2576 -0.9325 -1.0506
   16DOPE    HB 1953   2.112   3.432  16.466  0.6492  0.3396  0.8681
   16DOPE    C2 1954   2.127   3.220  16.432  0.8517 -0.8824  0.0439
   16DOPE    HS 1955   2.185   3.134  16.473  0.6750  0.5019  3.5161
   16DOPE   O21 1956   2.158   3.262  16.300 -0.2910 -0.3831  0.6017
   16DOPE   C21 1957   2.286   3.264  16.271  0.2169 -0.3434 -1.0265
   16DOPE   O22 1958   2.365   3.208  16.345  0.0304 -0.2307 -0.2310
   16DOPE   C22 1959   2.326   3.316  16.129 -0.2074 -0.0078 -0.1448
   16DOPE   H2R 1960   2.250   3.391  16.095  1.6917  2.3458  0.5093
   16DOPE   H2S 1961   2.306   3.224  16.070 -2.2720  0.2649  0.0547
   16DOPE    C3 1962   1.981   3.174  16.441  0.7373 -0.0845 -0.3882
   16DOPE    HX 1963   1.918   3.266  16.450 -0.6399 -1.0381  0.1278
   16DOPE    HY 1964   1.963   3.127  16.541  1.1399  1.5627  0.4992
   16DOPE   O31 1965   1.935   3.086  16.330 -1.1074  0.4814 -0.7178
   16DOPE   C31 1966   1.803   3.080  16.328 -0.0845 -0.0499  0.1577
   16DOPE   O32 1967   1.728   3.112  16.414  0.1942 -0.8443 -0.1139
   16DOPE   C32 1968   1.755   3.038  16.192 -0.6259 -0.5570 -0.2987
   16DOPE   H2X 1969   1.815   2.948  16.167  2.3735  1.1491  0.3156
   16DOPE   H2Y 1970   1.649   3.014  16.216 -0.3368  1.0666  3.3880
   16DOPE   C23 1971   2.472   3.367  16.129 -0.1989  0.2819  0.0023
   16DOPE   H3R 1972   2.550   3.288  16.135  1.3318  1.7010 -0.2805
   16DOPE   H3S 1973   2.494   3.426  16.221 -0.5746 -0.5693  0.6577
   16DOPE   C24 1974   2.514   3.433  16.005 -0.3999  0.3037  0.2846
   16DOPE   H4R 1975   2.471   3.379  15.918 -0.9598  0.4357  0.4778
   16DOPE   H4S 1976   2.625   3.429  15.995 -0.4119 -0.2013  0.3150
   16DOPE   C25 1977   2.473   3.581  15.995  0.0687  0.1609  0.0572
   16DOPE   H5R 1978   2.364   3.587  16.017 -0.5199 -1.5934 -2.0472
   16DOPE   H5S 1979   2.487   3.611  15.890  0.2332 -1.1629 -0.3227
   16DOPE   C26 1980   2.545   3.674  16.091  0.2819 -0.0486  0.8573
   16DOPE   H6R 1981   2.525   3.645  16.197  2.0700 -0.5999  1.0782
   16DOPE   H6S 1982   2.504   3.776  16.083  0.1140 -0.1310  0.6609
   16DOPE   C27 1983   2.703   3.676  16.096  0.1115 -0.3179  0.4327
   16DOPE   H7R 1984   2.728   3.576  16.139 -0.5983 -1.4779 -1.6741
   16DOPE   H7S 1985   2.729   3.762  16.160 -1.9363  0.1876  0.6716
   16DOPE   C28 1986   2.760   3.694  15.950  0.9102  0.3854 -0.0707
   16DOPE   H8R 1987   2.701   3.775  15.902 -0.0171 -0.1936  0.0683
   16DOPE   H8S 1988   2.756   3.604  15.885 -0.4833  2.1022 -2.5276
   16DOPE   C29 1989   2.900   3.733  15.973 -0.0017 -0.4905  0.3832
   16DOPE   H9R 1990   2.940   3.722  16.075 -0.1064  2.4568  0.8231
   16DOPE  C210 1991   2.985   3.787  15.879  0.7423 -0.8668  0.1046
   16DOPE  H10R 1992   3.082   3.828  15.911  0.6823  0.8398 -1.6767
   16DOPE  C211 1993   2.951   3.829  15.737 -0.2269  0.8491  0.4288
   16DOPE  H11R 1994   2.918   3.935  15.738 -1.2205  0.6118 -2.0132
   16DOPE  H11S 1995   2.858   3.779  15.703 -0.8846  0.7204  2.2793
   16DOPE  C212 1996   3.069   3.811  15.636  0.2537  0.6959 -0.0330
   16DOPE  H12R 1997   3.152   3.872  15.678 -2.1361  1.7650  3.6706
   16DOPE  H12S 1998   3.033   3.855  15.541  1.8600  0.3579 -0.8283
   16DOPE  C213 1999   3.112   3.667  15.593 -0.4098  0.2641  0.6798
   16DOPE  H13R 2000   3.040   3.612  15.530  0.6781  0.3983 -0.7260
   16DOPE  H13S 2001   3.143   3.599  15.676  1.0148 -0.5115 -0.4471
   16DOPE  C214 2002   3.235   3.680  15.498  0.3147 -0.1005 -0.7865
   16DOPE  H14R 2003   3.330   3.710  15.549  0.6742 -0.9362 -0.9456
   16DOPE  H14S 2004   3.217   3.754  15.418  2.1138 -0.0551 -1.1986
   16DOPE  C215 2005   3.270   3.543  15.435 -0.5063  0.4007 -0.5459
   16DOPE  H15R 2006   3.298   3.469  15.513  0.0556  1.3530  0.1873
   16DOPE  H15S 2007   3.361   3.571  15.377 -0.2651  1.7895  0.4550
   16DOPE  C216 2008   3.163   3.484  15.342  0.5034  0.3807  0.4194
   16DOPE  H16R 2009   3.067   3.475  15.398 -1.2761  3.2349 -1.8945
   16DOPE  H16S 2010   3.193   3.380  15.314  0.7226  0.5113  0.1631
   16DOPE  C217 2011   3.143   3.572  15.212  0.8170  0.9284 -0.1517
   16DOPE  H17R 2012   3.245   3.602  15.182  2.3800 -2.9262  0.6500
   16DOPE  H17S 2013   3.087   3.665  15.236  0.2846  0.2222  1.5389
   16DOPE  C218 2014   3.081   3.490  15.096 -0.3420 -0.2230  0.7676
   16DOPE  H18R 2015   2.980   3.449  15.116 -0.0966 -0.7067  1.0482
   16DOPE  H18S 2016   3.151   3.409  15.063 -1.0574 -0.9595  1.0200
   16DOPE  H18T 2017   3.071   3.559  15.010  0.9288 -0.1049  0.6863
   16DOPE   C33 2018   1.772   3.143  16.077 -0.0951 -0.3959 -0.7036
   16DOPE   H3X 2019   1.880   3.163  16.060  0.1161 -1.7479 -1.0331
   16DOPE   H3Y 2020   1.723   3.239  16.106  1.0622  0.3044 -0.9766
   16DOPE   C34 2021   1.702   3.101  15.940  0.1527  1.0782 -0.1593
   16DOPE   H4X 2022   1.723   2.993  15.930  0.6702  1.3436 -2.9045
   16DOPE   H4Y 2023   1.593   3.113  15.955  0.3281  0.1455  2.2424
   16DOPE   C35 2024   1.735   3.195  15.821  0.2086  0.7722  0.5519
   16DOPE   H5X 2025   1.845   3.182  15.808 -0.2604 -2.6089 -1.2184
   16DOPE   H5Y 2026   1.703   3.299  15.844 -3.6877 -0.3825  0.8977
   16DOPE   C36 2027   1.674   3.151  15.685 -0.1926 -0.1006 -0.7566
   16DOPE   H6X 2028   1.566   3.176  15.681  0.3071  2.1965 -1.6765
   16DOPE   H6Y 2029   1.706   3.047  15.666 -1.0027 -0.3594 -0.7488
   16DOPE   C37 2030   1.736   3.225  15.568  0.2302 -0.7963  0.8175
   16DOPE   H7X 2031   1.846   3.237  15.580  0.2004  3.1286 -1.2365
   16DOPE   H7Y 2032   1.710   3.159  15.482  0.9595 -0.6158  0.4474
   16DOPE   C38 2033   1.669   3.357  15.529 -0.6199 -0.8744 -0.0311
   16DOPE   H8X 2034   1.666   3.416  15.623  0.9767 -1.3669  0.3705
   16DOPE   H8Y 2035   1.568   3.326  15.497  0.3321 -3.0573 -1.1186
   16DOPE   C39 2036   1.741   3.442  15.427  0.0727  0.5203 -0.5597
   16DOPE   H9X 2037   1.840   3.473  15.463  0.1552 -1.2655  0.9204
   16DOPE  C310 2038   1.677   3.509  15.328  0.3508  0.1027  0.0572
   16DOPE  H10X 2039   1.750   3.559  15.262  0.7768 -0.1909  0.3015
   16DOPE  C311 2040   1.527   3.519  15.304  0.1805 -0.0772  0.1215
   16DOPE  H11X 2041   1.468   3.471  15.386  1.3761 -0.9332  0.5057
   16DOPE  H11Y 2042   1.491   3.624  15.308 -1.9481 -0.7826  1.3207
   16DOPE  C312 2043   1.470   3.459  15.173  0.2894 -0.1057  0.4205
   16DOPE  H12X 2044   1.509   3.520  15.089 -0.3635  2.3528  1.7988
   16DOPE  H12Y 2045   1.360   3.458  15.160  0.5002 -0.4025 -1.7695
   16DOPE  C313 2046   1.524   3.322  15.137 -0.5438 -0.4702  0.1799
   16DOPE  H13X 2047   1.628   3.343  15.105 -0.2641  0.5487  1.6562
   16DOPE  H13Y 2048   1.513   3.265  15.232  0.6162  1.6603  1.6965
   16DOPE  C314 2049   1.443   3.254  15.025 -0.3148  0.2017 -0.0248
   16DOPE  H14X 2050   1.351   3.232  15.082  0.8600 -0.6386  1.6323
   16DOPE  H14Y 2051   1.484   3.161  14.980  0.3292  1.3817 -2.0354
   16DOPE  C315 2052   1.429   3.327  14.888  0.3872 -0.3652 -0.2263
   16DOPE  H15X 2053   1.526   3.317  14.834  0.5953 -0.3144  0.1364
   16DOPE  H15Y 2054   1.418   3.437  14.897  0.9291 -0.1355 -1.8765
   16DOPE  C316 2055   1.314   3.276  14.804 -0.4528 -0.3739  0.1183
   16DOPE  H16X 2056   1.219   3.291  14.860 -1.9578 -4.4166 -0.9322
   16DOPE  H16Y 2057   1.313   3.165  14.800  0.5534 -0.4154  0.7417
   16DOPE  C317 2058   1.312   3.330  14.659 -0.0228  0.2514 -0.6528
   16DOPE  H17X 2059   1.275   3.434  14.672 -1.6288 -0.4541  0.7988
   16DOPE  H17Y 2060   1.419   3.333  14.630  0.1119 -0.7357 -0.3068
   16DOPE  C318 2061   1.217   3.262  14.560  0.9134  0.2250  0.6762
   16DOPE  H18X 2062   1.205   3.320  14.466  1.1352  3.6233  2.5816
   16DOPE  H18Y 2063   1.246   3.155  14.559  1.5197  0.3630  1.7941
   16DOPE  H18Z 2064   1.118   3.261  14.609  0.1668  0.6387 -0.7633
   17DOPE     N 2065   4.116   6.648  17.028 -0.0252  0.1091 -0.0766
   17DOPE   HN1 2066   4.031   6.696  16.992  1.1056  1.7147 -0.7219
   17DOPE   HN2 2067   4.092   6.602  17.118 -0.5371 -2.5073 -1.4428
   17DOPE   HN3 2068   4.186   6.722  17.046  0.3750 -0.5167  1.0612
   17DOPE   C12 2069   4.162   6.551  16.918 -0.0039  0.1204 -0.1220
   17DOPE  H12A 2070   4.260   6.508  16.947  0.0035 -0.3552 -0.8498
   17DOPE  H12B 2071   4.183   6.616  16.830 -0.5465 -0.0031 -0.3448
   17DOPE   C11 2072   4.061   6.441  16.899  0.7266  0.1064 -0.0694
   17DOPE  H11A 2073   4.039   6.391  16.995  1.1074  2.2978  1.2212
   17DOPE  H11B 2074   4.112   6.377  16.823 -0.5025 -1.6455  0.5118
   17DOPE     P 2075   3.806   6.398  16.855 -0.5428  0.1276  0.2275
   17DOPE   O13 2076   3.685   6.458  16.798  0.2648  0.5532 -0.1614
   17DOPE   O14 2077   3.802   6.362  16.999 -0.2222  0.2165 -0.1051
   17DOPE   O11 2078   3.845   6.273  16.762  0.0613  0.0024 -0.2936
   17DOPE   O12 2079   3.938   6.485  16.846  0.3206  0.5800 -0.4751
   17DOPE    C1 2080   3.890   6.143  16.811  0.2223  0.1711  0.1611
   17DOPE    HA 2081   3.802   6.076  16.800 -0.3512  0.7610  1.0870
   17DOPE    HB 2082   3.916   6.147  16.919  1.5352  3.1420 -0.1713
   17DOPE    C2 2083   4.007   6.089  16.718 -0.5231 -0.2144 -0.5976
   17DOPE    HS 2084   4.098   6.153  16.717 -0.9604  0.5136  1.3063
   17DOPE   O21 2085   3.956   6.060  16.585 -0.0337  0.0889  0.0563
   17DOPE   C21 2086   3.977   6.160  16.496 -0.6854 -0.2696  0.5360
   17DOPE   O22 2087   4.044   6.260  16.509  0.1798  0.0193  0.4381
   17DOPE   C22 2088   3.886   6.140  16.381  0.2734  0.3463 -1.0365
   17DOPE   H2R 2089   3.785   6.174  16.413 -0.3351 -0.5902 -1.8891
   17DOPE   H2S 2090   3.880   6.030  16.361  0.8441 -0.1615  1.3240
   17DOPE    C3 2091   4.056   5.953  16.783  0.5379  0.8361  0.1313
   17DOPE    HX 2092   3.965   5.891  16.800 -0.2236  1.5712 -1.0915
   17DOPE    HY 2093   4.107   5.972  16.880  0.2050  1.7853  0.1278
   17DOPE   O31 2094   4.139   5.876  16.702  0.2162 -0.3752  0.0022
   17DOPE   C31 2095   4.268   5.904  16.695  0.0774  0.0577 -0.4181
   17DOPE   O32 2096   4.323   5.991  16.762  0.2912  0.1949  0.4671
   17DOPE   C32 2097   4.333   5.812  16.596  0.2429 -0.9288 -0.1267
   17DOPE   H2X 2098   4.439   5.845  16.587 -0.0814 -0.3799 -2.6313
   17DOPE   H2Y 2099   4.320   5.705  16.624 -0.3690 -1.1230 -1.1113
   17DOPE   C23 2100   3.947   6.202  16.255  0.2559  0.0201  0.3248
   17DOPE   H3R 2101   4.051   6.165  16.245  0.6064  1.3379 -1.3694
   17DOPE   H3S 2102   3.956   6.313  16.251  1.0604 -0.0778 -0.8012
   17DOPE   C24 2103   3.868   6.172  16.130  0.3147  0.3000 -0.1853
   17DOPE   H4R 2104   3.837   6.065  16.128  1.3022  0.0099 -0.4036
   17DOPE   H4S 2105   3.933   6.180  16.040  0.9183 -1.2019  0.0769
   17DOPE   C25 2106   3.736   6.255  16.125  0.8247  0.0646 -0.5673
   17DOPE   H5R 2107   3.766   6.359  16.102  1.1722 -0.2480 -1.5808
   17DOPE   H5S 2108   3.696   6.250  16.228  1.1360  0.7957 -0.4102
   17DOPE   C26 2109   3.652   6.205  16.009  0.1433 -0.2291 -0.1918
   17DOPE   H6R 2110   3.602   6.111  16.038 -0.1073  0.1303  0.5687
   17DOPE   H6S 2111   3.712   6.169  15.923 -0.2975 -0.7155 -0.2983
   17DOPE   C27 2112   3.559   6.313  15.951 -0.1159  0.5234  0.3686
   17DOPE   H7R 2113   3.615   6.406  15.926 -0.5537  0.9008  0.7730
   17DOPE   H7S 2114   3.486   6.358  16.022  0.0319 -0.5930  1.2726
   17DOPE   C28 2115   3.477   6.273  15.822  0.0779 -0.2744 -0.4256
   17DOPE   H8R 2116   3.545   6.219  15.753 -1.3393 -0.4484 -1.7275
   17DOPE   H8S 2117   3.425   6.359  15.775  0.6118  0.3557  0.1155
   17DOPE   C29 2118   3.370   6.177  15.878 -0.2175  0.1843 -0.2343
   17DOPE   H9R 2119   3.319   6.214  15.968  1.7055  1.7998  0.2791
   17DOPE  C210 2120   3.315   6.074  15.807  0.0292 -0.2162  0.4563
   17DOPE  H10R 2121   3.238   6.015  15.859 -1.1448 -0.2336 -1.2094
   17DOPE  C211 2122   3.346   6.044  15.660  0.1140  0.1125  0.1375
   17DOPE  H11R 2123   3.348   5.934  15.644  0.3437  0.2217 -0.6545
   17DOPE  H11S 2124   3.448   6.083  15.637  0.3438 -0.4410  0.2067
   17DOPE  C212 2125   3.250   6.109  15.557 -0.1793  0.2575  0.1132
   17DOPE  H12R 2126   3.236   6.219  15.568 -0.3396  0.3989 -1.3384
   17DOPE  H12S 2127   3.155   6.054  15.573  1.0937 -1.9457  0.5699
   17DOPE  C213 2128   3.301   6.083  15.411  0.1920  0.1983  0.4555
   17DOPE  H13R 2129   3.313   5.972  15.402 -1.3741 -0.0730  1.2598
   17DOPE  H13S 2130   3.391   6.143  15.389 -0.2320 -0.3409 -3.5546
   17DOPE  C214 2131   3.187   6.129  15.314 -0.0620  0.0076 -0.3727
   17DOPE  H14R 2132   3.238   6.139  15.216  2.6622 -3.1976  0.5641
   17DOPE  H14S 2133   3.161   6.228  15.359  1.2058 -0.2517  1.0068
   17DOPE  C215 2134   3.063   6.042  15.309  0.1259 -0.0176 -0.2102
   17DOPE  H15R 2135   3.023   6.018  15.409  0.1760  1.9937  0.3366
   17DOPE  H15S 2136   3.089   5.940  15.272  0.8597  0.2763 -0.5243
   17DOPE  C216 2137   2.957   6.096  15.215 -1.0024  0.1149 -0.1853
   17DOPE  H16R 2138   2.995   6.124  15.115 -1.7772  0.6600 -0.3402
   17DOPE  H16S 2139   2.912   6.187  15.259 -1.1941  0.1833 -0.5134
   17DOPE  C217 2140   2.847   5.986  15.197 -0.6928 -0.2840 -0.2729
   17DOPE  H17R 2141   2.817   5.921  15.282 -1.1074 -0.6823 -0.7181
   17DOPE  H17S 2142   2.885   5.919  15.118 -1.2959 -0.2172 -0.6295
   17DOPE  C218 2143   2.713   6.050  15.157 -0.3235 -0.4574 -0.4829
   17DOPE  H18R 2144   2.675   6.109  15.243  3.3935  0.7436  0.5436
   17DOPE  H18S 2145   2.650   5.959  15.148 -0.2667 -0.4415 -1.0820
   17DOPE  H18T 2146   2.717   6.099  15.058  0.5985 -1.4454 -0.9635
   17DOPE   C33 2147   4.272   5.832  16.447  0.5916 -0.0138  0.0854
   17DOPE   H3X 2148   4.296   5.937  16.420 -1.2665  0.4633  0.1936
   17DOPE   H3Y 2149   4.162   5.822  16.456  0.6654 -2.5761 -0.8913
   17DOPE   C34 2150   4.322   5.733  16.338  0.1375 -0.1629 -0.5324
   17DOPE   H4X 2151   4.431   5.717  16.358  0.0143 -2.1899 -1.2427
   17DOPE   H4Y 2152   4.281   5.630  16.343  1.0281 -0.4677  1.4943
   17DOPE   C35 2153   4.283   5.772  16.193 -0.8520  0.4415 -0.0543
   17DOPE   H5X 2154   4.317   5.692  16.124 -2.4432  0.5664 -1.0455
   17DOPE   H5Y 2155   4.350   5.859  16.177  0.3228 -0.2089  1.1511
   17DOPE   C36 2156   4.133   5.810  16.193  0.3071  0.2108 -0.1802
   17DOPE   H6X 2157   4.107   5.899  16.254 -0.4019  0.3063 -0.6133
   17DOPE   H6Y 2158   4.081   5.726  16.245 -2.0781  0.9650 -1.2387
   17DOPE   C37 2159   4.078   5.810  16.053 -1.0421  0.1572 -0.0733
   17DOPE   H7X 2160   4.091   5.705  16.018  1.6930  0.4273 -0.1261
   17DOPE   H7Y 2161   3.970   5.833  16.063 -1.1271 -0.5989  0.9610
   17DOPE   C38 2162   4.152   5.914  15.960  0.7058  0.2252  0.1658
   17DOPE   H8X 2163   4.235   5.850  15.922  1.3050  0.5336  0.9398
   17DOPE   H8Y 2164   4.200   5.999  16.013  0.7495  0.6719 -0.5840
   17DOPE   C39 2165   4.050   5.961  15.857  0.7720 -0.6696 -0.2808
   17DOPE   H9X 2166   4.000   6.054  15.888 -0.5712 -1.7951  1.0945
   17DOPE  C310 2167   4.043   5.928  15.728  0.0283  0.3833  0.0224
   17DOPE  H10X 2168   3.976   5.986  15.663  0.2267 -0.5752 -1.0661
   17DOPE  C311 2169   4.135   5.837  15.662  0.2741  0.2671  0.2941
   17DOPE  H11X 2170   4.240   5.849  15.697  0.2138  3.3421 -0.2489
   17DOPE  H11Y 2171   4.113   5.729  15.675  1.1821  0.2341  1.7518
   17DOPE  C312 2172   4.153   5.883  15.518 -0.0569  0.3940  0.1263
   17DOPE  H12X 2173   4.238   5.832  15.469  1.9680  0.7430  2.9963
   17DOPE  H12Y 2174   4.162   5.993  15.505  2.5563  0.0116 -2.0755
   17DOPE  C313 2175   4.031   5.839  15.430 -0.1218  0.0698 -0.2118
   17DOPE  H13X 2176   4.044   5.728  15.428  2.5923  0.2719  1.1972
   17DOPE  H13Y 2177   3.930   5.874  15.460  0.9557  2.5011  0.8188
   17DOPE  C314 2178   4.057   5.882  15.283  0.3614 -0.1194 -0.4101
   17DOPE  H14X 2179   4.135   5.812  15.246  2.4981  1.3803  1.0653
   17DOPE  H14Y 2180   4.083   5.989  15.269 -2.1376  0.5294 -0.5622
   17DOPE  C315 2181   3.935   5.869  15.186  0.4616  0.2056 -0.3912
   17DOPE  H15X 2182   3.857   5.946  15.205 -0.8240 -1.3542  1.0217
   17DOPE  H15Y 2183   3.883   5.773  15.205  0.0080 -0.2537 -3.4910
   17DOPE  C316 2184   3.980   5.866  15.042  0.1368  0.1859 -0.2236
   17DOPE  H16X 2185   4.036   5.776  15.009  0.4716  0.2503  0.1612
   17DOPE  H16Y 2186   4.056   5.946  15.025  0.5833  0.0007  0.8186
   17DOPE  C317 2187   3.861   5.891  14.947 -0.7215 -0.9171  0.4708
   17DOPE  H17X 2188   3.774   5.828  14.975 -1.8889  1.0143  1.3419
   17DOPE  H17Y 2189   3.816   5.990  14.966 -1.0749 -0.4331 -2.4348
   17DOPE  C318 2190   3.904   5.875  14.797  0.2424 -0.2990 -0.6608
   17DOPE  H18X 2191   3.819   5.872  14.725 -0.7606  1.1043  0.4079
   17DOPE  H18Y 2192   3.976   5.953  14.765  0.8730 -0.2995  0.6855
   17DOPE  H18Z 2193   3.965   5.783  14.789  1.5569  0.4824  0.0933
   18DOPE     N 2194   0.723   3.108  17.127 -0.5353 -0.4579 -0.6641
   18DOPE   HN1 2195   0.668   3.032  17.171 -0.8141  0.8956  1.4214
   18DOPE   HN2 2196   0.760   3.070  17.037 -1.8031 -3.4178 -0.0581
   18DOPE   HN3 2197   0.806   3.138  17.182  0.1709 -0.8901 -1.4576
   18DOPE   C12 2198   0.630   3.220  17.109  0.4471 -0.3269  0.1960
   18DOPE  H12A 2199   0.691   3.302  17.067 -0.6963  0.8918  0.8507
   18DOPE  H12B 2200   0.582   3.244  17.206  0.0833  1.4320 -0.3790
   18DOPE   C11 2201   0.523   3.188  17.010 -0.2577  0.2998 -0.3356
   18DOPE  H11A 2202   0.585   3.178  16.918  0.7035  0.7989  0.2353
   18DOPE  H11B 2203   0.449   3.268  16.989 -1.0980 -0.7509 -1.5364
   18DOPE     P 2204   0.404   2.959  16.949  0.0851 -0.0594 -0.2878
   18DOPE   O13 2205   0.269   3.005  16.915  0.5333 -0.7326 -0.5792
   18DOPE   O14 2206   0.417   2.829  17.020  0.0917 -0.4192 -0.1795
   18DOPE   O11 2207   0.506   2.963  16.833 -0.4350 -0.4256 -0.0590
   18DOPE   O12 2208   0.458   3.068  17.048  0.1083 -0.7552 -0.3930
   18DOPE    C1 2209   0.574   2.845  16.797  0.2185 -0.1665  1.0113
   18DOPE    HA 2210   0.508   2.756  16.802 -0.3773  0.1028 -1.1745
   18DOPE    HB 2211   0.668   2.835  16.855  1.1943 -1.5158 -0.7074
   18DOPE    C2 2212   0.619   2.836  16.649 -0.1089 -0.0439  0.0958
   18DOPE    HS 2213   0.697   2.914  16.634  0.1227 -0.3741 -0.4704
   18DOPE   O21 2214   0.502   2.868  16.571 -0.4310  0.2793  0.1566
   18DOPE   C21 2215   0.487   3.001  16.539  0.4483 -0.0277 -0.0647
   18DOPE   O22 2216   0.551   3.094  16.588  0.0077  0.1721 -0.2940
   18DOPE   C22 2217   0.382   3.009  16.425 -0.1116  0.3693  0.5631
   18DOPE   H2R 2218   0.282   3.047  16.453 -1.2405 -0.0455 -2.5339
   18DOPE   H2S 2219   0.377   2.906  16.384  0.0709  0.4035  0.4518
   18DOPE    C3 2220   0.673   2.696  16.603 -0.3075  0.2882 -0.1201
   18DOPE    HX 2221   0.598   2.614  16.596 -1.6677  1.5356 -0.5566
   18DOPE    HY 2222   0.743   2.664  16.683  0.1308 -0.7917 -0.9050
   18DOPE   O31 2223   0.742   2.717  16.476  0.7783 -1.0084  0.0071
   18DOPE   C31 2224   0.868   2.684  16.463 -0.0159 -0.2979  0.8343
   18DOPE   O32 2225   0.940   2.642  16.555  0.4188  0.2140 -0.8605
   18DOPE   C32 2226   0.916   2.711  16.321  0.3450 -0.5582  1.2766
   18DOPE   H2X 2227   1.027   2.720  16.315  0.3708 -1.4395 -0.1763
   18DOPE   H2Y 2228   0.884   2.628  16.254 -1.1329  1.7059 -0.9810
   18DOPE   C23 2229   0.430   3.104  16.313 -0.6496 -0.1499  0.5758
   18DOPE   H3R 2230   0.535   3.072  16.297 -1.0720 -0.2289 -2.6565
   18DOPE   H3S 2231   0.431   3.213  16.336 -0.8195 -0.2168  0.9064
   18DOPE   C24 2232   0.336   3.101  16.194 -0.1586 -0.2549  0.1186
   18DOPE   H4R 2233   0.234   3.132  16.227 -1.0155 -2.3768 -0.3765
   18DOPE   H4S 2234   0.321   3.005  16.141  0.7804 -0.3307 -0.0162
   18DOPE   C25 2235   0.386   3.200  16.089 -0.4856 -0.4671 -0.1360
   18DOPE   H5R 2236   0.495   3.179  16.084 -0.4570 -0.7376  1.2470
   18DOPE   H5S 2237   0.370   3.307  16.114 -0.0496 -0.5016  0.3076
   18DOPE   C26 2238   0.319   3.184  15.953  0.0307 -0.0692  0.6328
   18DOPE   H6R 2239   0.212   3.207  15.974 -0.6882 -1.6698 -0.9386
   18DOPE   H6S 2240   0.326   3.078  15.921  0.3169 -0.0640  0.6769
   18DOPE   C27 2241   0.366   3.283  15.844  0.1439 -0.1784 -0.4038
   18DOPE   H7R 2242   0.475   3.290  15.823  0.2426 -0.1025  0.1200
   18DOPE   H7S 2243   0.339   3.383  15.882  1.6179 -0.4476  1.4812
   18DOPE   C28 2244   0.288   3.270  15.710 -0.2278 -0.4497 -0.1468
   18DOPE   H8R 2245   0.264   3.367  15.662 -0.8499  0.0293  1.0579
   18DOPE   H8S 2246   0.190   3.236  15.750  1.6384 -1.3738  4.2062
   18DOPE   C29 2247   0.349   3.168  15.618  0.0561 -0.3531  0.2835
   18DOPE   H9R 2248   0.315   3.065  15.637  0.6162 -0.7352 -0.7310
   18DOPE  C210 2249   0.433   3.190  15.517 -0.5402  0.9767 -0.4220
   18DOPE  H10R 2250   0.457   3.101  15.457 -0.7975  2.5958 -3.1140
   18DOPE  C211 2251   0.489   3.326  15.481  0.2920 -0.4766  0.0875
   18DOPE  H11R 2252   0.487   3.384  15.575  0.5120 -2.4285  1.3640
   18DOPE  H11S 2253   0.414   3.371  15.411  0.1257 -0.9489 -0.0459
   18DOPE  C212 2254   0.628   3.338  15.416  0.0760  0.7269  0.1238
   18DOPE  H12R 2255   0.658   3.444  15.405  0.1836  0.9763  2.3316
   18DOPE  H12S 2256   0.644   3.284  15.320  0.9375  0.5807  0.3396
   18DOPE  C213 2257   0.740   3.266  15.503 -0.5693  0.2571  0.1234
   18DOPE  H13R 2258   0.834   3.279  15.445 -0.3913  1.8562  0.6956
   18DOPE  H13S 2259   0.713   3.159  15.504 -0.8751  0.3257  1.3316
   18DOPE  C214 2260   0.764   3.327  15.641  0.3301 -0.0946 -0.2572
   18DOPE  H14R 2261   0.668   3.326  15.696  0.5842 -0.0512  0.1926
   18DOPE  H14S 2262   0.801   3.432  15.644  0.1728 -0.0173 -0.8656
   18DOPE  C215 2263   0.859   3.244  15.731  0.5118  0.0207 -0.2449
   18DOPE  H15R 2264   0.860   3.299  15.828 -1.8063 -0.9576  0.3983
   18DOPE  H15S 2265   0.961   3.249  15.688  0.1455 -0.5150 -1.2020
   18DOPE  C216 2266   0.822   3.100  15.769  0.2165  0.1401 -0.0607
   18DOPE  H16R 2267   0.903   3.061  15.835 -1.6608 -0.7419  1.8144
   18DOPE  H16S 2268   0.814   3.045  15.672 -0.1829 -1.9653  1.1072
   18DOPE  C217 2269   0.691   3.078  15.835 -0.0166  0.6779 -0.2457
   18DOPE  H17R 2270   0.600   3.107  15.778 -3.2345 -2.0146  2.9231
   18DOPE  H17S 2271   0.698   3.152  15.917  1.4367 -1.3259  1.5492
   18DOPE  C218 2272   0.669   2.935  15.893 -1.1815 -0.1905  0.0271
   18DOPE  H18R 2273   0.747   2.928  15.972 -0.8540 -1.7452 -0.3947
   18DOPE  H18S 2274   0.681   2.853  15.818  0.2465 -0.2659  0.3139
   18DOPE  H18T 2275   0.569   2.926  15.940 -2.1155  1.1437 -1.5990
   18DOPE   C33 2276   0.858   2.846  16.258  0.2113 -0.3811 -0.4024
   18DOPE   H3X 2277   0.750   2.824  16.276 -0.0184 -0.2239 -1.4929
   18DOPE   H3Y 2278   0.881   2.845  16.150 -1.6773  1.3557 -0.8735
   18DOPE   C34 2279   0.893   2.977  16.315 -0.5125 -0.5182 -0.6102
   18DOPE   H4X 2280   0.851   2.988  16.417 -0.0393  2.1465 -0.6091
   18DOPE   H4Y 2281   1.002   3.000  16.312 -0.4458 -0.6505  0.3423
   18DOPE   C35 2282   0.839   3.095  16.226 -0.2386  0.3348 -0.1791
   18DOPE   H5X 2283   0.735   3.077  16.193  0.7733 -1.7769 -2.5428
   18DOPE   H5Y 2284   0.907   3.100  16.139  1.0433  0.0758  0.7684
   18DOPE   C36 2285   0.855   3.228  16.298  0.4554  0.2942  0.1422
   18DOPE   H6X 2286   0.964   3.240  16.315  0.7841 -1.2528 -0.6506
   18DOPE   H6Y 2287   0.820   3.229  16.403 -1.8881 -1.2520 -0.5502
   18DOPE   C37 2288   0.790   3.348  16.225  0.0699  0.1508 -0.7177
   18DOPE   H7X 2289   0.838   3.365  16.126  0.4566 -1.4773 -0.8393
   18DOPE   H7Y 2290   0.687   3.319  16.196  0.2459 -1.1579 -0.0995
   18DOPE   C38 2291   0.795   3.478  16.305  0.3149  0.6270  0.0278
   18DOPE   H8X 2292   0.772   3.566  16.242  0.2769  0.7538  0.2174
   18DOPE   H8Y 2293   0.895   3.494  16.352 -0.9139  1.6018  2.5271
   18DOPE   C39 2294   0.694   3.478  16.411 -0.2052 -0.1381  0.1042
   18DOPE   H9X 2295   0.709   3.398  16.485 -1.1960 -0.4415 -0.0035
   18DOPE  C310 2296   0.611   3.576  16.446 -0.4489 -0.3444  0.7234
   18DOPE  H10X 2297   0.531   3.554  16.518 -0.9948 -1.0168 -0.0808
   18DOPE  C311 2298   0.594   3.717  16.385 -0.1382 -0.0578 -0.7854
   18DOPE  H11X 2299   0.581   3.782  16.474 -0.5978 -2.2028  0.8017
   18DOPE  H11Y 2300   0.678   3.760  16.326 -1.9245  1.3113 -2.5097
   18DOPE  C312 2301   0.469   3.749  16.302  0.1831  0.4248  0.4689
   18DOPE  H12X 2302   0.454   3.859  16.295  1.2409  0.5048 -0.8988
   18DOPE  H12Y 2303   0.381   3.701  16.351 -0.7834 -0.7519 -2.2447
   18DOPE  C313 2304   0.477   3.675  16.164  0.3605 -0.3548  0.2689
   18DOPE  H13X 2305   0.577   3.703  16.123  0.3371 -0.2543  0.2808
   18DOPE  H13Y 2306   0.461   3.566  16.176  1.3340 -0.4553  0.8217
   18DOPE  C314 2307   0.357   3.734  16.074 -0.2519  0.2222 -0.6722
   18DOPE  H14X 2308   0.372   3.844  16.064  0.3732  0.1536 -0.5587
   18DOPE  H14Y 2309   0.262   3.703  16.123  0.7067 -2.7156 -0.4541
   18DOPE  C315 2310   0.353   3.663  15.938  0.2658 -0.2689 -1.3297
   18DOPE  H15X 2311   0.245   3.656  15.912 -0.3875  0.3119  1.0291
   18DOPE  H15Y 2312   0.401   3.563  15.945  0.2252 -0.2002  0.1738
   18DOPE  C316 2313   0.433   3.743  15.826  0.4341 -0.1617 -0.5178
   18DOPE  H16X 2314   0.533   3.763  15.869  0.0829 -1.5951  1.0805
   18DOPE  H16Y 2315   0.382   3.837  15.794  3.3728  1.7409 -0.0549
   18DOPE  C317 2316   0.450   3.662  15.693 -0.3051  0.2120  0.0722
   18DOPE  H17X 2317   0.471   3.563  15.739 -0.5423  0.2781  0.3255
   18DOPE  H17Y 2318   0.362   3.661  15.625  0.2890 -0.0216 -0.7057
   18DOPE  C318 2319   0.575   3.707  15.607  0.4659 -0.0117 -0.0055
   18DOPE  H18X 2320   0.669   3.704  15.667  0.6851 -0.4336 -0.3604
   18DOPE  H18Y 2321   0.584   3.642  15.518 -0.4503 -0.6659  0.3658
   18DOPE  H18Z 2322   0.559   3.810  15.569 -1.0456 -0.7587 -1.5005
   19DOPE     N 2323   1.764   3.187  16.877 -0.3359 -0.0267  0.0385
   19DOPE   HN1 2324   1.723   3.219  16.967  0.4402  0.6330  0.1708
   19DOPE   HN2 2325   1.745   3.085  16.868 -0.5089 -0.5571  4.1780
   19DOPE   HN3 2326   1.866   3.200  16.895  0.0426  2.2498 -3.0769
   19DOPE   C12 2327   1.712   3.268  16.765  0.4367  0.3291 -0.0141
   19DOPE  H12A 2328   1.602   3.255  16.766  0.5181 -0.4878 -0.6802
   19DOPE  H12B 2329   1.762   3.211  16.683 -1.8901  0.8328 -1.9123
   19DOPE   C11 2330   1.749   3.410  16.779 -0.2138  0.5398  0.0001
   19DOPE  H11A 2331   1.722   3.468  16.688 -1.8149 -1.5667 -0.9357
   19DOPE  H11B 2332   1.859   3.403  16.765 -0.0822  2.2415 -0.0262
   19DOPE     P 2333   1.586   3.566  16.911 -0.0759  0.1198 -0.4038
   19DOPE   O13 2334   1.588   3.645  17.039 -0.2251  0.5647 -0.2725
   19DOPE   O14 2335   1.462   3.488  16.876 -0.1342 -0.0855 -0.0096
   19DOPE   O11 2336   1.609   3.677  16.798 -0.8573  0.3349  0.0312
   19DOPE   O12 2337   1.705   3.470  16.903  0.1293 -0.6608  0.1018
   19DOPE    C1 2338   1.524   3.785  16.774 -0.2867 -0.2219  0.1883
   19DOPE    HA 2339   1.583   3.877  16.755 -1.2047  0.3290 -0.0636
   19DOPE    HB 2340   1.453   3.800  16.859  0.0966 -0.2490  0.5174
   19DOPE    C2 2341   1.440   3.771  16.646  0.4985  0.2011  0.9399
   19DOPE    HS 2342   1.380   3.677  16.646 -2.3828  1.8471 -2.1164
   19DOPE   O21 2343   1.532   3.761  16.543  0.3424  0.5955  0.7962
   19DOPE   C21 2344   1.564   3.639  16.498 -0.7700 -0.3105  0.5764
   19DOPE   O22 2345   1.527   3.527  16.529  0.0917  0.0536 -0.4955
   19DOPE   C22 2346   1.677   3.655  16.389 -1.2432  0.1569  0.1928
   19DOPE   H2R 2347   1.734   3.747  16.416  0.0553 -0.5670  0.0182
   19DOPE   H2S 2348   1.622   3.685  16.298 -2.2486  2.0393  1.3421
   19DOPE    C3 2349   1.349   3.894  16.615 -0.6098 -0.0532 -0.9271
   19DOPE    HX 2350   1.421   3.968  16.575 -0.1837 -1.0406 -2.0513
   19DOPE    HY 2351   1.314   3.929  16.715 -0.0259 -0.1455 -0.6841
   19DOPE   O31 2352   1.247   3.871  16.515  0.4506  0.4877  0.0439
   19DOPE   C31 2353   1.130   3.893  16.554 -0.4571  0.2927 -0.2351
   19DOPE   O32 2354   1.089   3.911  16.668 -0.4275 -0.0594  0.1907
   19DOPE   C32 2355   1.034   3.879  16.432 -0.3185  0.7850 -0.2320
   19DOPE   H2X 2356   1.078   3.949  16.358 -1.3660  1.1073 -0.5688
   19DOPE   H2Y 2357   1.038   3.773  16.400 -0.0413 -0.0019  2.1879
   19DOPE   C23 2358   1.769   3.533  16.373 -0.8347 -0.1579 -0.3538
   19DOPE   H3R 2359   1.723   3.436  16.345 -2.0578 -0.0150  1.0886
   19DOPE   H3S 2360   1.812   3.513  16.473  1.1967 -1.2250 -1.3840
   19DOPE   C24 2361   1.886   3.564  16.270  0.6645  0.8650 -1.3944
   19DOPE   H4R 2362   1.971   3.501  16.302 -1.5735 -0.8419  1.6635
   19DOPE   H4S 2363   1.925   3.668  16.265  1.5903  0.5342 -1.3145
   19DOPE   C25 2364   1.840   3.531  16.125  0.1654 -0.2186  0.5273
   19DOPE   H5R 2365   1.753   3.595  16.097  2.2518  1.3804 -3.0562
   19DOPE   H5S 2366   1.802   3.427  16.121 -0.0443 -0.1351 -3.1187
   19DOPE   C26 2367   1.944   3.564  16.027  0.2645  0.2989  0.8910
   19DOPE   H6R 2368   2.047   3.545  16.063  0.7260  1.9873  0.5533
   19DOPE   H6S 2369   1.950   3.674  16.012  1.0204  0.1833  0.2925
   19DOPE   C27 2370   1.904   3.508  15.889  0.0137  0.2610  0.2426
   19DOPE   H7R 2371   1.794   3.527  15.882  0.0979  0.2368 -1.3676
   19DOPE   H7S 2372   1.922   3.398  15.891  0.5607  0.3575  1.0049
   19DOPE   C28 2373   1.979   3.583  15.775  0.4960  0.0484  0.1390
   19DOPE   H8R 2374   1.945   3.689  15.783 -1.9045 -0.6722  0.0021
   19DOPE   H8S 2375   1.940   3.543  15.680 -1.4065  0.7261  0.5909
   19DOPE   C29 2376   2.131   3.576  15.793 -0.2462 -0.2196 -0.2327
   19DOPE   H9R 2377   2.175   3.666  15.840  0.5863 -0.1710 -1.0800
   19DOPE  C210 2378   2.214   3.480  15.747 -0.6583 -0.0818  0.0017
   19DOPE  H10R 2379   2.323   3.497  15.750 -0.9153  2.8126 -2.5140
   19DOPE  C211 2380   2.149   3.367  15.673  0.3357 -0.7996  0.0530
   19DOPE  H11R 2381   2.043   3.346  15.698  0.5237 -1.4069  0.3482
   19DOPE  H11S 2382   2.214   3.282  15.700  1.3086  0.2114  0.9595
   19DOPE  C212 2383   2.151   3.387  15.521  0.2528 -0.1828 -0.4499
   19DOPE  H12R 2384   2.252   3.416  15.487  0.7785 -1.4367 -0.0156
   19DOPE  H12S 2385   2.070   3.460  15.499  1.6625  1.0512 -1.7239
   19DOPE  C213 2386   2.127   3.254  15.446  0.2535 -0.1714  0.2726
   19DOPE  H13R 2387   2.028   3.211  15.471  0.0310 -0.5981 -1.2439
   19DOPE  H13S 2388   2.198   3.170  15.466 -1.2636 -1.2067  1.5410
   19DOPE  C214 2389   2.120   3.273  15.294 -0.1046 -0.3472 -0.2244
   19DOPE  H14R 2390   2.223   3.294  15.259  0.0281  0.6559  0.7269
   19DOPE  H14S 2391   2.058   3.363  15.279  1.4169  0.7372 -0.2137
   19DOPE  C215 2392   2.068   3.161  15.211 -0.0740 -0.1295 -0.2537
   19DOPE  H15R 2393   1.972   3.127  15.255 -0.3337  1.9865  0.9546
   19DOPE  H15S 2394   2.141   3.077  15.219  1.0418  0.7669 -0.6881
   19DOPE  C216 2395   2.052   3.202  15.062  0.3461 -0.6438 -0.0124
   19DOPE  H16R 2396   1.975   3.282  15.069 -0.7769 -1.4880 -1.9751
   19DOPE  H16S 2397   2.015   3.123  14.994  0.7143 -1.0839  0.2886
   19DOPE  C217 2398   2.187   3.245  15.005 -0.2560 -0.5159  0.0651
   19DOPE  H17R 2399   2.239   3.148  14.992  2.2906  0.4079  2.4232
   19DOPE  H17S 2400   2.241   3.318  15.069 -1.3298  0.8881 -0.5732
   19DOPE  C218 2401   2.164   3.328  14.877 -0.6957 -0.3145 -0.2753
   19DOPE  H18R 2402   2.249   3.340  14.806  0.5333  1.3085  1.3659
   19DOPE  H18S 2403   2.139   3.432  14.906  4.1901  0.7159  1.2285
   19DOPE  H18T 2404   2.087   3.274  14.819  1.1991 -1.2538 -2.0561
   19DOPE   C33 2405   0.896   3.939  16.456 -0.6488 -0.4952 -0.3013
   19DOPE   H3X 2406   0.848   3.915  16.553 -3.8674  0.6439 -1.4742
   19DOPE   H3Y 2407   0.827   3.894  16.381 -1.0603 -0.8586  0.2928
   19DOPE   C34 2408   0.894   4.099  16.439 -0.1797  0.6723  0.6066
   19DOPE   H4X 2409   0.950   4.142  16.525  1.6966  0.4214 -0.4387
   19DOPE   H4Y 2410   0.950   4.127  16.347  1.3305  0.8184  1.5360
   19DOPE   C35 2411   0.744   4.156  16.437 -0.2152  0.5900 -0.1549
   19DOPE   H5X 2412   0.705   4.159  16.541 -3.0622  0.4289 -1.1257
   19DOPE   H5Y 2413   0.679   4.091  16.375 -0.9013  1.0013  0.1195
   19DOPE   C36 2414   0.738   4.301  16.384  1.0367 -0.3496  0.6981
   19DOPE   H6X 2415   0.647   4.356  16.416  0.6325 -1.1749  0.9714
   19DOPE   H6Y 2416   0.739   4.310  16.273  2.2238 -0.1998  0.7071
   19DOPE   C37 2417   0.852   4.391  16.436 -0.8363 -0.0048 -0.1133
   19DOPE   H7X 2418   0.856   4.380  16.546  1.7880 -0.6254 -0.2142
   19DOPE   H7Y 2419   0.945   4.339  16.404 -2.1816 -1.2358 -2.2634
   19DOPE   C38 2420   0.842   4.535  16.383 -1.1629  0.2137 -0.2131
   19DOPE   H8X 2421   0.894   4.593  16.462 -0.2148 -0.5648 -0.2437
   19DOPE   H8Y 2422   0.735   4.565  16.375 -0.8158  1.2060 -1.3285
   19DOPE   C39 2423   0.911   4.572  16.254 -0.0933  0.7564  0.2218
   19DOPE   H9X 2424   1.020   4.566  16.243  0.4872  0.2557  4.5349
   19DOPE  C310 2425   0.846   4.612  16.145 -0.0315  0.2401 -0.5179
   19DOPE  H10X 2426   0.908   4.652  16.064  2.3419  0.3514  1.2220
   19DOPE  C311 2427   0.698   4.620  16.121 -0.3164  0.2191 -0.0337
   19DOPE  H11X 2428   0.636   4.543  16.173 -1.0215 -1.2404 -2.8190
   19DOPE  H11Y 2429   0.656   4.717  16.155 -1.4267 -0.3505  0.2836
   19DOPE  C312 2430   0.654   4.604  15.972 -0.3949 -0.4706  0.0466
   19DOPE  H12X 2431   0.544   4.591  15.966 -0.4316  0.2568 -1.3108
   19DOPE  H12Y 2432   0.708   4.512  15.938  0.5152 -0.1492  0.5866
   19DOPE  C313 2433   0.698   4.721  15.883 -0.0690  0.3423 -0.6878
   19DOPE  H13X 2434   0.633   4.805  15.916 -1.6566 -0.8871 -0.5312
   19DOPE  H13Y 2435   0.806   4.736  15.901 -0.1004 -0.2971  0.0668
   19DOPE  C314 2436   0.691   4.685  15.735 -0.1148 -0.6174 -0.0420
   19DOPE  H14X 2437   0.692   4.781  15.679  0.1572 -0.2266  0.6188
   19DOPE  H14Y 2438   0.593   4.633  15.727 -0.8630  0.3141  2.1955
   19DOPE  C315 2439   0.802   4.592  15.684  0.1243  0.7800 -0.1310
   19DOPE  H15X 2440   0.792   4.488  15.723 -0.5107  0.1340 -1.8986
   19DOPE  H15Y 2441   0.897   4.629  15.727  0.7259 -1.3075  0.4620
   19DOPE  C316 2442   0.805   4.583  15.535 -0.2089 -0.5981 -0.4406
   19DOPE  H16X 2443   0.824   4.685  15.496  0.9607  0.3329  2.2688
   19DOPE  H16Y 2444   0.708   4.551  15.493 -0.2381  0.0899 -0.9020
   19DOPE  C317 2445   0.922   4.496  15.495 -0.3143  0.4033 -0.5497
   19DOPE  H17X 2446   1.021   4.530  15.532 -0.5101  0.3286  0.0400
   19DOPE  H17Y 2447   0.927   4.397  15.546  0.7005  1.0876  0.7341
   19DOPE  C318 2448   0.937   4.466  15.345 -0.5774  0.2937  0.2955
   19DOPE  H18X 2449   0.846   4.423  15.298 -1.2689 -0.2934  2.0918
   19DOPE  H18Y 2450   0.960   4.565  15.300  2.1424 -0.1946  0.4322
   19DOPE  H18Z 2451   1.016   4.391  15.324  0.6835  1.5943  0.1946
   20DOPE     N 2452   7.657   7.126  16.923 -0.2051 -0.1509  0.7562
   20DOPE   HN1 2453   7.703   7.214  16.892  0.6992 -1.7832 -3.2065
   20DOPE   HN2 2454   7.570   7.161  16.968  0.1196  1.3494  0.2700
   20DOPE   HN3 2455   7.720   7.086  16.995 -0.4307  0.3634  1.2429
   20DOPE   C12 2456   7.631   7.035  16.800 -0.4239 -0.3710 -0.2156
   20DOPE  H12A 2457   7.594   7.090  16.711 -1.2424 -1.7415 -0.7633
   20DOPE  H12B 2458   7.559   6.958  16.834 -1.0376  0.2956  0.0254
   20DOPE   C11 2459   7.762   6.966  16.757 -0.1892  0.0133 -0.6220
   20DOPE  H11A 2460   7.830   7.034  16.701 -2.0407  0.2977 -2.6675
   20DOPE  H11B 2461   7.727   6.886  16.688  0.6557 -1.8394  0.9838
   20DOPE     P 2462   7.800   6.741  16.902  0.4972  0.0174 -0.0446
   20DOPE   O13 2463   7.662   6.720  16.953  0.6610 -0.5661  0.3804
   20DOPE   O14 2464   7.909   6.695  16.991  0.6661 -0.0398 -0.0282
   20DOPE   O11 2465   7.813   6.664  16.762 -0.0750  0.3587  0.1048
   20DOPE   O12 2466   7.832   6.898  16.861 -0.7786 -0.3687 -0.0897
   20DOPE    C1 2467   7.942   6.667  16.690 -0.0127  0.0348  0.6317
   20DOPE    HA 2468   7.991   6.567  16.699 -2.1242 -1.1216  0.0650
   20DOPE    HB 2469   8.010   6.746  16.727 -1.0819  2.9937 -3.1448
   20DOPE    C2 2470   7.916   6.699  16.538 -0.5893  0.6176 -0.2689
   20DOPE    HS 2471   7.878   6.803  16.527  2.0618  1.4699 -3.1511
   20DOPE   O21 2472   7.842   6.595  16.477  0.2941  0.2224  0.7215
   20DOPE   C21 2473   7.713   6.616  16.477  0.3008  0.7171 -0.0966
   20DOPE   O22 2474   7.656   6.711  16.522 -0.3420  0.0211  0.0457
   20DOPE   C22 2475   7.637   6.497  16.415 -0.1753  0.1863 -0.1583
   20DOPE   H2R 2476   7.540   6.534  16.377  1.3546  0.1794 -4.5527
   20DOPE   H2S 2477   7.615   6.424  16.496  1.3715 -0.0990  0.0388
   20DOPE    C3 2478   8.056   6.696  16.469  0.8862 -0.7031 -0.8427
   20DOPE    HX 2479   8.091   6.591  16.476  0.6288 -0.6865  1.1310
   20DOPE    HY 2480   8.120   6.765  16.528 -0.6202 -1.4481  1.8099
   20DOPE   O31 2481   8.042   6.723  16.327  0.3337  0.0612  0.2163
   20DOPE   C31 2482   8.046   6.855  16.304  0.5498  0.2265  0.3039
   20DOPE   O32 2483   8.054   6.938  16.392 -0.4488 -0.2256  0.0752
   20DOPE   C32 2484   8.039   6.889  16.157 -0.4806  0.2441 -0.0786
   20DOPE   H2X 2485   8.144   6.873  16.123  0.3122  0.4325  2.1104
   20DOPE   H2Y 2486   7.974   6.817  16.103  0.5689  0.0232 -1.0861
   20DOPE   C23 2487   7.703   6.429  16.295  0.1859 -0.4821  0.6156
   20DOPE   H3R 2488   7.792   6.369  16.325  0.0553 -0.5180  0.9356
   20DOPE   H3S 2489   7.736   6.505  16.222  1.7280  0.2198  1.9760
   20DOPE   C24 2490   7.607   6.334  16.218  0.7846 -0.0621  0.5235
   20DOPE   H4R 2491   7.523   6.386  16.169  0.6696 -0.6844  0.0495
   20DOPE   H4S 2492   7.553   6.266  16.288 -2.3161  1.9177  0.2168
   20DOPE   C25 2493   7.684   6.242  16.116 -0.8020 -0.5317 -0.5638
   20DOPE   H5R 2494   7.608   6.187  16.057 -1.0953  1.9624 -2.7315
   20DOPE   H5S 2495   7.744   6.165  16.170 -0.5363 -0.3107 -0.5387
   20DOPE   C26 2496   7.777   6.308  16.004  0.0531  0.3184 -0.3513
   20DOPE   H6R 2497   7.835   6.393  16.046  1.4143 -1.1847  0.9335
   20DOPE   H6S 2498   7.721   6.352  15.919  1.1078  2.1519 -0.1658
   20DOPE   C27 2499   7.867   6.203  15.945 -0.2387 -0.1422  0.0586
   20DOPE   H7R 2500   7.917   6.151  16.030  0.1019  1.8774  1.1658
   20DOPE   H7S 2501   7.954   6.257  15.902  1.3461 -1.1136  1.8865
   20DOPE   C28 2502   7.802   6.116  15.834  0.6187 -0.1443 -0.4952
   20DOPE   H8R 2503   7.752   6.181  15.759 -2.0060 -1.5189 -0.0749
   20DOPE   H8S 2504   7.716   6.060  15.877 -0.7174  3.3789  1.8252
   20DOPE   C29 2505   7.909   6.030  15.775  0.3173 -0.0507 -0.3333
   20DOPE   H9R 2506   7.915   5.933  15.827  1.3517  0.9793  1.5500
   20DOPE  C210 2507   7.992   6.051  15.675 -0.8979  0.5364  0.5567
   20DOPE  H10R 2508   8.062   5.974  15.639  0.1143  1.9655 -0.6721
   20DOPE  C211 2509   7.989   6.178  15.593  0.4210  1.0749  0.2526
   20DOPE  H11R 2510   8.095   6.198  15.564  0.1718  2.6111  0.3171
   20DOPE  H11S 2511   7.957   6.264  15.655  0.8621  1.3179  0.1515
   20DOPE  C212 2512   7.901   6.156  15.466  0.1717  0.3188  0.4475
   20DOPE  H12R 2513   7.900   6.249  15.406 -0.5113 -0.4359 -0.7388
   20DOPE  H12S 2514   7.798   6.128  15.498  0.5812 -0.8391  0.7957
   20DOPE  C213 2515   7.956   6.039  15.374  0.5208  0.0827  0.6648
   20DOPE  H13R 2516   7.927   5.944  15.425 -2.3066 -0.1623 -1.1496
   20DOPE  H13S 2517   8.067   6.037  15.373  0.5422  0.8998  0.8153
   20DOPE  C214 2518   7.894   6.029  15.231  0.1321  0.2184  0.6521
   20DOPE  H14R 2519   7.935   5.933  15.192  0.7350  0.0861  1.5696
   20DOPE  H14S 2520   7.937   6.117  15.179  2.8708 -0.4033  1.7162
   20DOPE  C215 2521   7.742   6.028  15.228 -0.3078 -0.0297  0.1100
   20DOPE  H15R 2522   7.706   6.119  15.282 -0.8749  0.0319 -0.3569
   20DOPE  H15S 2523   7.709   5.930  15.267  0.4444 -0.2289  0.2631
   20DOPE  C216 2524   7.691   6.033  15.080 -0.2790 -0.9732  0.0464
   20DOPE  H16R 2525   7.586   5.999  15.073  0.2461 -2.6830 -0.0634
   20DOPE  H16S 2526   7.748   5.964  15.014 -1.3691 -0.1072 -1.8798
   20DOPE  C217 2527   7.694   6.174  15.023  0.2965 -0.4561 -0.1785
   20DOPE  H17R 2528   7.785   6.231  15.050 -0.6780  0.4060  1.4704
   20DOPE  H17S 2529   7.615   6.229  15.079 -0.2794 -1.0511 -0.3878
   20DOPE  C218 2530   7.664   6.192  14.868 -0.0749  0.3776  0.5520
   20DOPE  H18R 2531   7.665   6.299  14.838  1.6505  0.5278  1.0442
   20DOPE  H18S 2532   7.562   6.150  14.852  0.5714 -1.0419 -0.0607
   20DOPE  H18T 2533   7.740   6.125  14.821 -0.7117 -0.4220  0.6253
   20DOPE   C33 2534   7.997   7.034  16.129 -0.3574  0.6832 -0.2287
   20DOPE   H3X 2535   8.056   7.109  16.186  1.7583  0.6082 -2.1747
   20DOPE   H3Y 2536   7.893   7.048  16.167 -0.1655 -1.0680  1.0308
   20DOPE   C34 2537   8.013   7.067  15.978 -0.9470 -0.4981  0.1157
   20DOPE   H4X 2538   7.997   7.176  15.962  0.9279  0.1246  1.9875
   20DOPE   H4Y 2539   8.120   7.050  15.952 -0.5829  2.1594 -0.3545
   20DOPE   C35 2540   7.912   7.005  15.895  0.9341  0.7529  0.9324
   20DOPE   H5X 2541   7.820   7.061  15.924 -0.2546 -0.6456 -0.0442
   20DOPE   H5Y 2542   7.898   6.897  15.912 -1.5913  0.5760 -1.5479
   20DOPE   C36 2543   7.931   7.031  15.743  0.2929  0.5617  0.5164
   20DOPE   H6X 2544   8.024   6.987  15.702 -0.0002  0.7532 -0.3693
   20DOPE   H6Y 2545   7.971   7.134  15.748  0.1195  0.5778  2.8510
   20DOPE   C37 2546   7.809   7.002  15.642 -0.2610  0.2334  0.4284
   20DOPE   H7X 2547   7.809   6.892  15.629 -1.6939  0.2928 -0.1492
   20DOPE   H7Y 2548   7.717   7.031  15.697  1.0384  1.7767  1.9214
   20DOPE   C38 2549   7.825   7.078  15.513 -0.3307 -0.1989  0.1816
   20DOPE   H8X 2550   7.816   7.185  15.541 -2.4106 -0.5805  1.0894
   20DOPE   H8Y 2551   7.738   7.053  15.448  0.6591  1.6869 -2.0321
   20DOPE   C39 2552   7.954   7.041  15.436 -0.0962  0.2109  0.6735
   20DOPE   H9X 2553   8.050   7.078  15.474  0.3827 -1.3802  1.0860
   20DOPE  C310 2554   7.950   6.979  15.314  0.0315  0.5341 -0.1777
   20DOPE  H10X 2555   8.044   6.943  15.270 -0.0637  1.2581 -0.9922
   20DOPE  C311 2556   7.828   6.928  15.240 -0.3313  0.0559 -0.5711
   20DOPE  H11X 2557   7.844   6.831  15.188  1.0465  0.4006 -0.8155
   20DOPE  H11Y 2558   7.740   6.910  15.306  0.6816  3.9551  2.2390
   20DOPE  C312 2559   7.777   7.035  15.136  0.0954 -0.3910  0.0731
   20DOPE  H12X 2560   7.846   7.047  15.049  2.9581  1.5836  2.4278
   20DOPE  H12Y 2561   7.770   7.136  15.181  0.0661 -1.6908  3.2135
   20DOPE  C313 2562   7.636   6.993  15.075 -0.1752  0.3949  0.2011
   20DOPE  H13X 2563   7.642   6.885  15.052  1.4653  0.2526  1.1911
   20DOPE  H13Y 2564   7.564   7.012  15.158 -1.9939  0.7432 -1.3706
   20DOPE  C314 2565   7.598   7.083  14.951 -0.2990 -0.2958  0.4493
   20DOPE  H14X 2566   7.616   7.192  14.963  1.0589 -0.3916 -0.4062
   20DOPE  H14Y 2567   7.494   7.049  14.932 -0.0617 -0.9440  0.2890
   20DOPE  C315 2568   7.674   7.024  14.833 -1.0031  0.1242 -0.2939
   20DOPE  H15X 2569   7.644   6.918  14.822  1.8084 -0.9318  1.3046
   20DOPE  H15Y 2570   7.784   7.013  14.849 -1.0085 -0.6875 -0.7571
   20DOPE  C316 2571   7.637   7.096  14.696 -0.3888 -0.4595  0.4470
   20DOPE  H16X 2572   7.686   7.195  14.706  3.6122 -2.3434  1.5026
   20DOPE  H16Y 2573   7.526   7.103  14.702 -0.4608  1.1229 -1.4796
   20DOPE  C317 2574   7.690   7.032  14.562 -0.0614  0.2630 -0.5071
   20DOPE  H17X 2575   7.795   7.066  14.549  0.5144 -0.3931  1.9778
   20DOPE  H17Y 2576   7.694   6.923  14.580 -0.6917  0.5378  1.5579
   20DOPE  C318 2577   7.597   7.062  14.439 -0.4031  0.6878 -0.1294
   20DOPE  H18X 2578   7.637   7.008  14.350 -2.0629 -0.2033 -0.3711
   20DOPE  H18Y 2579   7.499   7.016  14.463 -1.5156  1.9902 -1.9712
   20DOPE  H18Z 2580   7.585   7.171  14.425 -1.4986  0.6771  0.5833
   21DOPE     N 2581   4.654   7.200  16.857  0.3019  0.1327  0.5765
   21DOPE   HN1 2582   4.600   7.148  16.786  2.9023  0.2037 -1.6166
   21DOPE   HN2 2583   4.671   7.290  16.808 -1.6350 -0.2136 -0.8526
   21DOPE   HN3 2584   4.746   7.153  16.868 -0.0332 -0.3696  1.3091
   21DOPE   C12 2585   4.573   7.204  16.982  0.0052  0.0819  0.1018
   21DOPE  H12A 2586   4.472   7.245  16.963 -1.0740 -2.9674 -1.3771
   21DOPE  H12B 2587   4.627   7.271  17.053 -2.2497  1.0084  1.0294
   21DOPE   C11 2588   4.552   7.060  17.040  0.3322  0.2409 -0.6180
   21DOPE  H11A 2589   4.476   7.064  17.121 -0.9883 -0.4202 -1.7987
   21DOPE  H11B 2590   4.646   7.019  17.083 -1.1161 -1.6376  0.9261
   21DOPE     P 2591   4.460   6.827  16.980  0.1177 -0.3130 -0.0857
   21DOPE   O13 2592   4.318   6.822  17.026  0.1661  0.1728 -0.2797
   21DOPE   O14 2593   4.566   6.762  17.058 -0.1394  0.1407 -0.4759
   21DOPE   O11 2594   4.460   6.748  16.854  0.0195  0.1137  0.4783
   21DOPE   O12 2595   4.504   6.972  16.936  0.3852  0.0686 -0.3827
   21DOPE    C1 2596   4.568   6.782  16.755 -0.4349 -0.1242 -0.4226
   21DOPE    HA 2597   4.607   6.685  16.714 -1.4793 -0.9814  0.5623
   21DOPE    HB 2598   4.660   6.825  16.800 -0.4150  0.1301 -0.7075
   21DOPE    C2 2599   4.526   6.873  16.637  0.5143  0.1490  0.0267
   21DOPE    HS 2600   4.495   6.969  16.682  0.9198  0.0658  0.4861
   21DOPE   O21 2601   4.416   6.813  16.560 -0.2928 -0.3276  0.0253
   21DOPE   C21 2602   4.327   6.899  16.518 -0.7931  0.7619 -0.1456
   21DOPE   O22 2603   4.321   7.015  16.528  0.1810 -0.5685  0.3474
   21DOPE   C22 2604   4.212   6.818  16.451  0.0201  0.4539  0.0023
   21DOPE   H2R 2605   4.163   6.755  16.528  0.9528  0.2214  0.4177
   21DOPE   H2S 2606   4.267   6.754  16.379  2.2311  1.4909  0.6750
   21DOPE    C3 2607   4.642   6.905  16.541 -0.0405  0.5728 -0.0461
   21DOPE    HX 2608   4.656   6.807  16.491  1.7199 -0.3327  2.0312
   21DOPE    HY 2609   4.734   6.924  16.601 -0.1783  1.9787 -0.2400
   21DOPE   O31 2610   4.611   7.012  16.450 -0.5858 -1.0374 -0.0346
   21DOPE   C31 2611   4.642   7.137  16.499  0.7231 -0.0005  0.5890
   21DOPE   O32 2612   4.707   7.158  16.596  0.2855  0.6849  0.0514
   21DOPE   C32 2613   4.585   7.241  16.416  0.4267 -0.1335 -0.0373
   21DOPE   H2X 2614   4.478   7.219  16.397  0.6685 -0.8541 -0.6223
   21DOPE   H2Y 2615   4.570   7.333  16.476 -0.1540  0.9325 -1.7412
   21DOPE   C23 2616   4.112   6.913  16.386  0.3777 -0.2305  0.1418
   21DOPE   H3R 2617   4.151   7.013  16.360 -0.8116  0.7937  2.0416
   21DOPE   H3S 2618   4.026   6.938  16.452 -0.0190  0.8255 -0.7516
   21DOPE   C24 2619   4.051   6.850  16.255 -0.2061  0.2792  0.1776
   21DOPE   H4R 2620   4.138   6.836  16.187  1.8252  0.9197  2.5122
   21DOPE   H4S 2621   3.982   6.930  16.219 -0.8257  0.3145  1.3980
   21DOPE   C25 2622   3.969   6.726  16.274 -0.4357 -0.3750 -0.7109
   21DOPE   H5R 2623   3.881   6.750  16.337  0.1879 -1.4063  0.5925
   21DOPE   H5S 2624   4.030   6.653  16.332 -0.6246 -0.5445 -0.7203
   21DOPE   C26 2625   3.899   6.657  16.156  0.8393 -0.6610 -1.0884
   21DOPE   H6R 2626   3.837   6.734  16.105 -2.2550 -1.7039  0.8152
   21DOPE   H6S 2627   3.827   6.583  16.198 -1.0397  2.1259  0.8965
   21DOPE   C27 2628   4.001   6.595  16.062  0.1023  0.0530  0.4258
   21DOPE   H7R 2629   4.046   6.509  16.117  0.3624  0.4427  0.8232
   21DOPE   H7S 2630   4.071   6.677  16.035 -1.0979  0.4787 -1.5147
   21DOPE   C28 2631   3.937   6.556  15.921 -0.6542  0.1910 -0.5810
   21DOPE   H8R 2632   3.919   6.655  15.874 -0.1156  0.6351  0.1250
   21DOPE   H8S 2633   3.837   6.509  15.931 -0.2425 -0.5054  0.4044
   21DOPE   C29 2634   4.037   6.478  15.835  0.5221  0.3385 -0.8736
   21DOPE   H9R 2635   4.141   6.514  15.841  0.0171  1.6689  2.7869
   21DOPE  C210 2636   4.022   6.371  15.760  0.1499 -0.4825 -0.2863
   21DOPE  H10R 2637   4.100   6.346  15.687  1.3788 -0.7664  1.0746
   21DOPE  C211 2638   3.892   6.294  15.739 -0.5208  0.1044  0.2165
   21DOPE  H11R 2639   3.804   6.360  15.758 -0.8992 -0.7709  1.6534
   21DOPE  H11S 2640   3.891   6.207  15.808  0.4277  0.8150  1.1532
   21DOPE  C212 2641   3.874   6.244  15.590  0.6142 -0.1578  0.5481
   21DOPE  H12R 2642   3.818   6.149  15.597  1.0607 -0.5075 -0.5066
   21DOPE  H12S 2643   3.970   6.222  15.538  0.7478 -0.1763  0.7953
   21DOPE  C213 2644   3.793   6.344  15.510 -0.5239 -0.4645  0.3914
   21DOPE  H13R 2645   3.854   6.437  15.501 -1.3487  0.3283  2.4715
   21DOPE  H13S 2646   3.696   6.365  15.560 -1.9827 -1.5195 -1.8496
   21DOPE  C214 2647   3.754   6.295  15.371 -0.2533  0.8796 -0.1314
   21DOPE  H14R 2648   3.695   6.374  15.320 -2.2635 -0.8970 -0.7103
   21DOPE  H14S 2649   3.697   6.201  15.383  0.4952  0.0829 -2.2620
   21DOPE  C215 2650   3.863   6.263  15.274  0.1181  0.4651  0.3222
   21DOPE  H15R 2651   3.923   6.173  15.299  0.2748  0.4706 -0.0245
   21DOPE  H15S 2652   3.931   6.351  15.276 -0.9515  1.3065  0.5132
   21DOPE  C216 2653   3.828   6.235  15.125 -0.0463  0.2139  0.0367
   21DOPE  H16R 2654   3.726   6.193  15.140  0.6051 -0.8541  1.8211
   21DOPE  H16S 2655   3.899   6.154  15.097 -1.4657 -1.9798  2.2654
   21DOPE  C217 2656   3.830   6.357  15.035 -0.7254 -0.0669  0.2370
   21DOPE  H17R 2657   3.785   6.446  15.085 -0.5606 -1.0661  2.3115
   21DOPE  H17S 2658   3.770   6.338  14.944 -0.4625  0.9272 -0.1544
   21DOPE  C218 2659   3.977   6.391  14.994  0.0640 -0.0472 -0.6691
   21DOPE  H18R 2660   4.020   6.305  14.939  0.9757 -0.2244  0.3094
   21DOPE  H18S 2661   4.043   6.412  15.081  1.9490 -1.6165 -1.6337
   21DOPE  H18T 2662   3.975   6.481  14.928  2.4336  0.6292  0.1095
   21DOPE   C33 2663   4.672   7.285  16.299 -0.1533  0.9574 -0.2449
   21DOPE   H3X 2664   4.631   7.377  16.252  3.8045  3.1574  0.1429
   21DOPE   H3Y 2665   4.677   7.203  16.225 -0.1460  0.9596 -0.2468
   21DOPE   C34 2666   4.811   7.338  16.342 -0.0733  0.0000 -0.3941
   21DOPE   H4X 2667   4.792   7.423  16.412  1.2235 -0.2142  0.2362
   21DOPE   H4Y 2668   4.871   7.263  16.397  1.9265  1.6509 -0.1859
   21DOPE   C35 2669   4.889   7.386  16.218 -0.0250  0.6906 -0.0878
   21DOPE   H5X 2670   4.837   7.473  16.174 -1.9739 -0.6628 -0.6080
   21DOPE   H5Y 2671   4.902   7.307  16.140  1.0885  1.0869 -0.3218
   21DOPE   C36 2672   5.038   7.425  16.263  0.7132 -0.2452  0.4191
   21DOPE   H6X 2673   5.080   7.338  16.319  1.7076 -0.3639 -0.4685
   21DOPE   H6Y 2674   5.030   7.508  16.336 -2.9793 -0.6162  0.6378
   21DOPE   C37 2675   5.133   7.452  16.138 -0.4072  0.5886 -0.6993
   21DOPE   H7X 2676   5.123   7.374  16.059 -0.5908 -1.0455  0.8908
   21DOPE   H7Y 2677   5.097   7.552  16.105  2.0648  2.1188  0.9575
   21DOPE   C38 2678   5.281   7.459  16.180 -0.1155  0.2099 -0.3019
   21DOPE   H8X 2679   5.331   7.420  16.089 -3.0658 -1.1320 -1.4915
   21DOPE   H8Y 2680   5.299   7.385  16.262  1.9846  1.1396  0.1476
   21DOPE   C39 2681   5.346   7.587  16.231  0.1229  0.0356  0.8604
   21DOPE   H9X 2682   5.289   7.651  16.300  0.3024  0.9508  0.1819
   21DOPE  C310 2683   5.456   7.646  16.179  0.6579 -0.7374 -0.5339
   21DOPE  H10X 2684   5.482   7.743  16.223 -0.0434  0.0867 -1.8783
   21DOPE  C311 2685   5.543   7.597  16.069 -0.1287 -0.0824  0.8040
   21DOPE  H11X 2686   5.644   7.631  16.101  0.9797 -0.9042 -1.5464
   21DOPE  H11Y 2687   5.544   7.486  16.065  0.0691 -0.0596 -1.0012
   21DOPE  C312 2688   5.522   7.647  15.923 -0.2148 -0.6757  1.4911
   21DOPE  H12X 2689   5.541   7.756  15.925  1.6872 -0.9456  0.6834
   21DOPE  H12Y 2690   5.419   7.642  15.883  0.1945  2.7416 -0.3400
   21DOPE  C313 2691   5.620   7.587  15.820 -0.6071 -0.2050 -0.3375
   21DOPE  H13X 2692   5.725   7.614  15.843 -1.3478  2.4583  0.2322
   21DOPE  H13Y 2693   5.627   7.477  15.804  3.0262 -0.0219 -0.7328
   21DOPE  C314 2694   5.589   7.653  15.678 -1.1578  0.0108  0.0299
   21DOPE  H14X 2695   5.570   7.762  15.682 -2.6498 -0.1350 -1.8547
   21DOPE  H14Y 2696   5.498   7.592  15.661  0.7134 -3.4161  1.2722
   21DOPE  C315 2697   5.682   7.608  15.569 -0.1848 -0.4262  0.3842
   21DOPE  H15X 2698   5.792   7.627  15.565  0.0881 -1.4727  2.1497
   21DOPE  H15Y 2699   5.641   7.649  15.474  1.5639  0.0001 -0.2362
   21DOPE  C316 2700   5.692   7.453  15.559  0.3835 -0.3615 -0.3128
   21DOPE  H16X 2701   5.590   7.410  15.570  0.6454 -1.2885 -1.3274
   21DOPE  H16Y 2702   5.752   7.433  15.650  0.4149  2.8810  0.5194
   21DOPE  C317 2703   5.764   7.398  15.438  0.0452  0.1647  0.3368
   21DOPE  H17X 2704   5.721   7.431  15.341 -0.2106  1.2337  0.7985
   21DOPE  H17Y 2705   5.870   7.432  15.436  1.5802 -4.0537  0.5654
   21DOPE  C318 2706   5.772   7.247  15.420  0.2851  0.7783  0.6711
   21DOPE  H18X 2707   5.847   7.220  15.343  0.6046  1.3754  0.7648
   21DOPE  H18Y 2708   5.812   7.208  15.516  1.3587 -0.5279 -0.2704
   21DOPE  H18Z 2709   5.672   7.204  15.400  0.1942  0.3319  1.9432
   22DOPE     N 2710   1.129   4.193  17.244 -0.8920  0.1526 -0.0226
   22DOPE   HN1 2711   1.220   4.149  17.269 -0.3961  0.1464 -1.6760
   22DOPE   HN2 2712   1.085   4.218  17.334  0.4350 -2.1966  1.3783
   22DOPE   HN3 2713   1.071   4.126  17.189  0.4790  0.2181 -1.6376
   22DOPE   C12 2714   1.156   4.328  17.172  0.6855 -0.3488 -0.0249
   22DOPE  H12A 2715   1.222   4.388  17.239 -0.1348  0.2052  0.2921
   22DOPE  H12B 2716   1.062   4.386  17.177  0.3599 -0.9623  2.6479
   22DOPE   C11 2717   1.220   4.307  17.036 -0.1709 -0.2254  0.4569
   22DOPE  H11A 2718   1.145   4.248  16.979 -2.1276  0.9890  1.6553
   22DOPE  H11B 2719   1.315   4.251  17.049  0.0529 -0.3010 -1.2959
   22DOPE     P 2720   1.373   4.512  16.995  0.1149  0.1923  0.1965
   22DOPE   O13 2721   1.482   4.421  16.956 -0.4205  0.5839  0.6597
   22DOPE   O14 2722   1.358   4.560  17.132 -0.9024  0.1419  0.3215
   22DOPE   O11 2723   1.370   4.641  16.899  0.0981  0.3957  0.5614
   22DOPE   O12 2724   1.237   4.434  16.967  0.6756  0.0710 -0.4517
   22DOPE    C1 2725   1.274   4.661  16.803 -0.0255 -0.1592 -0.3968
   22DOPE    HA 2726   1.272   4.765  16.765  0.0915 -0.0055  0.0170
   22DOPE    HB 2727   1.173   4.629  16.838  0.4967 -1.1165  0.2839
   22DOPE    C2 2728   1.313   4.583  16.675  0.3662 -0.2736 -0.4117
   22DOPE    HS 2729   1.311   4.475  16.702  0.8149 -0.0256  0.6645
   22DOPE   O21 2730   1.444   4.619  16.639 -0.1997 -0.7900 -0.1041
   22DOPE   C21 2731   1.516   4.530  16.572  0.1860 -0.1180  0.2765
   22DOPE   O22 2732   1.493   4.410  16.574  0.1147  0.3876  0.7674
   22DOPE   C22 2733   1.624   4.608  16.492  0.2106 -0.1306 -0.3750
   22DOPE   H2R 2734   1.720   4.591  16.544 -0.2091 -0.0696  0.4366
   22DOPE   H2S 2735   1.606   4.718  16.500 -0.3343 -0.3447  2.2920
   22DOPE    C3 2736   1.209   4.607  16.557 -0.0165  0.5308 -0.3145
   22DOPE    HX 2737   1.195   4.715  16.538  0.9103  0.4589 -1.5698
   22DOPE    HY 2738   1.107   4.576  16.588  0.6750 -0.5463  1.0185
   22DOPE   O31 2739   1.239   4.529  16.439 -0.3604  0.2358  0.2719
   22DOPE   C31 2740   1.224   4.396  16.455 -0.2719 -0.2024  0.4594
   22DOPE   O32 2741   1.205   4.336  16.560  0.5323  0.0087  0.4837
   22DOPE   C32 2742   1.239   4.324  16.324 -1.1128  0.2067 -0.2689
   22DOPE   H2X 2743   1.146   4.311  16.264 -1.0858  2.3664 -0.8641
   22DOPE   H2Y 2744   1.306   4.386  16.262  1.6948 -1.1107  1.2683
   22DOPE   C23 2745   1.655   4.551  16.353 -0.3414 -0.0063 -0.3284
   22DOPE   H3R 2746   1.669   4.442  16.362 -1.8780 -0.3049 -1.2181
   22DOPE   H3S 2747   1.756   4.580  16.319  0.3215  1.0020  2.2703
   22DOPE   C24 2748   1.551   4.588  16.253  0.1844 -0.0988  0.3622
   22DOPE   H4R 2749   1.565   4.695  16.226 -1.1416 -0.0131 -0.0494
   22DOPE   H4S 2750   1.446   4.580  16.289  0.5785  3.3233  2.7871
   22DOPE   C25 2751   1.564   4.511  16.126  0.5027 -0.9528 -0.1697
   22DOPE   H5R 2752   1.576   4.402  16.143 -1.0199 -0.9718  0.9457
   22DOPE   H5S 2753   1.653   4.530  16.062  0.8908 -2.2597 -0.0494
   22DOPE   C26 2754   1.448   4.534  16.033  1.0316  0.0328 -0.0137
   22DOPE   H6R 2755   1.352   4.507  16.082 -0.4664  0.1221 -2.6635
   22DOPE   H6S 2756   1.450   4.450  15.959  2.4572 -2.3236  2.5346
   22DOPE   C27 2757   1.438   4.670  15.978  0.3495 -0.0183 -0.2870
   22DOPE   H7R 2758   1.527   4.696  15.917  1.1055 -0.1436  0.7375
   22DOPE   H7S 2759   1.429   4.743  16.061  2.2868 -3.3471  3.2141
   22DOPE   C28 2760   1.315   4.689  15.892 -0.3284 -0.4528  0.1107
   22DOPE   H8R 2761   1.328   4.798  15.873  1.3571 -0.5121  0.7343
   22DOPE   H8S 2762   1.223   4.679  15.954 -0.4444 -0.2480 -0.0273
   22DOPE   C29 2763   1.305   4.631  15.755 -0.2363  0.3475 -0.0212
   22DOPE   H9R 2764   1.348   4.675  15.664 -0.4084  0.4556 -0.0501
   22DOPE  C210 2765   1.235   4.520  15.726 -0.1757  0.0866 -0.2974
   22DOPE  H10R 2766   1.225   4.480  15.624  0.8798  1.9075 -1.1630
   22DOPE  C211 2767   1.153   4.429  15.820 -0.4919  0.4618  0.2136
   22DOPE  H11R 2768   1.048   4.409  15.788 -0.8137  2.2077  0.0997
   22DOPE  H11S 2769   1.147   4.484  15.916 -0.4800  0.4315  0.2310
   22DOPE  C212 2770   1.218   4.295  15.842 -0.6753 -0.4820 -0.3699
   22DOPE  H12R 2771   1.315   4.312  15.893 -0.6325  1.6675 -1.0812
   22DOPE  H12S 2772   1.235   4.238  15.748 -2.4009  0.4042 -1.2725
   22DOPE  C213 2773   1.145   4.198  15.927 -0.0648 -0.1212 -0.2283
   22DOPE  H13R 2774   1.156   4.227  16.034  0.2763 -0.4673 -0.1634
   22DOPE  H13S 2775   1.191   4.097  15.915 -0.7013 -0.3300 -0.9864
   22DOPE  C214 2776   1.002   4.171  15.883 -0.2392  0.6446 -0.4151
   22DOPE  H14R 2777   1.016   4.151  15.775  0.0078 -1.3210 -0.0678
   22DOPE  H14S 2778   0.946   4.266  15.888 -0.5311  0.4889 -0.7666
   22DOPE  C215 2779   0.927   4.059  15.966 -0.5234 -0.4812  0.1242
   22DOPE  H15R 2780   0.818   4.069  15.949 -0.3664  1.5955  0.0752
   22DOPE  H15S 2781   0.946   4.090  16.071  0.8661 -2.4708  0.5236
   22DOPE  C216 2782   0.975   3.909  15.945 -0.1884  0.1575  0.2109
   22DOPE  H16R 2783   1.085   3.912  15.961  0.0501 -0.9054 -0.9919
   22DOPE  H16S 2784   0.958   3.873  15.841  0.5124  0.0732  0.1200
   22DOPE  C217 2785   0.904   3.814  16.035 -0.0867 -0.5109  0.6503
   22DOPE  H17R 2786   0.810   3.783  15.985  0.9588 -2.9737  0.1006
   22DOPE  H17S 2787   0.891   3.865  16.134 -2.2033  0.5162 -0.0760
   22DOPE  C218 2788   0.979   3.691  16.064 -0.8195  0.9813  0.7691
   22DOPE  H18R 2789   0.958   3.610  15.991 -0.3046  0.4063  1.2566
   22DOPE  H18S 2790   0.953   3.648  16.163  2.1895 -0.3173  1.1032
   22DOPE  H18T 2791   1.087   3.714  16.061 -1.1544  2.6373  0.1058
   22DOPE   C33 2792   1.313   4.185  16.341 -0.3459 -0.1787  0.1472
   22DOPE   H3X 2793   1.262   4.123  16.418  1.1069  0.1283  1.3949
   22DOPE   H3Y 2794   1.421   4.188  16.367  0.4693 -0.1988 -2.8561
   22DOPE   C34 2795   1.323   4.105  16.204 -0.2695  0.5703 -0.1602
   22DOPE   H4X 2796   1.217   4.084  16.177  0.0128  0.9754 -1.6540
   22DOPE   H4Y 2797   1.371   4.181  16.139  0.1517  2.9115  2.6613
   22DOPE   C35 2798   1.403   3.982  16.224 -0.0432 -0.3025 -0.0424
   22DOPE   H5X 2799   1.362   3.922  16.308 -1.6868  0.5659 -0.1879
   22DOPE   H5Y 2800   1.508   4.007  16.250  0.0491  1.5800 -1.9197
   22DOPE   C36 2801   1.402   3.896  16.097 -0.0611 -0.9829  0.4104
   22DOPE   H6X 2802   1.294   3.896  16.069 -0.5213 -2.1753  2.0170
   22DOPE   H6Y 2803   1.427   3.788  16.108 -0.2902 -1.1121 -0.2903
   22DOPE   C37 2804   1.487   3.948  15.983  0.1844  0.4782 -0.2573
   22DOPE   H7X 2805   1.458   4.052  15.960  0.6407  0.6977  0.1396
   22DOPE   H7Y 2806   1.592   3.942  16.018  0.1072 -2.2838 -0.2232
   22DOPE   C38 2807   1.474   3.865  15.852 -0.1718 -0.3147 -0.0387
   22DOPE   H8X 2808   1.553   3.788  15.861 -1.8603 -1.9579  1.5357
   22DOPE   H8Y 2809   1.484   3.941  15.772 -1.4369 -0.5965 -0.4891
   22DOPE   C39 2810   1.336   3.791  15.826  0.9192 -0.0672  0.9212
   22DOPE   H9X 2811   1.290   3.742  15.913 -0.2947  1.1576  1.0096
   22DOPE  C310 2812   1.275   3.773  15.706 -1.1390 -0.0663  0.2271
   22DOPE  H10X 2813   1.181   3.717  15.700  0.3266 -2.6545  0.0560
   22DOPE  C311 2814   1.330   3.821  15.575 -0.5345 -0.1723 -0.5697
   22DOPE  H11X 2815   1.431   3.867  15.579  0.3594 -1.9588 -1.6359
   22DOPE  H11Y 2816   1.332   3.745  15.494 -2.7427 -0.3047 -0.5770
   22DOPE  C312 2817   1.246   3.937  15.507  0.6488  0.5174 -0.0212
   22DOPE  H12X 2818   1.301   3.979  15.419  2.0745  0.2793  0.7239
   22DOPE  H12Y 2819   1.222   4.022  15.574  0.6451  1.3877 -1.0983
   22DOPE  C313 2820   1.112   3.890  15.457 -0.0946  0.5605 -0.1835
   22DOPE  H13X 2821   1.130   3.808  15.384  0.0085  1.6193 -1.3977
   22DOPE  H13Y 2822   1.050   3.846  15.537  0.8991  1.8023  1.3254
   22DOPE  C314 2823   1.033   3.997  15.374 -0.1939 -0.3390  0.0075
   22DOPE  H14X 2824   1.076   4.020  15.274  1.8773  0.8395  1.0967
   22DOPE  H14Y 2825   1.046   4.092  15.430  0.3480 -1.2177  1.4276
   22DOPE  C315 2826   0.889   3.964  15.353  0.0069  0.5403  0.7079
   22DOPE  H15X 2827   0.887   3.859  15.318 -0.1676  0.8916 -0.3679
   22DOPE  H15Y 2828   0.855   4.022  15.264  1.7232  0.0632 -0.2967
   22DOPE  C316 2829   0.795   3.980  15.476 -0.0270 -0.0790  0.4170
   22DOPE  H16X 2830   0.831   3.898  15.543 -0.3492 -1.6536 -1.2694
   22DOPE  H16Y 2831   0.690   3.961  15.447 -0.1375 -0.4911  1.0637
   22DOPE  C317 2832   0.790   4.120  15.532  0.4930  0.2753 -0.0676
   22DOPE  H17X 2833   0.886   4.135  15.586  0.8116  3.5609 -1.3574
   22DOPE  H17Y 2834   0.783   4.185  15.442 -1.4392 -1.6654 -1.4218
   22DOPE  C318 2835   0.674   4.154  15.618 -0.3717 -0.3032 -0.2107
   22DOPE  H18X 2836   0.696   4.245  15.678 -1.8044 -0.6802  0.9408
   22DOPE  H18Y 2837   0.581   4.180  15.562 -0.6730 -0.2536  0.2989
   22DOPE  H18Z 2838   0.653   4.077  15.695 -0.9342  0.0278 -0.0249
   23DOPE     N 2839   6.188   0.091  16.967  0.3075 -0.2471  0.1914
   23DOPE   HN1 2840   6.102   0.113  17.022 -0.1113 -0.8233 -0.2101
   23DOPE   HN2 2841   6.227   0.179  16.929  0.9068 -0.7098 -0.2846
   23DOPE   HN3 2842   6.167   0.023  16.891 -2.1721 -0.2919  0.8222
   23DOPE   C12 2843   6.301   0.034  17.044  0.6897 -0.0126 -0.6730
   23DOPE  H12A 2844   6.251  -0.045  17.105  0.7370  0.9679  0.6770
   23DOPE  H12B 2845   6.342   0.111  17.113 -0.2473 -0.0071 -0.0949
   23DOPE   C11 2846   6.409  -0.031  16.949  0.2664 -0.2475  0.6152
   23DOPE  H11A 2847   6.499  -0.044  17.013  0.8520 -1.0051 -0.3485
   23DOPE  H11B 2848   6.436   0.043  16.870 -1.3801  0.9519  1.1032
   23DOPE     P 2849   6.306  -0.165  16.749 -0.0057  0.3733  0.0945
   23DOPE   O13 2850   6.413  -0.123  16.661 -0.2256 -0.4876 -0.1419
   23DOPE   O14 2851   6.187  -0.081  16.748 -0.1817  0.7843  0.2655
   23DOPE   O11 2852   6.268  -0.321  16.735 -0.3487  0.6858 -0.1225
   23DOPE   O12 2853   6.362  -0.155  16.897  0.1476 -0.2258 -0.1130
   23DOPE    C1 2854   6.345  -0.421  16.658 -0.0741  0.4470  0.4227
   23DOPE    HA 2855   6.325  -0.519  16.706 -1.1869 -0.0803 -1.0532
   23DOPE    HB 2856   6.454  -0.402  16.649  0.0125 -0.2905 -0.2403
   23DOPE    C2 2857   6.285  -0.439  16.518  0.4306  0.3412  0.5362
   23DOPE    HS 2858   6.322  -0.530  16.466 -2.3261 -0.7472  0.3004
   23DOPE   O21 2859   6.305  -0.324  16.433 -0.0184  0.3125  0.1850
   23DOPE   C21 2860   6.428  -0.304  16.407  0.3297 -0.0136 -0.5047
   23DOPE   O22 2861   6.526  -0.363  16.447  0.2241  0.1624 -0.9599
   23DOPE   C22 2862   6.435  -0.174  16.325 -0.0326  0.0906 -0.0715
   23DOPE   H2R 2863   6.388  -0.095  16.388 -0.4728  0.5714 -0.9809
   23DOPE   H2S 2864   6.370  -0.179  16.235 -1.1444 -2.8560  0.7855
   23DOPE    C3 2865   6.132  -0.473  16.523 -0.1669  0.4239 -0.5734
   23DOPE    HX 2866   6.092  -0.390  16.585  1.0347  1.6842 -1.4410
   23DOPE    HY 2867   6.124  -0.564  16.587  2.4658  3.1391  4.2515
   23DOPE   O31 2868   6.070  -0.491  16.388  0.1881  0.1229  0.2500
   23DOPE   C31 2869   5.946  -0.432  16.385 -0.4000 -0.0838 -0.3893
   23DOPE   O32 2870   5.883  -0.389  16.480 -0.2792  0.1505 -0.2824
   23DOPE   C32 2871   5.902  -0.430  16.231 -0.5786 -0.1701  0.1979
   23DOPE   H2X 2872   5.943  -0.517  16.175  1.0995  0.8647 -0.2525
   23DOPE   H2Y 2873   5.791  -0.440  16.236 -0.5272 -0.6276  0.4463
   23DOPE   C23 2874   6.577  -0.116  16.317 -0.2380  0.2119  0.2087
   23DOPE   H3R 2875   6.637  -0.139  16.407 -0.3542 -0.5662  0.0935
   23DOPE   H3S 2876   6.565  -0.006  16.302  0.1530  0.4053  1.2001
   23DOPE   C24 2877   6.667  -0.157  16.201  0.2207  0.2490  0.3195
   23DOPE   H4R 2878   6.707  -0.261  16.213  1.7791  0.8527  0.6732
   23DOPE   H4S 2879   6.759  -0.097  16.187  2.1424 -2.1495  1.7311
   23DOPE   C25 2880   6.597  -0.149  16.064  0.0849  0.1402  0.1661
   23DOPE   H5R 2881   6.557  -0.046  16.053  1.0259  0.3393 -1.9820
   23DOPE   H5S 2882   6.510  -0.218  16.068 -0.0633  0.3810  1.3828
   23DOPE   C26 2883   6.681  -0.186  15.939  0.4014 -0.1193  0.1106
   23DOPE   H6R 2884   6.706  -0.294  15.945 -2.6473 -1.0164 -1.1230
   23DOPE   H6S 2885   6.774  -0.125  15.937 -0.6363  1.5864  1.3846
   23DOPE   C27 2886   6.598  -0.143  15.814 -0.1402  1.0190 -0.6295
   23DOPE   H7R 2887   6.574  -0.035  15.812  1.4105  1.3757 -0.5284
   23DOPE   H7S 2888   6.508  -0.209  15.822  1.4874 -1.1209  2.1980
   23DOPE   C28 2889   6.676  -0.193  15.694 -0.2585  0.5991 -0.4332
   23DOPE   H8R 2890   6.678  -0.303  15.711 -0.7858  0.7410  0.7161
   23DOPE   H8S 2891   6.781  -0.157  15.697 -0.2223  0.4909 -0.4073
   23DOPE   C29 2892   6.604  -0.173  15.562 -0.4737  0.5477 -0.1401
   23DOPE   H9R 2893   6.496  -0.191  15.574 -0.3693  1.4230  2.9422
   23DOPE  C210 2894   6.656  -0.139  15.442  0.2120 -0.6285  0.0273
   23DOPE  H10R 2895   6.593  -0.123  15.353 -1.6983 -0.9076  1.2699
   23DOPE  C211 2896   6.806  -0.116  15.420  0.6102 -0.6062 -0.5311
   23DOPE  H11R 2897   6.865  -0.182  15.487  2.0099  0.3922 -0.7338
   23DOPE  H11S 2898   6.843  -0.011  15.427  0.5384 -0.4133 -2.5806
   23DOPE  C212 2899   6.851  -0.160  15.277  0.1353 -0.2428  0.2518
   23DOPE  H12R 2900   6.781  -0.109  15.208 -2.9813 -1.5957  2.2380
   23DOPE  H12S 2901   6.843  -0.269  15.261 -0.6653  0.0191 -1.3769
   23DOPE  C213 2902   7.000  -0.120  15.243  0.0847  0.0123  0.1066
   23DOPE  H13R 2903   7.046  -0.041  15.305  0.4944  0.3168 -0.5699
   23DOPE  H13S 2904   6.980  -0.094  15.136  0.3071  0.8143  0.2554
   23DOPE  C214 2905   7.089  -0.248  15.237 -0.2392  0.3674 -0.1021
   23DOPE  H14R 2906   7.059  -0.329  15.168  0.7260 -1.9766  2.0573
   23DOPE  H14S 2907   7.097  -0.295  15.337 -0.2345  1.7469  0.5710
   23DOPE  C215 2908   7.232  -0.210  15.199 -0.1026  0.0238  0.1430
   23DOPE  H15R 2909   7.245  -0.101  15.214 -1.2980  0.5929 -2.5486
   23DOPE  H15S 2910   7.245  -0.226  15.090 -1.8605  1.9673 -0.4121
   23DOPE  C216 2911   7.337  -0.291  15.269  0.6536  0.1475  0.1359
   23DOPE  H16R 2912   7.321  -0.400  15.261  0.9276  0.0720  0.5794
   23DOPE  H16S 2913   7.338  -0.268  15.378 -0.6412  2.0996 -0.2039
   23DOPE  C217 2914   7.478  -0.249  15.232 -0.4882 -0.1211  0.0492
   23DOPE  H17R 2915   7.487  -0.145  15.270  2.3192 -0.2981  0.0263
   23DOPE  H17S 2916   7.489  -0.242  15.121 -0.7353  0.8555  0.0720
   23DOPE  C218 2917   7.597  -0.321  15.295  0.4597 -0.4291 -0.3923
   23DOPE  H18R 2918   7.610  -0.288  15.400 -1.0350 -0.6093 -0.1326
   23DOPE  H18S 2919   7.692  -0.304  15.239  0.9860  0.4859  0.7400
   23DOPE  H18T 2920   7.590  -0.432  15.288 -0.7217 -0.2945 -1.8902
   23DOPE   C33 2921   5.944  -0.300  16.158  0.1066  0.3550  0.1465
   23DOPE   H3X 2922   5.918  -0.208  16.214  2.6669  2.4233 -1.8323
   23DOPE   H3Y 2923   5.904  -0.286  16.055  2.2879 -0.4200 -0.8863
   23DOPE   C34 2924   6.100  -0.311  16.128 -0.3421  0.2732  0.2467
   23DOPE   H4X 2925   6.146  -0.293  16.228 -0.3142 -1.9601  0.6969
   23DOPE   H4Y 2926   6.128  -0.416  16.103  0.0820  0.1562  1.1568
   23DOPE   C35 2927   6.157  -0.223  16.020  0.1291  0.3904 -0.0547
   23DOPE   H5X 2928   6.267  -0.237  16.027  0.2239  1.0245 -0.1674
   23DOPE   H5Y 2929   6.143  -0.119  16.057  1.2609 -0.5321  3.2152
   23DOPE   C36 2930   6.115  -0.258  15.878  0.4076  0.4891  0.5549
   23DOPE   H6X 2931   6.008  -0.291  15.880 -0.2922  2.6497  0.8081
   23DOPE   H6Y 2932   6.178  -0.346  15.852  0.3352  0.0333  1.8079
   23DOPE   C37 2933   6.135  -0.145  15.784 -0.1819 -0.0591 -0.5656
   23DOPE   H7X 2934   6.066  -0.068  15.826  0.6362  1.1307 -1.3374
   23DOPE   H7Y 2935   6.239  -0.105  15.782 -0.2513  0.2367  0.7744
   23DOPE   C38 2936   6.098  -0.185  15.634 -0.2338 -0.0220 -0.2781
   23DOPE   H8X 2937   6.089  -0.089  15.579  0.3529  0.7158  0.8558
   23DOPE   H8Y 2938   6.000  -0.236  15.643 -1.0382  1.4680 -0.2931
   23DOPE   C39 2939   6.197  -0.271  15.566  0.3123 -0.0706  0.0662
   23DOPE   H9X 2940   6.227  -0.360  15.624 -0.4720 -0.2576  0.2101
   23DOPE  C310 2941   6.259  -0.249  15.446  0.0137  0.2654 -0.1530
   23DOPE  H10X 2942   6.319  -0.330  15.401  0.3940  0.1981  0.4520
   23DOPE  C311 2943   6.240  -0.130  15.356  0.0704 -0.0094  0.7699
   23DOPE  H11X 2944   6.146  -0.078  15.385 -1.2883 -0.9657 -1.6111
   23DOPE  H11Y 2945   6.320  -0.053  15.347  1.6775 -1.8170 -1.7654
   23DOPE  C312 2946   6.232  -0.180  15.202 -0.0815  0.3914  0.6654
   23DOPE  H12X 2947   6.337  -0.210  15.180 -0.4087 -0.3856  0.1488
   23DOPE  H12Y 2948   6.210  -0.091  15.140 -1.4590 -1.2782 -1.3378
   23DOPE  C313 2949   6.121  -0.293  15.175 -0.1782 -0.4620 -0.5832
   23DOPE  H13X 2950   6.102  -0.358  15.263 -1.7990  0.6236 -0.0894
   23DOPE  H13Y 2951   6.031  -0.229  15.168  0.2261  0.0977 -0.7412
   23DOPE  C314 2952   6.143  -0.380  15.047 -0.4432  0.6722 -0.2231
   23DOPE  H14X 2953   6.229  -0.448  15.063 -1.6732 -0.7446  0.5280
   23DOPE  H14Y 2954   6.169  -0.315  14.961  1.2460 -1.1444 -1.1479
   23DOPE  C315 2955   6.030  -0.471  15.000  0.4714  0.4762 -0.0114
   23DOPE  H15X 2956   5.943  -0.408  14.969  0.9352  0.6766 -0.9577
   23DOPE  H15Y 2957   5.993  -0.525  15.089 -0.9054  2.1783  0.4987
   23DOPE  C316 2958   6.071  -0.582  14.892  0.4121  0.2897  0.6807
   23DOPE  H16X 2959   6.162  -0.626  14.937  0.9762  2.4178  1.7340
   23DOPE  H16Y 2960   6.093  -0.519  14.803 -2.4255  1.7415  0.8917
   23DOPE  C317 2961   5.956  -0.673  14.859 -0.2336  0.8209  0.9512
   23DOPE  H17X 2962   5.898  -0.712  14.946 -0.1537  0.5178  0.8710
   23DOPE  H17Y 2963   5.877  -0.612  14.811 -1.4221 -0.7171  0.8724
   23DOPE  C318 2964   6.006  -0.782  14.757 -0.1467 -0.6186 -0.5350
   23DOPE  H18X 2965   5.926  -0.852  14.726 -1.1793  0.4979 -0.4511
   23DOPE  H18Y 2966   6.061  -0.732  14.674  3.6115 -2.9836  0.2850
   23DOPE  H18Z 2967   6.087  -0.843  14.801 -0.7073 -1.6327 -0.8758
   24DOPE     N 2968   0.603   6.558  16.882  0.6188  0.2271 -0.2434
   24DOPE   HN1 2969   0.702   6.569  16.910  0.5542 -2.3585  1.3238
   24DOPE   HN2 2970   0.594   6.528  16.782 -2.5217 -0.5531  0.1636
   24DOPE   HN3 2971   0.568   6.655  16.890  0.0277  0.0510 -0.6104
   24DOPE   C12 2972   0.547   6.471  16.987  0.3350  0.6025 -0.5873
   24DOPE  H12A 2973   0.532   6.533  17.078  2.2336  0.3629 -0.0809
   24DOPE  H12B 2974   0.626   6.397  17.012 -1.4818 -0.5826  2.1922
   24DOPE   C11 2975   0.413   6.397  16.947  0.6139  0.3231  0.1093
   24DOPE  H11A 2976   0.330   6.471  16.939  1.3852  1.4397  1.7482
   24DOPE  H11B 2977   0.373   6.322  17.018 -1.8954  1.2415 -0.2223
   24DOPE     P 2978   0.506   6.197  16.803 -0.2509  0.2325 -0.1953
   24DOPE   O13 2979   0.515   6.140  16.938  0.5959 -0.0697 -0.2202
   24DOPE   O14 2980   0.633   6.234  16.735  0.1306  0.5228  0.4247
   24DOPE   O11 2981   0.412   6.106  16.717 -0.2183  0.2408  0.0187
   24DOPE   O12 2982   0.424   6.334  16.818  0.3338 -0.0805 -0.8463
   24DOPE    C1 2983   0.284   6.128  16.669 -0.9059  0.0467  0.2543
   24DOPE    HA 2984   0.238   6.210  16.729  0.6842  0.3712  1.0752
   24DOPE    HB 2985   0.219   6.039  16.687 -0.6239 -0.3683 -0.6888
   24DOPE    C2 2986   0.277   6.166  16.516  0.4541  0.2442  0.0211
   24DOPE    HS 2987   0.188   6.232  16.507 -0.1875 -0.7201 -1.0111
   24DOPE   O21 2988   0.271   6.050  16.438  0.6846  0.2598 -0.1807
   24DOPE   C21 2989   0.140   6.005  16.428 -0.4547  0.6277 -0.2868
   24DOPE   O22 2990   0.046   6.056  16.488 -0.0095  0.1477 -0.1653
   24DOPE   C22 2991   0.125   5.901  16.321  0.4098  0.6065  0.2238
   24DOPE   H2R 2992   0.208   5.828  16.332 -0.8173 -1.1839 -1.6082
   24DOPE   H2S 2993   0.143   5.955  16.225  0.4025 -0.1535 -0.2210
   24DOPE    C3 2994   0.401   6.249  16.461 -0.2809 -0.1935  1.1490
   24DOPE    HX 2995   0.486   6.177  16.460  0.7795  0.9624  2.4684
   24DOPE    HY 2996   0.417   6.331  16.535 -0.6202 -0.1557  1.1798
   24DOPE   O31 2997   0.373   6.294  16.324 -0.2807 -0.3663  0.3973
   24DOPE   C31 2998   0.465   6.377  16.289 -0.6507 -0.9624  0.9085
   24DOPE   O32 2999   0.556   6.425  16.359  0.3270  0.4490  0.0879
   24DOPE   C32 3000   0.435   6.414  16.143  0.3298  0.2540 -0.1005
   24DOPE   H2X 3001   0.377   6.331  16.097 -1.9771  0.3984  2.3266
   24DOPE   H2Y 3002   0.375   6.507  16.138  0.4525  0.2711 -3.4634
   24DOPE   C23 3003  -0.017   5.848  16.303  0.0030 -0.2131  0.0367
   24DOPE   H3R 3004  -0.096   5.925  16.290 -0.6560 -0.9753 -0.6636
   24DOPE   H3S 3005  -0.037   5.796  16.400 -1.2362 -1.2713 -0.7452
   24DOPE   C24 3006  -0.023   5.747  16.192  0.3789  0.0006 -0.5477
   24DOPE   H4R 3007  -0.095   5.673  16.234 -0.5590  0.8601 -0.5961
   24DOPE   H4S 3008   0.074   5.696  16.175 -1.0713 -3.5081  0.8344
   24DOPE   C25 3009  -0.080   5.813  16.066  0.3379  0.7367  0.4622
   24DOPE   H5R 3010   0.001   5.833  15.992 -0.3760  0.6823 -0.3539
   24DOPE   H5S 3011  -0.119   5.913  16.092  2.0493  0.7352  3.5247
   24DOPE   C26 3012  -0.184   5.719  16.006 -0.0607 -0.0963 -0.1101
   24DOPE   H6R 3013  -0.281   5.724  16.059 -1.0732 -1.7608 -1.7000
   24DOPE   H6S 3014  -0.141   5.618  16.022  0.6311  0.1557 -0.3390
   24DOPE   C27 3015  -0.212   5.739  15.855 -0.6652  0.4163  0.4244
   24DOPE   H7R 3016  -0.260   5.647  15.816 -0.4508  0.5829 -0.2362
   24DOPE   H7S 3017  -0.115   5.760  15.805  0.2702  0.3319  2.1299
   24DOPE   C28 3018  -0.312   5.851  15.825  0.3276 -0.0112  1.1033
   24DOPE   H8R 3019  -0.414   5.832  15.865 -0.6864 -0.5575 -1.5839
   24DOPE   H8S 3020  -0.335   5.815  15.723  0.8725 -1.7190  1.5421
   24DOPE   C29 3021  -0.265   5.993  15.837 -0.1399  0.5175  0.4387
   24DOPE   H9R 3022  -0.266   6.030  15.940 -1.5044 -1.1256  1.0509
   24DOPE  C210 3023  -0.222   6.069  15.736 -0.0156  0.0626  0.3657
   24DOPE  H10R 3024  -0.200   6.173  15.762  1.8683  0.1657 -1.4124
   24DOPE  C211 3025  -0.201   6.025  15.592  0.1183 -0.2097  0.5993
   24DOPE  H11R 3026  -0.194   5.916  15.573 -1.5713 -0.3452  0.5688
   24DOPE  H11S 3027  -0.107   6.066  15.551 -0.7185  0.3133 -0.8658
   24DOPE  C212 3028  -0.318   6.073  15.504 -0.2268 -0.4989 -0.3967
   24DOPE  H12R 3029  -0.324   6.184  15.500 -2.2221 -0.5589 -0.1688
   24DOPE  H12S 3030  -0.409   6.036  15.556  0.4421  0.7816  1.8012
   24DOPE  C213 3031  -0.305   6.017  15.362  0.1306  0.0583 -0.6572
   24DOPE  H13R 3032  -0.289   5.908  15.365  2.5112  0.2492 -2.9179
   24DOPE  H13S 3033  -0.209   6.059  15.324  1.4930 -0.6727  1.7394
   24DOPE  C214 3034  -0.422   6.044  15.263 -0.3209  0.3625 -0.5118
   24DOPE  H14R 3035  -0.430   6.154  15.263  1.4675  0.6129  2.7521
   24DOPE  H14S 3036  -0.511   6.003  15.315 -0.6976  1.8704  0.0595
   24DOPE  C215 3037  -0.415   5.974  15.127  0.1284  0.2036 -0.9269
   24DOPE  H15R 3038  -0.347   6.031  15.061  0.2189  0.9861 -0.1839
   24DOPE  H15S 3039  -0.517   5.979  15.083 -0.5779  0.0486  0.6166
   24DOPE  C216 3040  -0.372   5.825  15.137  0.1462 -0.4350  0.0695
   24DOPE  H16R 3041  -0.452   5.777  15.198 -2.4818  0.1263 -2.6628
   24DOPE  H16S 3042  -0.272   5.801  15.179 -1.0854 -1.6964  2.4900
   24DOPE  C217 3043  -0.362   5.757  15.004  0.3256 -0.0777 -0.3764
   24DOPE  H17R 3044  -0.292   5.809  14.936 -0.4498  2.1224  0.4343
   24DOPE  H17S 3045  -0.463   5.766  14.958 -0.6989 -0.8255  1.5904
   24DOPE  C218 3046  -0.323   5.607  15.013  0.7794 -0.4635 -0.5104
   24DOPE  H18R 3047  -0.415   5.545  15.026  1.4541 -1.2070  0.9946
   24DOPE  H18S 3048  -0.253   5.590  15.097  0.3608 -0.0270 -0.0620
   24DOPE  H18T 3049  -0.277   5.571  14.919 -1.6518 -1.6834 -1.3155
   24DOPE   C33 3050   0.557   6.431  16.052 -0.1405  1.4218 -0.5656
   24DOPE   H3X 3051   0.620   6.341  16.068 -0.8021  1.0664  0.0950
   24DOPE   H3Y 3052   0.634   6.510  16.064  0.3808  1.4274 -3.1871
   24DOPE   C34 3053   0.521   6.433  15.897  0.6929  0.4737 -0.2752
   24DOPE   H4X 3054   0.616   6.397  15.852  1.2889  0.9385  0.5804
   24DOPE   H4Y 3055   0.451   6.351  15.871  2.0296 -1.0843  0.8486
   24DOPE   C35 3056   0.470   6.566  15.841 -0.4944 -0.2338 -0.8142
   24DOPE   H5X 3057   0.533   6.654  15.866  0.6431 -1.3581  0.4188
   24DOPE   H5Y 3058   0.365   6.587  15.871  0.0460  0.5571  0.5921
   24DOPE   C36 3059   0.463   6.546  15.688  0.1458  0.4708  0.3226
   24DOPE   H6X 3060   0.415   6.447  15.669  0.9496 -0.3207  2.1115
   24DOPE   H6Y 3061   0.568   6.555  15.652  0.2480 -1.3269  0.0691
   24DOPE   C37 3062   0.380   6.650  15.618  1.1815 -0.0010  0.0102
   24DOPE   H7X 3063   0.271   6.649  15.641  0.8682  2.9104 -1.0311
   24DOPE   H7Y 3064   0.415   6.748  15.656  0.8553  0.3250 -0.5269
   24DOPE   C38 3065   0.397   6.653  15.462  0.3714  0.1951 -0.5795
   24DOPE   H8X 3066   0.490   6.708  15.437  0.3014 -0.0187 -1.3281
   24DOPE   H8Y 3067   0.309   6.708  15.420 -0.0536 -0.0826 -0.0682
   24DOPE   C39 3068   0.408   6.516  15.396  0.1561  0.3840 -1.1511
   24DOPE   H9X 3069   0.326   6.446  15.420  0.6072  0.6807  1.5858
   24DOPE  C310 3070   0.511   6.477  15.323 -0.6329  0.2474 -0.4330
   24DOPE  H10X 3071   0.498   6.375  15.283 -1.2447 -0.0780  0.5585
   24DOPE  C311 3072   0.635   6.555  15.284 -0.3442 -0.2221 -0.0455
   24DOPE  H11X 3073   0.672   6.617  15.369  0.6817 -1.3521  0.3520
   24DOPE  H11Y 3074   0.724   6.493  15.259  0.1291 -0.4849  2.0873
   24DOPE  C312 3075   0.612   6.669  15.184  0.1347 -0.3608  0.3000
   24DOPE  H12X 3076   0.712   6.709  15.159  0.8601 -3.5389 -2.5329
   24DOPE  H12Y 3077   0.552   6.751  15.230  1.7338  0.0341  1.7874
   24DOPE  C313 3078   0.542   6.614  15.055  0.1318  0.9931  0.0372
   24DOPE  H13X 3079   0.601   6.533  15.008 -1.0836 -0.4126  0.8686
   24DOPE  H13Y 3080   0.445   6.565  15.077  0.3417 -0.2587 -1.5773
   24DOPE  C314 3081   0.530   6.721  14.944  0.3526 -0.1929  0.2995
   24DOPE  H14X 3082   0.484   6.805  15.001 -1.7525 -2.6772  2.5420
   24DOPE  H14Y 3083   0.450   6.695  14.872 -1.0742  1.5419  1.1660
   24DOPE  C315 3084   0.657   6.764  14.875 -0.2796 -0.3045  0.5416
   24DOPE  H15X 3085   0.724   6.804  14.954  1.4975  0.0593 -1.0804
   24DOPE  H15Y 3086   0.647   6.856  14.815  1.7644 -1.5281 -1.8837
   24DOPE  C316 3087   0.735   6.654  14.793  0.2987 -0.0008  0.0857
   24DOPE  H16X 3088   0.670   6.571  14.757  1.3416  0.1562 -2.2958
   24DOPE  H16Y 3089   0.801   6.601  14.865 -0.7477 -0.4149  0.7776
   24DOPE  C317 3090   0.801   6.723  14.676 -0.0874  0.8296 -0.1408
   24DOPE  H17X 3091   0.734   6.758  14.595  0.0876 -1.1504 -1.2022
   24DOPE  H17Y 3092   0.871   6.802  14.711 -1.3237  0.6989  2.9318
   24DOPE  C318 3093   0.899   6.624  14.601 -0.2093  0.2958  1.0335
   24DOPE  H18X 3094   1.001   6.625  14.646 -0.3572 -0.1314  1.3901
   24DOPE  H18Y 3095   0.859   6.520  14.599  0.6856 -0.0885  1.8631
   24DOPE  H18Z 3096   0.907   6.661  14.497 -1.8990  0.4671  0.9472
   25DOPE     N 3097   0.982   5.748  17.109 -0.8502  0.6205 -0.2550
   25DOPE   HN1 3098   0.923   5.669  17.077 -0.6051  0.3820 -0.1275
   25DOPE   HN2 3099   1.079   5.710  17.113 -0.2526  1.9927 -0.9725
   25DOPE   HN3 3100   0.944   5.763  17.204 -1.1029  1.7342 -0.5151
   25DOPE   C12 3101   0.983   5.880  17.033  0.0875  0.0531 -0.3612
   25DOPE  H12A 3102   0.876   5.903  17.013 -0.4000 -2.1778 -0.5762
   25DOPE  H12B 3103   1.035   5.872  16.935 -0.1232 -0.5904 -0.4263
   25DOPE   C11 3104   1.050   5.995  17.116 -0.0310  0.0224  0.1666
   25DOPE  H11A 3105   0.991   5.993  17.210  0.1220 -0.4584  0.2548
   25DOPE  H11B 3106   1.034   6.092  17.065 -0.0508  0.1881  0.4888
   25DOPE     P 3107   1.303   6.025  17.077 -0.1843  0.0748  0.0178
   25DOPE   O13 3108   1.433   6.002  17.150  0.0941  0.1569 -0.2306
   25DOPE   O14 3109   1.277   6.165  17.040  0.3987  0.0118 -0.7210
   25DOPE   O11 3110   1.294   5.931  16.946 -0.0878 -0.5238  0.0750
   25DOPE   O12 3111   1.183   5.971  17.154 -0.7080 -0.6972 -0.0357
   25DOPE    C1 3112   1.389   5.826  16.930  0.0954 -0.2058 -0.1119
   25DOPE    HA 3113   1.366   5.756  17.013 -0.0414  0.3503  0.3252
   25DOPE    HB 3114   1.493   5.861  16.944 -0.8742  2.2879  1.6660
   25DOPE    C2 3115   1.374   5.752  16.799  0.3753  0.1063  0.4868
   25DOPE    HS 3116   1.456   5.677  16.793  0.7559  0.6163 -1.6609
   25DOPE   O21 3117   1.374   5.848  16.688  0.0029  0.4074 -0.4036
   25DOPE   C21 3118   1.490   5.914  16.674  0.3794  0.2563  0.5787
   25DOPE   O22 3119   1.594   5.891  16.736  0.2422 -0.3398  0.0595
   25DOPE   C22 3120   1.471   6.023  16.560 -0.3008 -0.1560 -0.2376
   25DOPE   H2R 3121   1.555   6.095  16.570  0.2785 -0.8115 -0.3238
   25DOPE   H2S 3122   1.372   6.069  16.580 -0.1500  0.4028 -0.7214
   25DOPE    C3 3123   1.235   5.686  16.806  0.1531  0.4260  0.6911
   25DOPE    HX 3124   1.160   5.767  16.817  1.3298  1.6367  0.0745
   25DOPE    HY 3125   1.226   5.622  16.897  2.1894  0.2911  0.8386
   25DOPE   O31 3126   1.197   5.603  16.687  0.1144 -0.4323 -0.1395
   25DOPE   C31 3127   1.116   5.665  16.594 -0.0352 -0.9637 -0.8482
   25DOPE   O32 3128   1.065   5.775  16.616  0.0676 -0.1788 -0.1082
   25DOPE   C32 3129   1.083   5.571  16.483  0.9795  0.3711 -0.3317
   25DOPE   H2X 3130   1.158   5.583  16.402  0.7106  1.9001 -0.3966
   25DOPE   H2Y 3131   1.092   5.465  16.514  1.2868  0.6390  0.5140
   25DOPE   C23 3132   1.469   5.969  16.408 -0.2995  0.0787  0.3212
   25DOPE   H3R 3133   1.447   5.861  16.418 -0.1584  0.0359  0.1605
   25DOPE   H3S 3134   1.574   5.969  16.373 -0.2250  3.2287  0.2318
   25DOPE   C24 3135   1.372   6.032  16.303  0.0183  0.0982 -0.8728
   25DOPE   H4R 3136   1.411   6.134  16.283 -0.6173  0.1934 -1.7147
   25DOPE   H4S 3137   1.269   6.039  16.345  0.4985  0.3179  0.3172
   25DOPE   C25 3138   1.369   5.958  16.170 -0.0948 -0.6058  0.1647
   25DOPE   H5R 3139   1.332   5.854  16.184  0.3729 -0.7686  0.2232
   25DOPE   H5S 3140   1.475   5.961  16.134  0.5431 -2.4800  1.7287
   25DOPE   C26 3141   1.263   6.016  16.081 -0.0364 -0.3534  0.3498
   25DOPE   H6R 3142   1.300   6.111  16.036 -1.0868 -0.0477  0.1034
   25DOPE   H6S 3143   1.176   6.036  16.148  0.8724 -1.3618  1.8784
   25DOPE   C27 3144   1.235   5.917  15.968  0.4793 -0.3544 -0.1075
   25DOPE   H7R 3145   1.183   5.833  16.018  1.4686  0.6614  2.7743
   25DOPE   H7S 3146   1.323   5.873  15.917 -0.8803 -0.1478 -2.8318
   25DOPE   C28 3147   1.138   5.968  15.865  0.2301  0.0437 -0.3536
   25DOPE   H8R 3148   1.049   6.010  15.916 -1.5323 -3.2699 -0.4733
   25DOPE   H8S 3149   1.103   5.879  15.809 -0.0853 -0.7387  1.0448
   25DOPE   C29 3150   1.202   6.064  15.770  0.6509 -0.0929 -0.4639
   25DOPE   H9R 3151   1.194   6.171  15.797 -2.1602 -0.4967  0.6456
   25DOPE  C210 3152   1.260   6.033  15.659 -0.0358 -0.2826  0.1926
   25DOPE  H10R 3153   1.305   6.105  15.589 -1.0293 -1.4650 -1.7632
   25DOPE  C211 3154   1.274   5.892  15.604 -0.4419 -0.8225  0.5291
   25DOPE  H11R 3155   1.229   5.819  15.675 -1.8811  0.0834  0.5862
   25DOPE  H11S 3156   1.377   5.853  15.603 -0.7260 -1.6244  1.2381
   25DOPE  C212 3157   1.200   5.876  15.465  0.2799 -0.2910 -0.2103
   25DOPE  H12R 3158   1.094   5.909  15.472  0.5143  0.4105  0.1395
   25DOPE  H12S 3159   1.201   5.771  15.430 -4.0505 -0.6261  0.0564
   25DOPE  C213 3160   1.277   5.955  15.354 -0.8520 -0.0240  0.0090
   25DOPE  H13R 3161   1.387   5.962  15.371 -0.8432 -0.4542  0.1451
   25DOPE  H13S 3162   1.247   6.061  15.348  1.3188  0.6282 -0.2812
   25DOPE  C214 3163   1.262   5.897  15.211 -0.7065 -0.1243 -0.2007
   25DOPE  H14R 3164   1.271   5.787  15.216  0.4871 -0.0075  0.6586
   25DOPE  H14S 3165   1.347   5.939  15.151 -0.6852 -1.0281 -0.8181
   25DOPE  C215 3166   1.133   5.943  15.149  0.4731  0.4950  0.1216
   25DOPE  H15R 3167   1.130   6.053  15.132 -1.0664  0.7127  1.5184
   25DOPE  H15S 3168   1.053   5.927  15.224 -0.2114  2.3231 -0.1676
   25DOPE  C216 3169   1.101   5.883  15.016 -0.2321  0.1453  0.4481
   25DOPE  H16R 3170   1.006   5.932  14.989  0.2246 -0.4413 -2.5332
   25DOPE  H16S 3171   1.074   5.775  15.020  0.4324  0.0026  1.7310
   25DOPE  C217 3172   1.216   5.894  14.907  0.3345  0.2715  0.1537
   25DOPE  H17R 3173   1.296   5.820  14.930  0.4266 -0.2123 -1.5531
   25DOPE  H17S 3174   1.263   5.994  14.913 -0.1925  0.5866 -0.7335
   25DOPE  C218 3175   1.159   5.881  14.768 -0.0799 -0.4192  0.0011
   25DOPE  H18R 3176   1.092   5.967  14.749  0.3100  0.3472  1.8647
   25DOPE  H18S 3177   1.099   5.788  14.754  0.6176 -0.8547 -0.2038
   25DOPE  H18T 3178   1.241   5.875  14.693 -0.5505 -3.2798 -0.4285
   25DOPE   C33 3179   0.942   5.598  16.431  0.6706 -0.7478  0.6101
   25DOPE   H3X 3180   0.927   5.701  16.392 -2.8012 -1.7312 -1.0589
   25DOPE   H3Y 3181   0.861   5.585  16.506 -0.2483 -0.6722 -0.3440
   25DOPE   C34 3182   0.911   5.526  16.295  0.1084 -0.0764 -0.6781
   25DOPE   H4X 3183   0.909   5.419  16.326  0.4561  0.5433  1.6699
   25DOPE   H4Y 3184   0.809   5.558  16.264  0.3503  1.4349  0.0191
   25DOPE   C35 3185   1.008   5.543  16.174  0.1326 -0.0031 -0.7663
   25DOPE   H5X 3186   1.108   5.502  16.202  0.0922  1.3232  1.6068
   25DOPE   H5Y 3187   1.036   5.649  16.158  2.5717 -0.4130  0.3029
   25DOPE   C36 3188   0.955   5.478  16.048 -0.2555 -0.3494 -0.0813
   25DOPE   H6X 3189   0.855   5.522  16.028  0.6021  1.2127 -1.1626
   25DOPE   H6Y 3190   0.938   5.368  16.050 -2.9876 -0.0221 -0.9100
   25DOPE   C37 3191   1.036   5.519  15.923  0.2733  0.6446 -0.1315
   25DOPE   H7X 3192   1.027   5.627  15.897 -1.0041  0.6249  0.1732
   25DOPE   H7Y 3193   1.142   5.503  15.949 -0.2013 -1.2938  0.7966
   25DOPE   C38 3194   1.005   5.437  15.791  0.0782 -0.1122 -0.4789
   25DOPE   H8X 3195   1.004   5.330  15.821  0.6078  0.2889  1.0703
   25DOPE   H8Y 3196   1.082   5.447  15.712 -1.0693 -1.3472 -1.8050
   25DOPE   C39 3197   0.861   5.468  15.751 -0.5151  0.2648  0.2150
   25DOPE   H9X 3198   0.789   5.436  15.827  0.8265  0.3368  1.5594
   25DOPE  C310 3199   0.826   5.517  15.631 -0.4383 -0.4668  0.1929
   25DOPE  H10X 3200   0.718   5.527  15.613 -0.5239 -1.4992  0.0940
   25DOPE  C311 3201   0.916   5.547  15.513  0.4209 -0.1760 -0.1394
   25DOPE  H11X 3202   0.923   5.657  15.502 -1.4855 -0.0257 -0.2125
   25DOPE  H11Y 3203   1.021   5.513  15.519 -0.3654 -2.5589  1.1985
   25DOPE  C312 3204   0.861   5.481  15.383 -0.6155  0.2685 -0.5054
   25DOPE  H12X 3205   0.832   5.375  15.393 -1.8815  0.8083  2.9753
   25DOPE  H12Y 3206   0.948   5.481  15.314  0.2300 -3.2168  0.3848
   25DOPE  C313 3207   0.742   5.563  15.330 -0.3943 -0.2806 -0.5474
   25DOPE  H13X 3208   0.678   5.492  15.274  0.0865 -2.1192  1.1257
   25DOPE  H13Y 3209   0.685   5.605  15.416  1.1698 -0.5952  0.7025
   25DOPE  C314 3210   0.796   5.686  15.261  0.0982 -0.3764  0.2696
   25DOPE  H14X 3211   0.865   5.646  15.184 -0.2081  0.8765 -0.7005
   25DOPE  H14Y 3212   0.863   5.738  15.333  2.0965 -1.8933 -0.4025
   25DOPE  C315 3213   0.688   5.780  15.210 -0.1579 -0.1813  0.9232
   25DOPE  H15X 3214   0.618   5.804  15.293 -0.4560  1.2476  0.2863
   25DOPE  H15Y 3215   0.625   5.746  15.126  0.1654  2.8933 -0.7235
   25DOPE  C316 3216   0.744   5.919  15.184  0.2706 -0.2703 -0.3293
   25DOPE  H16X 3217   0.801   5.910  15.089 -2.6515 -2.5800 -2.0447
   25DOPE  H16Y 3218   0.821   5.944  15.260 -0.8381 -0.5029  0.9149
   25DOPE  C317 3219   0.634   6.025  15.171 -0.8686  0.8909  0.0899
   25DOPE  H17X 3220   0.591   6.039  15.272 -0.9665  0.2090  0.1455
   25DOPE  H17Y 3221   0.674   6.126  15.148  1.1507  0.2933  0.7936
   25DOPE  C318 3222   0.517   5.989  15.072  0.0724  0.5152  0.8279
   25DOPE  H18X 3223   0.452   6.074  15.043 -1.4812 -0.4910  1.2612
   25DOPE  H18Y 3224   0.553   5.931  14.983  0.2784  2.5437 -0.4728
   25DOPE  H18Z 3225   0.446   5.927  15.131 -0.8953  0.9278  0.1213
   26DOPE     N 3226   1.732   6.007  17.128  0.1507 -0.0988  0.3068
   26DOPE   HN1 3227   1.631   5.984  17.119  0.3699 -2.4153  2.6072
   26DOPE   HN2 3228   1.764   5.935  17.195 -0.6262 -1.6733 -0.9487
   26DOPE   HN3 3229   1.744   6.101  17.170 -1.0504  0.6360 -0.9031
   26DOPE   C12 3230   1.786   5.981  16.994 -0.1787 -0.2907 -0.5550
   26DOPE  H12A 3231   1.747   5.883  16.959 -1.5219  0.2325 -0.5841
   26DOPE  H12B 3232   1.895   5.961  17.002  0.1689  0.6384 -2.3502
   26DOPE   C11 3233   1.751   6.100  16.909  0.1585 -0.0337  0.0800
   26DOPE  H11A 3234   1.640   6.105  16.900 -0.2075 -3.5110  1.1011
   26DOPE  H11B 3235   1.789   6.072  16.808 -0.0350 -0.0990  0.0240
   26DOPE     P 3236   1.945   6.282  16.932  0.0029 -0.1229 -0.1072
   26DOPE   O13 3237   2.041   6.184  16.985 -0.0682  1.0061  0.3228
   26DOPE   O14 3238   1.953   6.418  16.987 -0.2415 -0.5709  0.3091
   26DOPE   O11 3239   1.962   6.293  16.778 -0.1644  0.6159  0.0773
   26DOPE   O12 3240   1.797   6.228  16.958 -0.4150 -0.2086 -0.5150
   26DOPE    C1 3241   1.869   6.361  16.694 -0.2870  0.6979  0.1216
   26DOPE    HA 3242   1.840   6.456  16.743 -2.1792 -0.8602  2.2427
   26DOPE    HB 3243   1.783   6.290  16.685  1.0508 -1.2575  1.7346
   26DOPE    C2 3244   1.925   6.400  16.555  0.2254  0.2906  0.6764
   26DOPE    HS 3245   1.848   6.429  16.481  0.7057 -1.3271 -0.5215
   26DOPE   O21 3246   2.004   6.293  16.495 -0.2932  0.0154  0.7803
   26DOPE   C21 3247   1.925   6.189  16.454 -1.0051 -0.3566 -0.0483
   26DOPE   O22 3248   1.806   6.192  16.463 -0.5597  0.0965  0.1889
   26DOPE   C22 3249   2.019   6.073  16.420  0.2136 -0.0257 -0.3899
   26DOPE   H2R 3250   2.057   6.024  16.512 -2.9126  0.7595  1.4562
   26DOPE   H2S 3251   2.101   6.121  16.363  0.4080  0.3439  0.1951
   26DOPE    C3 3252   2.022   6.518  16.577  0.5619 -0.1718  0.4101
   26DOPE    HX 3253   2.098   6.480  16.648  1.0846 -2.2193 -1.1361
   26DOPE    HY 3254   1.969   6.604  16.622  0.4328 -1.5870  3.1604
   26DOPE   O31 3255   2.071   6.563  16.455 -0.4271  0.1531 -0.5579
   26DOPE   C31 3256   2.205   6.578  16.445  0.4114  0.2000 -0.2302
   26DOPE   O32 3257   2.282   6.557  16.537 -0.2860  0.2617  0.3905
   26DOPE   C32 3258   2.243   6.611  16.305  0.0397 -0.5450 -0.0213
   26DOPE   H2X 3259   2.340   6.566  16.274  0.2524 -1.6625  2.0907
   26DOPE   H2Y 3260   2.172   6.564  16.234 -0.1764  1.6556 -1.3722
   26DOPE   C23 3261   1.943   5.965  16.346  0.2947  0.2588 -0.2211
   26DOPE   H3R 3262   1.903   6.008  16.251 -0.9195  1.9598  0.9941
   26DOPE   H3S 3263   1.855   5.940  16.409 -1.9830 -1.5704 -3.7827
   26DOPE   C24 3264   2.027   5.843  16.315  0.0671 -0.1004  0.0815
   26DOPE   H4R 3265   2.059   5.804  16.414 -0.7729  2.0340  1.2588
   26DOPE   H4S 3266   2.118   5.876  16.259  0.6759 -0.3627  0.8931
   26DOPE   C25 3267   1.953   5.724  16.259  0.4271  0.1440 -0.3093
   26DOPE   H5R 3268   1.880   5.702  16.339  0.0446  0.4498 -0.5663
   26DOPE   H5S 3269   2.019   5.636  16.245 -0.2282 -0.1245 -2.0425
   26DOPE   C26 3270   1.870   5.744  16.131 -0.1576 -0.5503  0.8285
   26DOPE   H6R 3271   1.791   5.815  16.164 -1.1012 -1.1552 -0.0455
   26DOPE   H6S 3272   1.829   5.642  16.110 -0.0579 -0.6717  1.2050
   26DOPE   C27 3273   1.946   5.795  16.005  0.1808 -0.2241  0.8362
   26DOPE   H7R 3274   2.039   5.744  15.976  0.4173  0.0067  1.1767
   26DOPE   H7S 3275   1.969   5.902  16.024  1.4921 -0.7413  2.3167
   26DOPE   C28 3276   1.849   5.767  15.887  0.6436  0.0673 -0.0536
   26DOPE   H8R 3277   1.817   5.661  15.888  3.6515 -1.0153 -2.5208
   26DOPE   H8S 3278   1.905   5.782  15.792 -1.4431 -0.2550 -1.4055
   26DOPE   C29 3279   1.723   5.852  15.884 -0.4804  0.1625 -0.2332
   26DOPE   H9R 3280   1.673   5.859  15.982  0.3676 -1.5204  0.3555
   26DOPE  C210 3281   1.673   5.923  15.785  0.1238 -0.4592  0.3211
   26DOPE  H10R 3282   1.570   5.960  15.802  0.5150  0.8736 -0.0772
   26DOPE  C211 3283   1.728   5.939  15.647  0.5637 -0.0102 -0.6668
   26DOPE  H11R 3284   1.833   5.973  15.643 -0.5199  3.9631  0.1860
   26DOPE  H11S 3285   1.669   6.013  15.589 -0.9716 -1.0663 -0.5388
   26DOPE  C212 3286   1.707   5.814  15.564  0.1941 -0.3008 -0.3600
   26DOPE  H12R 3287   1.599   5.790  15.577  0.5710 -1.5110  0.8402
   26DOPE  H12S 3288   1.762   5.724  15.598 -2.7506 -2.5705 -1.1862
   26DOPE  C213 3289   1.726   5.839  15.412 -0.0488  0.7359  0.1867
   26DOPE  H13R 3290   1.678   5.937  15.389  0.4863  0.9655  0.0520
   26DOPE  H13S 3291   1.673   5.761  15.354  0.1572  0.5034  0.3118
   26DOPE  C214 3292   1.873   5.828  15.377  0.2397 -0.6508  0.3438
   26DOPE  H14R 3293   1.907   5.723  15.380  1.2071 -0.3874 -0.7211
   26DOPE  H14S 3294   1.931   5.897  15.443 -1.1335  0.5417  0.3595
   26DOPE  C215 3295   1.907   5.877  15.238  0.1227 -0.2877  0.1392
   26DOPE  H15R 3296   1.858   5.807  15.167 -0.4231  0.2591 -0.0319
   26DOPE  H15S 3297   2.015   5.880  15.211 -0.1315  2.8306 -0.9376
   26DOPE  C216 3298   1.868   6.025  15.200 -0.4517  0.3599  0.1737
   26DOPE  H16R 3299   1.758   6.031  15.207 -0.5420 -1.6281  1.2809
   26DOPE  H16S 3300   1.900   6.036  15.094 -1.3326 -2.1388 -0.4278
   26DOPE  C217 3301   1.930   6.134  15.286  0.1214  0.2700 -0.1613
   26DOPE  H17R 3302   2.037   6.103  15.287 -0.9333 -3.9352  0.3249
   26DOPE  H17S 3303   1.899   6.137  15.393 -2.2911  0.9187 -0.8194
   26DOPE  C218 3304   1.905   6.273  15.235  0.3518  0.2923  0.3372
   26DOPE  H18R 3305   1.798   6.296  15.254  0.4956  0.4521  0.9613
   26DOPE  H18S 3306   1.916   6.264  15.125 -1.5525 -0.5752  0.1808
   26DOPE  H18T 3307   1.969   6.356  15.270 -0.5282  1.3945 -0.6044
   26DOPE   C33 3308   2.255   6.763  16.273  0.0154 -0.1124 -0.7939
   26DOPE   H3X 3309   2.314   6.816  16.351  1.1058  0.0863 -1.7210
   26DOPE   H3Y 3310   2.152   6.805  16.279 -0.4006 -1.1286 -0.6354
   26DOPE   C34 3311   2.297   6.797  16.132  0.5314  0.0805  0.6771
   26DOPE   H4X 3312   2.296   6.907  16.120  0.6210  0.0235  0.0938
   26DOPE   H4Y 3313   2.396   6.758  16.100  1.2598  1.9137  0.6100
   26DOPE   C35 3314   2.207   6.735  16.026 -0.0717  0.7224 -0.0164
   26DOPE   H5X 3315   2.097   6.753  16.029 -0.2256  1.2455 -3.7426
   26DOPE   H5Y 3316   2.216   6.624  16.024 -1.2860  0.4660 -4.8760
   26DOPE   C36 3317   2.242   6.770  15.871 -0.6201  0.4668  0.3344
   26DOPE   H6X 3318   2.341   6.726  15.848  0.2135  1.9096  1.0559
   26DOPE   H6Y 3319   2.248   6.880  15.861 -3.1021  0.5173 -1.3173
   26DOPE   C37 3320   2.140   6.720  15.768 -0.1668 -0.2015  0.4928
   26DOPE   H7X 3321   2.136   6.609  15.768  0.2588 -0.3041 -2.8468
   26DOPE   H7Y 3322   2.040   6.751  15.804 -0.4479  0.2564 -0.6503
   26DOPE   C38 3323   2.159   6.764  15.622  0.2166 -0.3405  1.1947
   26DOPE   H8X 3324   2.269   6.767  15.605  0.2056 -0.8468  1.0059
   26DOPE   H8Y 3325   2.125   6.869  15.614 -0.7039 -0.6680  0.6367
   26DOPE   C39 3326   2.076   6.691  15.517  0.1143 -0.0257  0.0234
   26DOPE   H9X 3327   1.987   6.738  15.471  0.8569  0.2432 -1.1928
   26DOPE  C310 3328   2.109   6.565  15.475 -0.1366  0.4214 -0.0676
   26DOPE  H10X 3329   2.064   6.525  15.383  3.6655 -0.5375 -1.6935
   26DOPE  C311 3330   2.230   6.490  15.527 -0.1949 -0.1295  0.3350
   26DOPE  H11X 3331   2.276   6.538  15.616  0.8818  0.5129 -0.5384
   26DOPE  H11Y 3332   2.191   6.394  15.566  1.6799 -0.3248  1.9412
   26DOPE  C312 3333   2.328   6.461  15.412 -0.1391 -0.5044 -0.3334
   26DOPE  H12X 3334   2.289   6.406  15.324 -0.0497 -1.0093 -0.0652
   26DOPE  H12Y 3335   2.398   6.387  15.457  2.7000  2.3406  0.3450
   26DOPE  C313 3336   2.412   6.575  15.354  0.0495 -0.3863  0.4039
   26DOPE  H13X 3337   2.346   6.653  15.311  0.6592  2.1131  3.6091
   26DOPE  H13Y 3338   2.465   6.635  15.431 -0.7118  2.2033 -0.9915
   26DOPE  C314 3339   2.502   6.531  15.237 -0.1911 -0.2029 -0.6603
   26DOPE  H14X 3340   2.438   6.515  15.148 -1.7862  0.6081  0.2804
   26DOPE  H14Y 3341   2.550   6.433  15.259 -0.4877  0.1163  1.7068
   26DOPE  C315 3342   2.623   6.625  15.215 -0.5108  0.0212 -0.3154
   26DOPE  H15X 3343   2.688   6.622  15.306  0.4625  1.6616 -0.9151
   26DOPE  H15Y 3344   2.589   6.729  15.201  3.7744  1.4036 -2.1283
   26DOPE  C316 3345   2.712   6.597  15.090 -0.3466 -0.6354  1.1518
   26DOPE  H16X 3346   2.789   6.676  15.081 -0.8265 -0.3438 -0.9052
   26DOPE  H16Y 3347   2.645   6.607  15.002  0.1985 -2.0270  0.5595
   26DOPE  C317 3348   2.772   6.462  15.081 -0.0091  0.7997  0.4195
   26DOPE  H17X 3349   2.820   6.448  15.180  0.3015  1.0681  0.3068
   26DOPE  H17Y 3350   2.696   6.381  15.088 -0.1256  0.9183  0.5317
   26DOPE  C318 3351   2.873   6.430  14.968  0.0132  0.0080 -0.2065
   26DOPE  H18X 3352   2.891   6.321  14.963 -0.5092 -0.1530  1.0237
   26DOPE  H18Y 3353   2.815   6.459  14.878 -1.9778  1.7815  1.5164
   26DOPE  H18Z 3354   2.967   6.488  14.977 -1.0396  1.5849  1.4756
   27DOPE     N 3355   6.872   6.733  17.138  0.5470  0.7962 -0.6446
   27DOPE   HN1 3356   6.810   6.815  17.156  0.4976  0.9548 -1.4757
   27DOPE   HN2 3357   6.816   6.659  17.091 -2.7753  1.3420  2.1294
   27DOPE   HN3 3358   6.919   6.694  17.222  2.1834  1.1558 -1.3486
   27DOPE   C12 3359   6.982   6.787  17.048 -0.0677 -0.2801  0.1424
   27DOPE  H12A 3360   7.071   6.822  17.105  0.8978 -0.0816 -1.4260
   27DOPE  H12B 3361   6.935   6.873  16.997  0.6675 -0.8267 -1.5073
   27DOPE   C11 3362   7.037   6.682  16.955  0.3010 -1.1109  0.3994
   27DOPE  H11A 3363   7.134   6.720  16.916  0.1266 -0.1774  0.8587
   27DOPE  H11B 3364   6.972   6.670  16.866 -1.6335  2.0289  1.2307
   27DOPE     P 3365   7.007   6.424  16.982  0.5062 -0.1230  0.0892
   27DOPE   O13 3366   6.871   6.418  17.041 -0.7745 -0.5561 -0.1876
   27DOPE   O14 3367   7.105   6.320  17.024  0.1895 -0.4141  0.0949
   27DOPE   O11 3368   7.009   6.433  16.825  0.0543 -0.0242  0.1443
   27DOPE   O12 3369   7.059   6.566  17.026  0.1511  0.0670  0.5523
   27DOPE    C1 3370   7.127   6.413  16.752  0.0961  0.2209 -0.9160
   27DOPE    HA 3371   7.189   6.335  16.802 -0.9315 -0.5484 -0.8069
   27DOPE    HB 3372   7.195   6.501  16.746  1.2260 -0.4575  0.9429
   27DOPE    C2 3373   7.097   6.359  16.613  0.1902  0.2060 -0.4302
   27DOPE    HS 3374   7.182   6.305  16.567 -1.2087 -1.2683 -1.3881
   27DOPE   O21 3375   7.057   6.472  16.529 -0.1677 -0.3296  0.1235
   27DOPE   C21 3376   7.164   6.540  16.478  0.5412 -0.1493 -0.1649
   27DOPE   O22 3377   7.276   6.509  16.496  0.0657 -0.3880 -0.3468
   27DOPE   C22 3378   7.111   6.664  16.399  0.0379  0.7858  0.3962
   27DOPE   H2R 3379   7.066   6.731  16.476  0.9334 -0.2593  1.8809
   27DOPE   H2S 3380   7.048   6.634  16.313  1.0884  0.2360 -0.2016
   27DOPE    C3 3381   6.980   6.248  16.621 -0.4938 -0.3838 -0.5491
   27DOPE    HX 3382   6.912   6.276  16.704  1.2240  0.6459  0.5640
   27DOPE    HY 3383   7.031   6.158  16.660 -0.0223 -0.8361 -2.1318
   27DOPE   O31 3384   6.919   6.219  16.495 -0.7611  0.6388  0.1946
   27DOPE   C31 3385   6.807   6.290  16.476 -0.3861 -0.2044  0.0434
   27DOPE   O32 3386   6.757   6.362  16.564 -0.0079 -0.0208  0.3991
   27DOPE   C32 3387   6.752   6.260  16.342  0.0917 -0.0065 -0.4733
   27DOPE   H2X 3388   6.823   6.276  16.258  0.3580  0.1036 -0.2301
   27DOPE   H2Y 3389   6.723   6.153  16.346  1.3507 -0.3593 -0.3564
   27DOPE   C23 3390   7.227   6.752  16.343 -0.3146  0.5318 -0.0900
   27DOPE   H3R 3391   7.291   6.693  16.274 -2.3263 -1.4891 -0.3349
   27DOPE   H3S 3392   7.279   6.787  16.435  0.4593  1.4243 -0.8445
   27DOPE   C24 3393   7.179   6.863  16.242  0.2429  0.0872  0.0477
   27DOPE   H4R 3394   7.122   6.830  16.152  2.5598  1.5252 -2.0742
   27DOPE   H4S 3395   7.271   6.916  16.210 -0.7341  1.3073 -0.8822
   27DOPE   C25 3396   7.099   6.974  16.315 -0.2219 -0.1937  0.2182
   27DOPE   H5R 3397   7.138   6.991  16.417 -2.4631  0.9939  0.9432
   27DOPE   H5S 3398   6.997   6.932  16.327  0.5478 -1.6311  2.3563
   27DOPE   C26 3399   7.107   7.107  16.249  0.7635 -0.2137  0.2304
   27DOPE   H6R 3400   7.062   7.104  16.147  2.3608  2.8466 -0.6799
   27DOPE   H6S 3401   7.207   7.152  16.234 -0.6147  2.4653 -1.7941
   27DOPE   C27 3402   7.024   7.202  16.331  0.2295  0.2174  0.1045
   27DOPE   H7R 3403   7.073   7.223  16.429 -0.0739  2.6411 -0.1890
   27DOPE   H7S 3404   6.937   7.135  16.345  1.8186 -1.8673  0.4851
   27DOPE   C28 3405   6.985   7.332  16.272 -0.4198  0.2166  0.5227
   27DOPE   H8R 3406   6.914   7.374  16.346  1.8923  3.5114  1.1198
   27DOPE   H8S 3407   6.943   7.315  16.170  1.3706  0.9704 -0.3995
   27DOPE   C29 3408   7.104   7.426  16.267 -0.2212 -0.7490 -0.1374
   27DOPE   H9R 3409   7.167   7.427  16.357  0.6293 -1.5362 -0.7072
   27DOPE  C210 3410   7.150   7.492  16.161  0.9186 -0.0481  0.7741
   27DOPE  H10R 3411   7.251   7.535  16.167 -0.3490  3.4619 -0.5620
   27DOPE  C211 3412   7.105   7.496  16.016 -0.1415 -0.0429  0.5439
   27DOPE  H11R 3413   7.152   7.580  15.960  2.0549 -0.7663  1.1932
   27DOPE  H11S 3414   6.994   7.503  16.017 -0.0858  0.8280  1.8880
   27DOPE  C212 3415   7.141   7.373  15.925 -0.1669  0.0861 -0.2069
   27DOPE  H12R 3416   7.076   7.285  15.946 -2.2943  2.0567  2.1069
   27DOPE  H12S 3417   7.249   7.349  15.939  0.0690  0.9377 -0.5166
   27DOPE  C213 3418   7.122   7.411  15.774  0.0096  0.0461  0.1998
   27DOPE  H13R 3419   7.195   7.492  15.752 -2.8931  2.1715 -2.4913
   27DOPE  H13S 3420   7.030   7.473  15.764  0.4261  0.7433  0.5593
   27DOPE  C214 3421   7.138   7.296  15.674  0.0095  0.5598 -0.2128
   27DOPE  H14R 3422   7.130   7.346  15.575  0.3118 -0.1195 -0.5839
   27DOPE  H14S 3423   7.059   7.218  15.676 -0.1128  0.5116 -3.0142
   27DOPE  C215 3424   7.272   7.234  15.695 -0.0242  0.5065 -0.4241
   27DOPE  H15R 3425   7.262   7.179  15.791 -2.1038  2.8787  0.8232
   27DOPE  H15S 3426   7.353   7.308  15.711  0.4461  0.8243 -3.6456
   27DOPE  C216 3427   7.314   7.140  15.582  0.4663  0.2120 -0.1914
   27DOPE  H16R 3428   7.317   7.186  15.482  3.1626  2.3563  0.7489
   27DOPE  H16S 3429   7.237   7.061  15.572  0.2669  0.3431  0.2499
   27DOPE  C217 3430   7.442   7.073  15.605  0.4560  0.4812 -0.5677
   27DOPE  H17R 3431   7.447   7.042  15.711  0.7250 -0.3639 -0.8144
   27DOPE  H17S 3432   7.534   7.136  15.598  1.9968 -1.4944  0.7614
   27DOPE  C218 3433   7.462   6.945  15.520  0.0172  0.3699  0.3430
   27DOPE  H18R 3434   7.556   6.902  15.561 -0.8138  0.8862  3.0495
   27DOPE  H18S 3435   7.477   6.990  15.420  3.4862 -2.1565 -0.4664
   27DOPE  H18T 3436   7.378   6.872  15.515  2.0983 -2.2116  1.0358
   27DOPE   C33 3437   6.640   6.357  16.319  0.0147  0.3521 -0.0417
   27DOPE   H3X 3438   6.679   6.460  16.327  3.2646 -0.7620 -0.2921
   27DOPE   H3Y 3439   6.557   6.349  16.392  0.3025  0.4799  0.2984
   27DOPE   C34 3440   6.567   6.340  16.180 -0.3026 -0.7556  0.0887
   27DOPE   H4X 3441   6.541   6.233  16.160  1.1031 -1.1729  0.4168
   27DOPE   H4Y 3442   6.472   6.397  16.181  0.6243  0.8523 -0.0257
   27DOPE   C35 3443   6.649   6.383  16.057  0.2453  0.1519  0.6793
   27DOPE   H5X 3444   6.738   6.316  16.053  0.4849  0.3886 -3.9561
   27DOPE   H5Y 3445   6.697   6.484  16.059  3.3708 -1.2226  2.0030
   27DOPE   C36 3446   6.576   6.381  15.917 -0.1954  0.2711 -0.3717
   27DOPE   H6X 3447   6.484   6.441  15.934  0.2567  0.5208  1.4190
   27DOPE   H6Y 3448   6.552   6.273  15.904  1.8915 -0.3732  0.6620
   27DOPE   C37 3449   6.659   6.440  15.803  0.0359 -0.0892 -0.3489
   27DOPE   H7X 3450   6.643   6.550  15.810  3.6873  0.5729 -0.5819
   27DOPE   H7Y 3451   6.767   6.417  15.815 -0.1831 -0.3059  1.4919
   27DOPE   C38 3452   6.617   6.380  15.671  0.6730  0.1843  0.5325
   27DOPE   H8X 3453   6.507   6.373  15.667  0.7880 -3.3313 -2.8775
   27DOPE   H8Y 3454   6.651   6.274  15.670  0.4737  0.1207 -0.4071
   27DOPE   C39 3455   6.676   6.444  15.549  0.2763  0.1642 -0.0698
   27DOPE   H9X 3456   6.786   6.450  15.544  0.3278 -1.3736 -3.6306
   27DOPE  C310 3457   6.608   6.505  15.456 -0.2629 -0.0157 -0.0978
   27DOPE  H10X 3458   6.654   6.562  15.375 -0.8668  0.9327  0.2079
   27DOPE  C311 3459   6.458   6.515  15.447  0.2532 -0.2997 -0.0457
   27DOPE  H11X 3460   6.424   6.422  15.395 -0.0822 -0.2625  0.0992
   27DOPE  H11Y 3461   6.417   6.514  15.551  0.0750  1.3053 -0.0727
   27DOPE  C312 3462   6.401   6.641  15.383 -1.0222 -0.0721  0.0724
   27DOPE  H12X 3463   6.420   6.738  15.434 -1.2040  0.3499 -0.6438
   27DOPE  H12Y 3464   6.290   6.636  15.378 -0.9150 -2.0389 -2.6931
   27DOPE  C313 3465   6.440   6.655  15.231  0.5909 -0.3138  0.5898
   27DOPE  H13X 3466   6.550   6.670  15.226  0.5745 -0.6026 -3.0611
   27DOPE  H13Y 3467   6.405   6.561  15.184  0.0116 -0.1639  0.7113
   27DOPE  C314 3468   6.355   6.772  15.163  0.3651  0.8531  1.0619
   27DOPE  H14X 3469   6.249   6.742  15.158  0.8247 -0.7506 -0.1307
   27DOPE  H14Y 3470   6.388   6.789  15.058 -0.4693  3.8257  1.1889
   27DOPE  C315 3471   6.369   6.912  15.223  0.1045  0.4075 -0.5782
   27DOPE  H15X 3472   6.341   6.913  15.330 -0.3159 -1.7357 -0.6207
   27DOPE  H15Y 3473   6.285   6.966  15.174 -0.7140  1.7884  2.1434
   27DOPE  C316 3474   6.500   6.990  15.193 -0.3331  0.3236 -0.2805
   27DOPE  H16X 3475   6.527   6.985  15.085 -0.1843  0.0310 -0.2323
   27DOPE  H16Y 3476   6.580   6.940  15.252  0.5808  1.1403 -0.7890
   27DOPE  C317 3477   6.500   7.143  15.224  0.2513 -0.5355 -0.3090
   27DOPE  H17X 3478   6.404   7.184  15.186  0.2684  0.0145  0.2379
   27DOPE  H17Y 3479   6.496   7.154  15.334  1.6879  2.1413 -0.4413
   27DOPE  C318 3480   6.621   7.221  15.172  0.2132  0.2092  0.6033
   27DOPE  H18X 3481   6.712   7.174  15.216  0.5012  0.6870  0.5296
   27DOPE  H18Y 3482   6.619   7.221  15.061  1.2633 -3.8315  0.4194
   27DOPE  H18Z 3483   6.617   7.328  15.200 -1.3464  0.7091 -1.3253
   28DOPE     N 3484   1.218   6.930  16.793 -0.4046  0.7482 -0.2945
   28DOPE   HN1 3485   1.137   6.971  16.844 -0.3210 -0.8065  1.1561
   28DOPE   HN2 3486   1.313   6.940  16.834  0.2286 -0.5427 -1.3959
   28DOPE   HN3 3487   1.213   6.974  16.699 -3.3752 -0.1534 -0.6591
   28DOPE   C12 3488   1.183   6.782  16.778 -0.3461 -0.1126  0.4552
   28DOPE  H12A 3489   1.084   6.776  16.726  0.6386 -2.6047 -1.3410
   28DOPE  H12B 3490   1.173   6.742  16.881  2.6729  1.8130  1.6335
   28DOPE   C11 3491   1.288   6.700  16.695  0.0732 -0.1880 -0.2107
   28DOPE  H11A 3492   1.289   6.744  16.593 -1.6752  0.8967  0.1969
   28DOPE  H11B 3493   1.244   6.599  16.679 -1.6505  0.1226  1.9834
   28DOPE     P 3494   1.459   6.562  16.839  0.0737 -0.0805 -0.0962
   28DOPE   O13 3495   1.373   6.560  16.957 -0.1261  0.0697 -0.0003
   28DOPE   O14 3496   1.602   6.570  16.864 -0.8724 -0.8576  0.6430
   28DOPE   O11 3497   1.417   6.431  16.751  0.1642  0.2344 -0.2933
   28DOPE   O12 3498   1.420   6.698  16.752 -0.1860  0.1636  0.3356
   28DOPE    C1 3499   1.506   6.399  16.641  0.1742 -0.0120  0.3206
   28DOPE    HA 3500   1.504   6.289  16.632 -0.9342 -0.1759  2.1418
   28DOPE    HB 3501   1.609   6.440  16.649  0.3765 -0.7056  1.4446
   28DOPE    C2 3502   1.438   6.438  16.510  0.2662 -0.2023  0.0246
   28DOPE    HS 3503   1.403   6.544  16.515 -0.7706 -0.4921 -0.6499
   28DOPE   O21 3504   1.324   6.358  16.499 -0.0695  0.1547 -0.2417
   28DOPE   C21 3505   1.228   6.403  16.421  0.3596  0.4014  0.1393
   28DOPE   O22 3506   1.246   6.491  16.337  0.0974  0.8867  0.0299
   28DOPE   C22 3507   1.097   6.336  16.453  0.7487 -0.3735  0.8549
   28DOPE   H2R 3508   1.018   6.411  16.476 -0.1776 -0.9940 -0.1926
   28DOPE   H2S 3509   1.117   6.261  16.532  0.7104  0.7982  2.0077
   28DOPE    C3 3510   1.529   6.430  16.381  0.2132 -0.4310  0.5292
   28DOPE    HX 3511   1.471   6.431  16.286 -0.9963 -0.2348  1.2511
   28DOPE    HY 3512   1.585   6.334  16.385  0.8674 -0.0187  2.2891
   28DOPE   O31 3513   1.636   6.525  16.395  0.5753  0.6625  0.4871
   28DOPE   C31 3514   1.608   6.657  16.370  0.8792  0.4290 -0.1096
   28DOPE   O32 3515   1.500   6.702  16.337 -0.3802  0.0524 -0.0547
   28DOPE   C32 3516   1.742   6.733  16.372 -1.0899  0.4738  0.1194
   28DOPE   H2X 3517   1.769   6.763  16.475  2.3409 -0.3670 -0.4136
   28DOPE   H2Y 3518   1.827   6.661  16.364  0.7743  2.6152 -0.2935
   28DOPE   C23 3519   1.043   6.262  16.325  0.0640  0.0422 -0.3587
   28DOPE   H3R 3520   1.118   6.186  16.292 -0.3279 -1.5402  2.1158
   28DOPE   H3S 3521   1.043   6.343  16.249 -2.4068  1.1342  0.7150
   28DOPE   C24 3522   0.911   6.194  16.332  0.2202  0.2204 -0.0131
   28DOPE   H4R 3523   0.819   6.251  16.356 -0.1270  0.4853 -1.8256
   28DOPE   H4S 3524   0.911   6.114  16.410 -1.1688  0.0675 -0.1307
   28DOPE   C25 3525   0.875   6.133  16.196 -0.0374  0.1879 -0.0627
   28DOPE   H5R 3526   0.931   6.038  16.183 -3.0464 -1.5857 -0.8345
   28DOPE   H5S 3527   0.911   6.196  16.112  1.4986  0.9239  1.0984
   28DOPE   C26 3528   0.730   6.085  16.170 -0.8457 -0.4058  0.5669
   28DOPE   H6R 3529   0.722   6.088  16.059  4.5636  2.8910 -0.0871
   28DOPE   H6S 3530   0.663   6.153  16.227  3.4867  4.5430  0.5489
   28DOPE   C27 3531   0.709   5.938  16.204  0.6703 -0.4129  0.2124
   28DOPE   H7R 3532   0.758   5.920  16.302 -2.1145  1.2831  2.0657
   28DOPE   H7S 3533   0.752   5.874  16.124  0.6171 -1.1655  0.7878
   28DOPE   C28 3534   0.563   5.888  16.214 -0.7243 -0.3838  0.3271
   28DOPE   H8R 3535   0.526   5.937  16.307 -0.6825  1.2008 -0.4505
   28DOPE   H8S 3536   0.574   5.783  16.248 -3.4953 -0.9442 -0.2483
   28DOPE   C29 3537   0.453   5.899  16.107  0.2458 -0.0690 -0.7703
   28DOPE   H9R 3538   0.399   5.995  16.099 -1.1901 -0.7618  0.2483
   28DOPE  C210 3539   0.406   5.800  16.031 -0.8885 -0.0985 -0.0731
   28DOPE  H10R 3540   0.322   5.823  15.964 -0.7829  2.6471  0.6104
   28DOPE  C211 3541   0.452   5.650  16.025 -0.1852 -0.1099  0.1285
   28DOPE  H11R 3542   0.367   5.579  16.019  0.6430 -1.0090 -1.6122
   28DOPE  H11S 3543   0.522   5.630  16.108 -1.0756 -1.6364  0.5559
   28DOPE  C212 3544   0.535   5.598  15.902 -0.8901 -0.6567 -0.6549
   28DOPE  H12R 3545   0.594   5.511  15.939  0.4764  0.2435 -0.6500
   28DOPE  H12S 3546   0.599   5.683  15.872 -2.0200  1.3068  2.0716
   28DOPE  C213 3547   0.454   5.565  15.779 -0.3928 -0.2795 -0.3673
   28DOPE  H13R 3548   0.375   5.496  15.815 -0.0960 -0.5946 -0.3110
   28DOPE  H13S 3549   0.519   5.530  15.696 -0.7387 -0.0747 -0.7262
   28DOPE  C214 3550   0.365   5.674  15.729  0.0859  0.3270  0.5428
   28DOPE  H14R 3551   0.415   5.772  15.709 -0.7311  0.6528  0.0370
   28DOPE  H14S 3552   0.291   5.699  15.808 -1.0196  2.7339 -1.1203
   28DOPE  C215 3553   0.280   5.640  15.600 -0.8221 -0.3616  0.7935
   28DOPE  H15R 3554   0.207   5.720  15.579 -1.1951 -1.0716 -0.7549
   28DOPE  H15S 3555   0.232   5.542  15.620 -2.5998  0.5431  1.1543
   28DOPE  C216 3556   0.363   5.617  15.466  0.6169  0.6306 -0.1034
   28DOPE  H16R 3557   0.457   5.566  15.499  0.2383  0.2039  0.3356
   28DOPE  H16S 3558   0.387   5.706  15.404  0.8470 -0.0675 -1.0450
   28DOPE  C217 3559   0.281   5.526  15.358  0.5610 -0.5828 -0.1693
   28DOPE  H17R 3560   0.194   5.581  15.318  1.0381 -1.0561 -1.9562
   28DOPE  H17S 3561   0.245   5.441  15.420 -2.2577 -0.8364 -1.9787
   28DOPE  C218 3562   0.376   5.480  15.248  0.1315 -0.0544  0.7252
   28DOPE  H18R 3563   0.422   5.566  15.195 -1.8367  0.7818  0.2763
   28DOPE  H18S 3564   0.318   5.413  15.181  1.6548 -1.0570  0.3670
   28DOPE  H18T 3565   0.460   5.420  15.288  2.0336  2.2264  0.3535
   28DOPE   C33 3566   1.766   6.847  16.266  0.1037 -0.6642  0.0056
   28DOPE   H3X 3567   1.861   6.898  16.292 -0.6750  1.6700 -1.3579
   28DOPE   H3Y 3568   1.689   6.928  16.269  0.6960 -0.1023  0.4799
   28DOPE   C34 3569   1.771   6.797  16.124 -0.1485 -0.3595  0.3862
   28DOPE   H4X 3570   1.815   6.876  16.059  0.4076  0.9915  2.3359
   28DOPE   H4Y 3571   1.851   6.719  16.122  1.5053  1.2154  1.8024
   28DOPE   C35 3572   1.641   6.749  16.075  0.3094  0.4673  0.7549
   28DOPE   H5X 3573   1.556   6.810  16.115 -0.8028 -1.3295  1.2560
   28DOPE   H5Y 3574   1.616   6.649  16.117  1.8239 -0.2246  0.0461
   28DOPE   C36 3575   1.630   6.760  15.922 -0.3215 -0.0143  0.7034
   28DOPE   H6X 3576   1.660   6.862  15.889  1.3602 -0.6153  0.2462
   28DOPE   H6Y 3577   1.528   6.740  15.884  0.5300 -0.6597 -1.3945
   28DOPE   C37 3578   1.719   6.657  15.842  0.2537 -0.0907  0.6071
   28DOPE   H7X 3579   1.823   6.691  15.862  0.4892  0.2009 -1.0269
   28DOPE   H7Y 3580   1.698   6.558  15.888 -4.1948  0.7416  0.8448
   28DOPE   C38 3581   1.698   6.659  15.687  0.1278  0.2913 -0.4675
   28DOPE   H8X 3582   1.780   6.599  15.641  0.4637  0.2059  0.2270
   28DOPE   H8Y 3583   1.695   6.759  15.638 -0.3600 -0.1351 -1.3265
   28DOPE   C39 3584   1.567   6.597  15.664 -0.2006 -0.5348 -0.4630
   28DOPE   H9X 3585   1.495   6.611  15.745  1.2149 -3.7168  1.5316
   28DOPE  C310 3586   1.529   6.528  15.553  0.1749  1.0082 -0.7581
   28DOPE  H10X 3587   1.435   6.472  15.546  0.2663  0.6597  0.5609
   28DOPE  C311 3588   1.619   6.506  15.434 -0.0601  0.6343 -0.3009
   28DOPE  H11X 3589   1.725   6.530  15.457  0.1495 -2.1586  2.2021
   28DOPE  H11Y 3590   1.604   6.397  15.424 -0.9111  0.5388  1.6571
   28DOPE  C312 3591   1.571   6.573  15.302  0.5341  0.2298  0.4425
   28DOPE  H12X 3592   1.463   6.546  15.292  0.2057  1.4691  0.4315
   28DOPE  H12Y 3593   1.628   6.537  15.214  0.9771  0.7943  0.4962
   28DOPE  C313 3594   1.586   6.726  15.295  0.4435 -0.1857 -0.9307
   28DOPE  H13X 3595   1.511   6.764  15.222 -0.7312  1.9580  1.2639
   28DOPE  H13Y 3596   1.563   6.768  15.395 -0.0315  0.6630 -1.3877
   28DOPE  C314 3597   1.728   6.784  15.267 -0.1087  0.3009 -0.6477
   28DOPE  H14X 3598   1.783   6.779  15.364 -0.7163 -1.8812 -0.3559
   28DOPE  H14Y 3599   1.725   6.892  15.239 -1.5151  0.8626  1.4136
   28DOPE  C315 3600   1.811   6.704  15.164  0.8641  0.2967 -0.1811
   28DOPE  H15X 3601   1.740   6.700  15.079 -1.8417  2.4538  1.7837
   28DOPE  H15Y 3602   1.843   6.600  15.189  0.4934  0.0772 -0.5987
   28DOPE  C316 3603   1.946   6.767  15.122  0.6972 -1.3797 -0.2342
   28DOPE  H16X 3604   2.006   6.803  15.208  1.3478  1.6587 -1.7900
   28DOPE  H16Y 3605   1.914   6.857  15.064  0.6358  0.8034  2.9202
   28DOPE  C317 3606   2.028   6.667  15.039 -0.1111  0.1787 -0.7912
   28DOPE  H17X 3607   2.035   6.572  15.096  4.0272  1.2697  0.9403
   28DOPE  H17Y 3608   1.967   6.651  14.948  1.0320 -2.0281 -1.2368
   28DOPE  C318 3609   2.167   6.713  15.002 -0.4304 -0.4453 -0.2380
   28DOPE  H18X 3610   2.178   6.823  15.014  0.5890 -0.6919  1.5169
   28DOPE  H18Y 3611   2.244   6.676  15.073  2.4066  2.2932 -1.6389
   28DOPE  H18Z 3612   2.206   6.693  14.900  2.8730  2.4734  0.2619
   29DOPE     N 3613   0.611   1.229  16.887 -0.4676  0.8175 -0.5831
   29DOPE   HN1 3614   0.558   1.201  16.802  1.3062 -0.3160 -1.3805
   29DOPE   HN2 3615   0.569   1.313  16.932  1.7754  0.9517  1.4430
   29DOPE   HN3 3616   0.707   1.261  16.864 -0.1242  1.7238  1.8217
   29DOPE   C12 3617   0.610   1.114  16.982  0.0254 -0.6027 -0.1211
   29DOPE  H12A 3618   0.502   1.094  17.004  0.1949 -0.9026  0.4451
   29DOPE  H12B 3619   0.667   1.159  17.065 -0.9461  1.9246 -0.7233
   29DOPE   C11 3620   0.688   0.992  16.928  0.0921  0.7501  0.5381
   29DOPE  H11A 3621   0.642   0.964  16.831  1.1372  0.8877 -0.0080
   29DOPE  H11B 3622   0.667   0.903  16.992 -0.3938 -0.2218 -0.9249
   29DOPE     P 3623   0.932   0.961  17.021 -0.2550  0.3751  0.2600
   29DOPE   O13 3624   0.889   0.829  17.072 -0.4825  0.2509 -0.3512
   29DOPE   O14 3625   0.944   1.062  17.126  0.4550 -0.1509  0.1337
   29DOPE   O11 3626   1.066   0.946  16.936  0.2087 -0.3077  0.0698
   29DOPE   O12 3627   0.829   1.015  16.910  0.2458  0.1108  0.1293
   29DOPE    C1 3628   1.105   1.052  16.852 -0.1165 -0.6285 -0.0022
   29DOPE    HA 3629   1.209   1.081  16.881 -0.0945  0.7615 -1.3866
   29DOPE    HB 3630   1.044   1.143  16.869 -0.6147 -0.8751 -0.4401
   29DOPE    C2 3631   1.103   1.012  16.703 -0.7972 -0.4045  0.8858
   29DOPE    HS 3632   0.992   1.010  16.690 -0.6572 -0.6170 -0.4804
   29DOPE   O21 3633   1.179   0.896  16.679 -0.2565 -0.2214 -0.2288
   29DOPE   C21 3634   1.132   0.816  16.589 -0.4168 -0.7412 -0.4487
   29DOPE   O22 3635   1.026   0.817  16.532 -0.1900  0.2133  0.1103
   29DOPE   C22 3636   1.229   0.703  16.559 -0.2032 -0.2724  0.5347
   29DOPE   H2R 3637   1.186   0.627  16.489  1.3910  0.4085 -1.2627
   29DOPE   H2S 3638   1.243   0.662  16.661 -1.4705 -1.7151  0.1719
   29DOPE    C3 3639   1.169   1.119  16.603 -0.2277 -0.6891  0.3161
   29DOPE    HX 3640   1.278   1.120  16.625  0.1341 -0.4466 -1.3950
   29DOPE    HY 3641   1.123   1.215  16.634  2.0793  0.2710  0.9653
   29DOPE   O31 3642   1.138   1.086  16.464 -0.3185 -0.5258 -0.0134
   29DOPE   C31 3643   1.013   1.099  16.431  0.3405 -0.4172  0.3844
   29DOPE   O32 3644   0.919   1.132  16.504 -0.0763  0.1489  0.2324
   29DOPE   C32 3645   0.997   1.081  16.276 -0.2375 -0.1384  0.8091
   29DOPE   H2X 3646   0.911   1.142  16.242  0.3009  0.0609 -0.2706
   29DOPE   H2Y 3647   1.087   1.130  16.233 -0.6807 -1.1470 -1.4180
   29DOPE   C23 3648   1.365   0.745  16.494  0.0940  0.7527 -0.0238
   29DOPE   H3R 3649   1.430   0.655  16.498 -1.1707 -0.1543  0.9593
   29DOPE   H3S 3650   1.400   0.830  16.556  1.1936  0.9482 -0.8798
   29DOPE   C24 3651   1.341   0.805  16.355 -0.3058  0.3334  0.0912
   29DOPE   H4R 3652   1.420   0.881  16.337 -0.3440  0.0360 -1.4451
   29DOPE   H4S 3653   1.246   0.862  16.361  0.5756  1.9870 -0.8841
   29DOPE   C25 3654   1.354   0.716  16.226  0.3362  0.0594  0.2450
   29DOPE   H5R 3655   1.272   0.641  16.224 -1.6309  2.0376  1.4085
   29DOPE   H5S 3656   1.450   0.661  16.236 -0.1012 -0.4920  1.5012
   29DOPE   C26 3657   1.352   0.800  16.094 -0.5247  0.6725 -0.1762
   29DOPE   H6R 3658   1.454   0.845  16.097  0.7225 -1.9871  1.2520
   29DOPE   H6S 3659   1.258   0.858  16.086  0.0479  1.3996 -2.4304
   29DOPE   C27 3660   1.355   0.704  15.970 -0.2593 -0.6915 -0.3485
   29DOPE   H7R 3661   1.272   0.632  15.962  1.4298 -2.7935  0.2014
   29DOPE   H7S 3662   1.453   0.654  15.985  1.1213  1.8110 -0.4802
   29DOPE   C28 3663   1.355   0.773  15.832  0.1032 -0.1000 -0.7213
   29DOPE   H8R 3664   1.450   0.831  15.833  1.7086 -2.4728  2.0673
   29DOPE   H8S 3665   1.267   0.840  15.822  0.8121  0.8954 -0.4919
   29DOPE   C29 3666   1.358   0.688  15.714 -0.5111 -0.0138  0.3501
   29DOPE   H9R 3667   1.413   0.593  15.719  0.3989  0.4623 -0.2728
   29DOPE  C210 3668   1.277   0.694  15.609 -0.3306  0.8499  0.4489
   29DOPE  H10R 3669   1.300   0.619  15.532  1.2538 -0.6524  2.2677
   29DOPE  C211 3670   1.160   0.779  15.572  0.1427  0.4074 -0.9458
   29DOPE  H11R 3671   1.105   0.825  15.657 -0.5150 -1.2878 -0.4048
   29DOPE  H11S 3672   1.088   0.719  15.513  1.1649 -0.1229 -1.6856
   29DOPE  C212 3673   1.190   0.896  15.480 -0.6560  0.0629  0.3240
   29DOPE  H12R 3674   1.251   0.970  15.537  1.2810  0.4977 -2.1110
   29DOPE  H12S 3675   1.088   0.930  15.455 -1.0474 -1.5147 -0.3261
   29DOPE  C213 3676   1.257   0.869  15.340 -0.1333  0.4053 -0.2233
   29DOPE  H13R 3677   1.362   0.847  15.366  0.1894  3.0944  1.1679
   29DOPE  H13S 3678   1.247   0.952  15.267 -1.0686  0.2837 -0.2524
   29DOPE  C214 3679   1.203   0.743  15.269 -0.0923  0.1062 -0.6200
   29DOPE  H14R 3680   1.092   0.737  15.261  0.1076 -2.1516 -3.9663
   29DOPE  H14S 3681   1.228   0.657  15.335 -0.2030 -2.4431 -3.6379
   29DOPE  C215 3682   1.258   0.720  15.131 -0.4755  0.3716 -0.5215
   29DOPE  H15R 3683   1.228   0.806  15.068  0.1598  0.9946  0.0020
   29DOPE  H15S 3684   1.223   0.628  15.080  0.5491 -0.8378  0.8693
   29DOPE  C216 3685   1.409   0.703  15.125 -0.4264 -0.5112  0.5254
   29DOPE  H16R 3686   1.446   0.615  15.183  1.5397  0.0130  0.1630
   29DOPE  H16S 3687   1.466   0.794  15.156  0.4542 -1.4741  1.8726
   29DOPE  C217 3688   1.461   0.678  14.978 -0.3443  0.5231  1.6685
   29DOPE  H17R 3689   1.411   0.588  14.938  0.4696 -0.2009  2.2607
   29DOPE  H17S 3690   1.571   0.662  14.981 -0.2509  0.6935  0.1521
   29DOPE  C218 3691   1.433   0.802  14.890 -0.7172 -0.3622  0.2469
   29DOPE  H18R 3692   1.477   0.888  14.945 -0.0457 -1.7334  1.9479
   29DOPE  H18S 3693   1.325   0.810  14.868 -0.8591  0.6614  1.2340
   29DOPE  H18T 3694   1.487   0.795  14.793 -1.0930  1.1696 -0.1011
   29DOPE   C33 3695   0.969   0.935  16.222 -0.6361 -0.6176 -0.3315
   29DOPE   H3X 3696   0.892   0.891  16.289  1.1727 -0.7842  1.7581
   29DOPE   H3Y 3697   1.063   0.875  16.224 -0.2795 -0.0538  0.2991
   29DOPE   C34 3698   0.926   0.938  16.075  0.3623  0.5229 -0.5984
   29DOPE   H4X 3699   0.944   0.833  16.042  2.9322  1.2014 -1.6378
   29DOPE   H4Y 3700   0.816   0.951  16.070  0.2151 -0.5923 -0.3876
   29DOPE   C35 3701   0.988   1.036  15.972  0.0647  0.1728  0.6507
   29DOPE   H5X 3702   1.099   1.035  15.973  0.0643 -0.5194 -0.0503
   29DOPE   H5Y 3703   0.958   1.139  16.004  0.8444 -0.2623  3.0454
   29DOPE   C36 3704   0.939   1.023  15.828  0.4140  0.1591 -0.6403
   29DOPE   H6X 3705   0.830   1.039  15.844  0.1560 -1.0925 -1.0314
   29DOPE   H6Y 3706   0.952   0.917  15.798 -1.6785 -1.9328  4.7088
   29DOPE   C37 3707   0.989   1.139  15.734  0.3428 -0.1248 -0.5788
   29DOPE   H7X 3708   0.971   1.235  15.787 -2.3058 -0.3694 -0.8987
   29DOPE   H7Y 3709   1.096   1.112  15.721  0.3892 -0.4242  0.3403
   29DOPE   C38 3710   0.909   1.151  15.603 -0.1751 -0.2548 -0.1965
   29DOPE   H8X 3711   0.799   1.165  15.611 -0.0444  0.4008  0.5265
   29DOPE   H8Y 3712   0.922   1.058  15.543  0.3459  0.8552 -1.8961
   29DOPE   C39 3713   0.969   1.264  15.532 -0.2102 -0.2777 -0.5174
   29DOPE   H9X 3714   1.016   1.342  15.593  0.8314 -2.0495  1.0646
   29DOPE  C310 3715   0.976   1.282  15.401 -0.3004  0.5850  1.1792
   29DOPE  H10X 3716   1.015   1.376  15.358  1.7109 -0.5350  0.4285
   29DOPE  C311 3717   0.934   1.187  15.292  0.3667  0.6157 -0.2272
   29DOPE  H11X 3718   0.922   1.083  15.330  0.6805 -0.3661 -2.6250
   29DOPE  H11Y 3719   0.849   1.236  15.241  1.1985  0.3382 -1.9698
   29DOPE  C312 3720   1.046   1.168  15.188  0.1973  0.7931  0.1590
   29DOPE  H12X 3721   1.138   1.137  15.244 -0.8402 -2.3551  0.3233
   29DOPE  H12Y 3722   1.072   1.268  15.147  1.2425  1.2375  1.7884
   29DOPE  C313 3723   1.011   1.060  15.078  0.4848  0.8092  1.2368
   29DOPE  H13X 3724   1.006   0.959  15.123 -0.5749  0.6241  0.7339
   29DOPE  H13Y 3725   0.912   1.091  15.038  0.4585 -1.2664 -0.5114
   29DOPE  C314 3726   1.118   1.056  14.968 -0.1122  0.1344 -0.3591
   29DOPE  H14X 3727   1.214   1.019  15.010 -1.0565 -0.3445  1.5158
   29DOPE  H14Y 3728   1.139   1.158  14.932 -1.0563 -0.3307 -2.3454
   29DOPE  C315 3729   1.075   0.962  14.851 -0.1417 -0.0655 -0.7735
   29DOPE  H15X 3730   1.063   0.856  14.881 -0.4913  0.0118 -0.6391
   29DOPE  H15Y 3731   1.158   0.959  14.777  0.4579  2.0231 -0.2661
   29DOPE  C316 3732   0.940   1.004  14.780  0.5903 -0.0007  0.0448
   29DOPE  H16X 3733   0.943   1.104  14.734  0.9984  0.4063  0.9293
   29DOPE  H16Y 3734   0.861   1.022  14.856 -0.6819 -2.4053 -0.6099
   29DOPE  C317 3735   0.873   0.909  14.685 -0.0080  1.0484  0.0029
   29DOPE  H17X 3736   0.951   0.893  14.608 -0.7436  2.4100 -1.0587
   29DOPE  H17Y 3737   0.855   0.811  14.734  0.8790 -0.1993 -2.0322
   29DOPE  C318 3738   0.746   0.946  14.608  0.4777  0.2467  0.0600
   29DOPE  H18X 3739   0.755   1.048  14.564  0.4335  0.6476  0.9565
   29DOPE  H18Y 3740   0.719   0.870  14.532 -1.7280 -0.3540  1.3399
   29DOPE  H18Z 3741   0.663   0.956  14.681 -1.4074  0.4229 -2.0267
   30DOPE     N 3742   1.741   6.558  17.086 -0.5065 -0.0353  0.2427
   30DOPE   HN1 3743   1.686   6.587  17.002 -1.5763 -2.1005  0.1435
   30DOPE   HN2 3744   1.823   6.510  17.044  0.3405  2.3021 -0.9034
   30DOPE   HN3 3745   1.684   6.488  17.139 -1.9611  1.1818  0.3517
   30DOPE   C12 3746   1.786   6.679  17.168 -0.2495  0.7994  0.7467
   30DOPE  H12A 3747   1.888   6.668  17.211 -0.1263 -0.2536  0.1965
   30DOPE  H12B 3748   1.715   6.683  17.253  0.1251 -0.8353  1.1632
   30DOPE   C11 3749   1.771   6.815  17.096 -0.1790  0.3382 -0.1889
   30DOPE  H11A 3750   1.849   6.801  17.019 -0.0451 -0.6779  0.1117
   30DOPE  H11B 3751   1.800   6.899  17.163 -0.2303 -0.6402  1.1011
   30DOPE     P 3752   1.591   6.970  16.976 -0.1430  0.5012  0.0481
   30DOPE   O13 3753   1.625   7.081  17.070 -0.2431 -0.2671  0.9099
   30DOPE   O14 3754   1.455   6.954  16.927  0.2659  0.4240  0.4462
   30DOPE   O11 3755   1.690   6.977  16.851 -0.3280  0.5569  0.3627
   30DOPE   O12 3756   1.638   6.834  17.044  1.1841  0.2915 -0.3697
   30DOPE    C1 3757   1.813   7.044  16.833 -0.0071 -0.3180  0.1854
   30DOPE    HA 3758   1.882   6.986  16.767 -0.7838 -0.4373 -0.5326
   30DOPE    HB 3759   1.861   7.052  16.932  0.1812 -3.4727  0.4486
   30DOPE    C2 3760   1.785   7.187  16.775 -0.6279  0.6542 -0.9323
   30DOPE    HS 3761   1.725   7.248  16.846  0.8775  0.6909  0.3743
   30DOPE   O21 3762   1.710   7.179  16.658 -0.3451  0.6036  0.1659
   30DOPE   C21 3763   1.639   7.288  16.621 -0.8413  0.2831 -0.5514
   30DOPE   O22 3764   1.624   7.384  16.694 -0.2282  0.5110  0.3602
   30DOPE   C22 3765   1.569   7.274  16.484  0.0936  0.7992  0.0937
   30DOPE   H2R 3766   1.538   7.377  16.456 -1.9956  0.1919 -0.0005
   30DOPE   H2S 3767   1.487   7.202  16.500  0.4780 -0.1755 -1.9367
   30DOPE    C3 3768   1.913   7.262  16.741 -0.4024  0.1606  0.1034
   30DOPE    HX 3769   1.968   7.284  16.836 -0.9219  2.6288 -0.0925
   30DOPE    HY 3770   1.885   7.365  16.710 -0.2964  0.4148  0.8117
   30DOPE   O31 3771   1.979   7.178  16.644 -0.5885  0.2364  0.0585
   30DOPE   C31 3772   2.078   7.240  16.590 -1.0111 -0.4342  0.2885
   30DOPE   O32 3773   2.113   7.357  16.613 -0.1603 -0.0402  0.3217
   30DOPE   C32 3774   2.127   7.149  16.477  0.0876 -0.3488 -0.0423
   30DOPE   H2X 3775   2.224   7.100  16.501  0.4833 -0.2620 -1.4296
   30DOPE   H2Y 3776   2.050   7.075  16.448 -1.0223  1.3908 -1.7769
   30DOPE   C23 3777   1.660   7.230  16.371 -0.0611 -0.3199 -0.3720
   30DOPE   H3R 3778   1.732   7.148  16.391  2.4990  2.2740  1.9160
   30DOPE   H3S 3779   1.728   7.317  16.359  1.1698 -1.3358 -1.0701
   30DOPE   C24 3780   1.586   7.217  16.238  0.1830  0.7156  0.0341
   30DOPE   H4R 3781   1.518   7.304  16.225  0.3786  1.3685  2.7598
   30DOPE   H4S 3782   1.515   7.132  16.244  1.3814 -0.2078  2.7279
   30DOPE   C25 3783   1.676   7.183  16.121 -0.1351 -0.7664 -0.5003
   30DOPE   H5R 3784   1.741   7.096  16.140  1.0882  0.0489 -0.8358
   30DOPE   H5S 3785   1.747   7.268  16.115 -1.7979  0.6948 -0.5122
   30DOPE   C26 3786   1.598   7.166  15.988  0.9966 -0.4853 -0.5538
   30DOPE   H6R 3787   1.537   7.257  15.971  3.0488  1.9475  3.5470
   30DOPE   H6S 3788   1.529   7.081  16.002  0.9470 -0.2623  0.6876
   30DOPE   C27 3789   1.705   7.151  15.873  0.4754 -0.1011  0.4986
   30DOPE   H7R 3790   1.773   7.070  15.907  0.3562  0.6673  2.7340
   30DOPE   H7S 3791   1.762   7.244  15.852 -0.3781  0.4072  0.3848
   30DOPE   C28 3792   1.634   7.107  15.742  0.1062  0.0535  0.1071
   30DOPE   H8R 3793   1.581   7.198  15.706  0.9415  1.6721  2.6881
   30DOPE   H8S 3794   1.557   7.027  15.753  2.6882 -3.0467 -2.3753
   30DOPE   C29 3795   1.731   7.041  15.641 -0.9874 -0.4769 -0.2594
   30DOPE   H9R 3796   1.787   6.952  15.671 -1.9805 -0.8522  0.5211
   30DOPE  C210 3797   1.760   7.089  15.516  0.1179 -0.1106 -0.0245
   30DOPE  H10R 3798   1.833   7.036  15.452  0.9899 -0.7835  1.4855
   30DOPE  C211 3799   1.701   7.211  15.445 -0.2958  0.0367  0.4415
   30DOPE  H11R 3800   1.767   7.240  15.360  1.3391  1.6040  2.1596
   30DOPE  H11S 3801   1.710   7.296  15.516  2.0982 -0.7293  1.1693
   30DOPE  C212 3802   1.556   7.205  15.397  0.3366  0.1445  0.0018
   30DOPE  H12R 3803   1.493   7.197  15.488  0.0235  0.4913 -0.1830
   30DOPE  H12S 3804   1.538   7.111  15.342  0.6141 -0.7682  1.4108
   30DOPE  C213 3805   1.502   7.338  15.332  0.2151 -0.1146  0.4374
   30DOPE  H13R 3806   1.542   7.355  15.229 -0.3908  2.7582  0.6068
   30DOPE  H13S 3807   1.523   7.426  15.397  1.2624 -0.6033  0.7941
   30DOPE  C214 3808   1.353   7.344  15.298 -0.3899 -0.1482 -0.0867
   30DOPE  H14R 3809   1.298   7.327  15.394  0.6307 -0.6254  0.4261
   30DOPE  H14S 3810   1.321   7.260  15.234 -0.1802  1.3805 -2.3058
   30DOPE  C215 3811   1.300   7.471  15.234  0.4457 -0.5550  0.1217
   30DOPE  H15R 3812   1.341   7.496  15.134  3.0660  0.7346  1.4209
   30DOPE  H15S 3813   1.322   7.560  15.297 -0.1973 -0.7159  0.5789
   30DOPE  C216 3814   1.143   7.475  15.214  0.1801  0.4887  0.6571
   30DOPE  H16R 3815   1.090   7.453  15.309 -1.7274 -0.7052 -0.6156
   30DOPE  H16S 3816   1.124   7.386  15.150 -0.6074 -0.5687  2.2984
   30DOPE  C217 3817   1.093   7.600  15.145 -0.2207  0.5000  0.0942
   30DOPE  H17R 3818   1.159   7.625  15.059 -0.6179  1.4161  0.0499
   30DOPE  H17S 3819   1.100   7.689  15.211  1.7170 -1.2762  2.5155
   30DOPE  C218 3820   0.945   7.579  15.101  0.9677  0.8695 -0.2723
   30DOPE  H18R 3821   0.900   7.661  15.040 -0.7075  1.0929  1.1785
   30DOPE  H18S 3822   0.873   7.542  15.177  0.8096  1.4738 -0.1233
   30DOPE  H18T 3823   0.949   7.496  15.027 -1.1165 -0.9219  1.4670
   30DOPE   C33 3824   2.155   7.223  16.345 -0.3707  0.3726 -0.3775
   30DOPE   H3X 3825   2.255   7.272  16.350 -0.0272 -0.4149  1.5863
   30DOPE   H3Y 3826   2.083   7.306  16.330  0.0598  0.7255 -0.5105
   30DOPE   C34 3827   2.140   7.137  16.227 -0.2150  0.3542  1.0728
   30DOPE   H4X 3828   2.200   7.044  16.241 -2.0063 -1.1074 -0.3942
   30DOPE   H4Y 3829   2.036   7.103  16.208  0.0529  0.2563 -0.3427
   30DOPE   C35 3830   2.197   7.201  16.104  0.4357 -0.3843  0.0925
   30DOPE   H5X 3831   2.304   7.227  16.113  0.6101 -0.8136 -0.6365
   30DOPE   H5Y 3832   2.144   7.299  16.098  0.7832 -0.2694 -2.2717
   30DOPE   C36 3833   2.158   7.130  15.970  0.0063 -0.2518  0.0865
   30DOPE   H6X 3834   2.059   7.079  15.977  0.2790 -1.0544 -1.4967
   30DOPE   H6Y 3835   2.235   7.053  15.950 -0.0085  0.1075 -1.5100
   30DOPE   C37 3836   2.180   7.216  15.845 -0.1622 -0.4802 -0.0921
   30DOPE   H7X 3837   2.134   7.317  15.845 -0.4523 -0.3871  4.6756
   30DOPE   H7Y 3838   2.288   7.237  15.836 -0.2607 -0.0410 -0.2675
   30DOPE   C38 3839   2.126   7.146  15.719 -0.7439 -0.2439 -0.0870
   30DOPE   H8X 3840   2.032   7.097  15.751 -0.8116 -0.9687 -1.3169
   30DOPE   H8Y 3841   2.199   7.066  15.694 -2.0259 -0.7570 -2.5100
   30DOPE   C39 3842   2.116   7.246  15.605  0.1734  0.2976 -1.0739
   30DOPE   H9X 3843   2.056   7.336  15.623 -1.6885 -1.1483  0.4160
   30DOPE  C310 3844   2.174   7.244  15.486  0.0280  0.3655  0.2075
   30DOPE  H10X 3845   2.129   7.310  15.411 -1.7262  0.7012  1.4918
   30DOPE  C311 3846   2.267   7.141  15.429  1.0084  0.3844  0.1418
   30DOPE  H11X 3847   2.356   7.195  15.389  1.0914  0.1136 -0.0394
   30DOPE  H11Y 3848   2.304   7.074  15.510 -0.7131 -1.6254 -0.6645
   30DOPE  C312 3849   2.203   7.047  15.323 -0.8801 -0.7847  0.1840
   30DOPE  H12X 3850   2.109   7.010  15.370 -1.2917 -0.9302 -0.7414
   30DOPE  H12Y 3851   2.278   6.966  15.310  0.7540  0.8881 -1.4310
   30DOPE  C313 3852   2.175   7.120  15.188 -0.5876  0.3277 -0.5674
   30DOPE  H13X 3853   2.115   7.053  15.122  0.9815 -0.9601 -0.7469
   30DOPE  H13Y 3854   2.119   7.214  15.208  1.1635  1.1437  0.7920
   30DOPE  C314 3855   2.301   7.172  15.113  0.2166  0.8087 -0.4374
   30DOPE  H14X 3856   2.374   7.209  15.188 -3.7003  0.2566  4.1122
   30DOPE  H14Y 3857   2.265   7.254  15.048  1.0771  0.7102 -1.0638
   30DOPE  C315 3858   2.365   7.059  15.033 -0.2778 -0.0204 -0.1182
   30DOPE  H15X 3859   2.284   7.021  14.966 -0.0384  0.6198 -0.7816
   30DOPE  H15Y 3860   2.386   6.980  15.109 -0.4068  1.7418  1.8318
   30DOPE  C316 3861   2.490   7.111  14.955 -0.4271 -0.2840 -0.0821
   30DOPE  H16X 3862   2.578   7.143  15.014  1.2126 -0.5136 -2.2922
   30DOPE  H16Y 3863   2.460   7.197  14.893 -0.8241 -2.5292 -3.2574
   30DOPE  C317 3864   2.548   7.017  14.851  0.5713  0.5826  0.1181
   30DOPE  H17X 3865   2.595   6.935  14.910  0.3007 -0.0961 -0.5959
   30DOPE  H17Y 3866   2.472   6.993  14.774  0.2945 -0.9884  0.8354
   30DOPE  C318 3867   2.662   7.091  14.783  0.0131  0.8190  0.6784
   30DOPE  H18X 3868   2.720   7.158  14.849  0.6164  0.9326  0.0474
   30DOPE  H18Y 3869   2.734   7.018  14.740 -1.1220  0.5311 -0.8314
   30DOPE  H18Z 3870   2.626   7.158  14.701 -0.4711 -0.0705  0.1442
   31DOPE     N 3871   4.743   2.985  13.191 -0.3665 -0.2539 -0.3135
   31DOPE   HN1 3872   4.823   2.994  13.257 -1.2376 -2.0930  1.0807
   31DOPE   HN2 3873   4.718   2.887  13.167 -1.9145 -0.2848  1.2498
   31DOPE   HN3 3874   4.761   3.034  13.100 -0.9388 -1.3252 -1.0276
   31DOPE   C12 3875   4.629   3.045  13.266 -0.0240  0.1739 -0.6224
   31DOPE  H12A 3876   4.649   3.152  13.292  0.7358 -0.1718  0.2818
   31DOPE  H12B 3877   4.610   2.983  13.356  3.0049 -1.4695 -0.9714
   31DOPE   C11 3878   4.501   3.045  13.183 -0.5928 -0.0826  0.6337
   31DOPE  H11A 3879   4.415   3.083  13.243 -0.8725 -2.1819  1.6487
   31DOPE  H11B 3880   4.480   2.940  13.152  2.4304  0.0609 -2.4345
   31DOPE     P 3881   4.390   3.163  12.969  0.2222 -0.2360  0.2170
   31DOPE   O13 3882   4.265   3.156  13.036  0.1736  0.3331 -0.0680
   31DOPE   O14 3883   4.403   3.095  12.841 -0.6490  0.6332  0.6264
   31DOPE   O11 3884   4.426   3.318  12.934 -0.5238 -0.0913 -0.1586
   31DOPE   O12 3885   4.513   3.113  13.057  0.2502  0.3886  0.3282
   31DOPE    C1 3886   4.541   3.375  12.993  0.2664 -0.0403  0.5158
   31DOPE    HA 3887   4.560   3.465  12.930  0.7167 -0.9094 -0.6209
   31DOPE    HB 3888   4.631   3.311  12.994 -0.6672 -1.3954  0.5560
   31DOPE    C2 3889   4.519   3.432  13.133 -0.0029 -0.0675 -1.0030
   31DOPE    HS 3890   4.511   3.347  13.204 -2.5271  0.3225 -0.7333
   31DOPE   O21 3891   4.409   3.524  13.132  0.3015  0.3700 -0.2322
   31DOPE   C21 3892   4.349   3.542  13.248  0.1133 -0.0570  0.1757
   31DOPE   O22 3893   4.361   3.475  13.346 -0.3948 -0.1584 -0.2146
   31DOPE   C22 3894   4.277   3.684  13.233  0.2610 -0.2350  0.3752
   31DOPE   H2R 3895   4.262   3.708  13.126  0.7355 -2.4867 -0.2453
   31DOPE   H2S 3896   4.352   3.757  13.271  0.8731 -1.4681  1.6695
   31DOPE    C3 3897   4.650   3.504  13.165 -0.0869 -0.1905 -0.0908
   31DOPE    HX 3898   4.676   3.585  13.093  1.2317 -0.1243  0.4226
   31DOPE    HY 3899   4.730   3.427  13.157  0.0804 -0.2776  1.9352
   31DOPE   O31 3900   4.658   3.580  13.291 -0.1604  0.6940 -0.2830
   31DOPE   C31 3901   4.653   3.502  13.399 -0.3828 -0.2533 -0.1279
   31DOPE   O32 3902   4.657   3.382  13.407  0.0676  0.1444  0.2414
   31DOPE   C32 3903   4.642   3.592  13.518  0.4856  0.4390 -0.1182
   31DOPE   H2X 3904   4.749   3.614  13.541  0.3599  0.5204  0.3988
   31DOPE   H2Y 3905   4.585   3.685  13.495 -0.1651 -0.2938 -1.5714
   31DOPE   C23 3906   4.169   3.704  13.335  0.7438  0.3781 -0.6723
   31DOPE   H3R 3907   4.095   3.622  13.338  0.6039  0.5449  1.3714
   31DOPE   H3S 3908   4.113   3.796  13.308  0.8333  0.7380  0.3231
   31DOPE   C24 3909   4.219   3.740  13.477  0.0720  0.1715 -0.8461
   31DOPE   H4R 3910   4.294   3.822  13.468  0.7122 -0.4128 -0.8828
   31DOPE   H4S 3911   4.269   3.651  13.519  0.0731 -0.6025 -2.4009
   31DOPE   C25 3912   4.101   3.789  13.572 -0.0845  0.6196  0.9219
   31DOPE   H5R 3913   4.020   3.713  13.574  0.7421 -0.3234 -0.1267
   31DOPE   H5S 3914   4.060   3.880  13.524  1.0305  1.4622  1.5111
   31DOPE   C26 3915   4.130   3.834  13.717 -0.2409 -0.0689  0.2746
   31DOPE   H6R 3916   4.044   3.888  13.762 -0.0966 -0.2574  0.7843
   31DOPE   H6S 3917   4.219   3.900  13.717 -1.5141  1.7378  0.9632
   31DOPE   C27 3918   4.162   3.706  13.802  1.0804 -0.3417 -0.3993
   31DOPE   H7R 3919   4.245   3.643  13.765  0.6667  0.0573 -2.1150
   31DOPE   H7S 3920   4.072   3.644  13.784 -0.3690  1.6030 -0.2630
   31DOPE   C28 3921   4.178   3.740  13.954  0.5683  0.3532  0.1428
   31DOPE   H8R 3922   4.095   3.804  13.991  1.2893  0.8252  0.9832
   31DOPE   H8S 3923   4.271   3.792  13.985 -0.2537  1.0856  1.4548
   31DOPE   C29 3924   4.170   3.612  14.024  0.0969  0.2031 -1.5283
   31DOPE   H9R 3925   4.114   3.541  13.961 -1.1547 -0.1613 -0.0754
   31DOPE  C210 3926   4.206   3.582  14.152  0.5563 -0.3294 -0.7902
   31DOPE  H10R 3927   4.169   3.485  14.187 -3.3498  1.9623  2.1787
   31DOPE  C211 3928   4.266   3.683  14.249 -0.1552 -0.9323 -0.3049
   31DOPE  H11R 3929   4.293   3.772  14.190  2.2069 -1.7229 -0.5034
   31DOPE  H11S 3930   4.366   3.653  14.287  0.2130  0.3228 -0.2483
   31DOPE  C212 3931   4.167   3.716  14.369  0.0294 -0.2071  0.0529
   31DOPE  H12R 3932   4.224   3.726  14.464 -2.1440 -0.4922  1.4526
   31DOPE  H12S 3933   4.096   3.633  14.387 -4.2608  2.6305 -2.0457
   31DOPE  C213 3934   4.090   3.846  14.348 -0.1278 -0.2844 -0.5259
   31DOPE  H13R 3935   4.039   3.838  14.249 -1.3087 -1.8486  0.1588
   31DOPE  H13S 3936   4.167   3.925  14.338  0.2480 -0.3241  1.6018
   31DOPE  C214 3937   3.985   3.875  14.454 -0.1529 -0.0930  0.0078
   31DOPE  H14R 3938   3.960   3.983  14.451 -0.2068  0.0366  2.4743
   31DOPE  H14S 3939   4.029   3.852  14.554  0.5775 -0.5686 -0.4130
   31DOPE  C215 3940   3.857   3.793  14.437 -1.0257 -0.1539  0.4631
   31DOPE  H15R 3941   3.877   3.685  14.423  0.6279  0.2226 -0.3744
   31DOPE  H15S 3942   3.836   3.829  14.334  1.3323  1.5578  0.4892
   31DOPE  C216 3943   3.742   3.821  14.530  0.2103  0.1619 -0.1922
   31DOPE  H16R 3944   3.713   3.928  14.527 -0.5635 -0.0603 -1.8197
   31DOPE  H16S 3945   3.768   3.786  14.632  0.0876 -2.7699 -1.0708
   31DOPE  C217 3946   3.619   3.737  14.500  0.4954 -0.7099  0.0096
   31DOPE  H17R 3947   3.568   3.714  14.596  0.3802 -0.5815 -0.0196
   31DOPE  H17S 3948   3.651   3.644  14.449  0.6238  0.1978 -1.6218
   31DOPE  C218 3949   3.524   3.810  14.405 -0.6431 -0.5960  0.1158
   31DOPE  H18R 3950   3.508   3.915  14.439 -1.0441 -0.5086 -0.3324
   31DOPE  H18S 3951   3.425   3.763  14.393 -0.8154 -0.8084  2.0923
   31DOPE  H18T 3952   3.569   3.820  14.304 -0.4022 -1.3352  0.1461
   31DOPE   C33 3953   4.581   3.537  13.646  0.3675  0.1178 -0.0635
   31DOPE   H3X 3954   4.651   3.459  13.681  1.0315  0.0668 -1.4183
   31DOPE   H3Y 3955   4.482   3.493  13.621 -0.1551  1.6029 -0.7494
   31DOPE   C34 3956   4.572   3.646  13.756 -0.4328  0.3533 -0.0051
   31DOPE   H4X 3957   4.675   3.687  13.770  0.3881 -0.8507 -1.9941
   31DOPE   H4Y 3958   4.511   3.724  13.706  2.6742  2.2031 -1.2019
   31DOPE   C35 3959   4.516   3.595  13.884  0.8427  0.8630  0.5019
   31DOPE   H5X 3960   4.425   3.535  13.860 -0.1895  2.3622  0.5388
   31DOPE   H5Y 3961   4.472   3.676  13.946 -4.5921 -0.1004 -1.5343
   31DOPE   C36 3962   4.614   3.511  13.956 -0.1514 -0.8274  0.1609
   31DOPE   H6X 3963   4.696   3.583  13.974 -0.7391 -0.2822  0.7506
   31DOPE   H6Y 3964   4.658   3.426  13.900  1.2775  0.6610 -1.0847
   31DOPE   C37 3965   4.586   3.462  14.100 -0.2246  0.4953  0.5440
   31DOPE   H7X 3966   4.677   3.480  14.161 -0.9979  2.6611  1.1486
   31DOPE   H7Y 3967   4.502   3.525  14.137 -0.2342 -0.8130  2.9969
   31DOPE   C38 3968   4.555   3.311  14.097  0.6445  0.3525  0.2469
   31DOPE   H8X 3969   4.492   3.295  14.007  1.4365 -1.3857 -0.0496
   31DOPE   H8Y 3970   4.502   3.284  14.191  0.5105 -1.5757 -0.3325
   31DOPE   C39 3971   4.685   3.232  14.086  0.0376  0.7513  0.3312
   31DOPE   H9X 3972   4.719   3.212  13.984 -0.0038 -1.9436  0.7588
   31DOPE  C310 3973   4.771   3.202  14.189  0.3543 -0.5951  0.2245
   31DOPE  H10X 3974   4.854   3.136  14.162  0.3535 -0.9024  0.9653
   31DOPE  C311 3975   4.756   3.233  14.338  0.3444 -0.6334 -0.0511
   31DOPE  H11X 3976   4.832   3.311  14.358  0.4379 -0.6119 -0.4771
   31DOPE  H11Y 3977   4.659   3.283  14.362  0.0563 -1.6127  0.8800
   31DOPE  C312 3978   4.781   3.103  14.424  0.7148  0.2595  1.0613
   31DOPE  H12X 3979   4.873   3.050  14.390 -0.0703 -0.4848  0.0521
   31DOPE  H12Y 3980   4.701   3.027  14.411  2.3507 -1.0798 -2.9635
   31DOPE  C313 3981   4.804   3.128  14.571  0.2772 -0.5404 -0.4539
   31DOPE  H13X 3982   4.835   3.035  14.624 -1.4471 -0.3996  0.9202
   31DOPE  H13Y 3983   4.885   3.203  14.576  0.3129 -0.6342  0.6865
   31DOPE  C314 3984   4.690   3.186  14.656  0.5655  0.8176 -0.1686
   31DOPE  H14X 3985   4.598   3.125  14.639  2.2500 -1.8276 -0.4413
   31DOPE  H14Y 3986   4.679   3.292  14.627 -0.0274  0.8878  0.3022
   31DOPE  C315 3987   4.728   3.199  14.798  0.4603  0.4191 -0.3999
   31DOPE  H15X 3988   4.811   3.273  14.806  1.0529 -0.3388  0.8851
   31DOPE  H15Y 3989   4.772   3.103  14.834 -1.3076  0.2849  1.6608
   31DOPE  C316 3990   4.605   3.235  14.893 -0.6351  0.4936 -0.4529
   31DOPE  H16X 3991   4.521   3.162  14.889 -0.1670 -0.2294  1.5329
   31DOPE  H16Y 3992   4.569   3.338  14.871 -0.0401  1.3849  2.3200
   31DOPE  C317 3993   4.657   3.243  15.032  0.5749  0.0434  0.2243
   31DOPE  H17X 3994   4.743   3.312  15.045 -0.6404  1.7333 -0.2916
   31DOPE  H17Y 3995   4.569   3.271  15.095 -0.5860 -0.8040 -0.9655
   31DOPE  C318 3996   4.691   3.106  15.092  0.0682 -0.3941  0.0592
   31DOPE  H18X 3997   4.778   3.051  15.050 -0.0273 -2.3404  2.1972
   31DOPE  H18Y 3998   4.720   3.120  15.199 -1.2159  1.0209  0.2454
   31DOPE  H18Z 3999   4.606   3.038  15.115 -0.9759  0.9728  0.3595
   32DOPE     N 4000   5.952   2.059  12.860  0.0172  0.3218  0.2418
   32DOPE   HN1 4001   5.933   1.967  12.815  2.2636 -0.0413 -0.0756
   32DOPE   HN2 4002   6.019   2.111  12.799  1.6387 -3.2908 -1.3372
   32DOPE   HN3 4003   6.000   2.037  12.949  1.7767 -0.7148 -0.8962
   32DOPE   C12 4004   5.821   2.128  12.877  0.2495  0.2629 -0.3541
   32DOPE  H12A 4005   5.754   2.067  12.942  1.9461 -0.8197  0.4486
   32DOPE  H12B 4006   5.768   2.122  12.779  1.6570 -1.3136 -1.0681
   32DOPE   C11 4007   5.842   2.264  12.947  0.5410 -0.7299  0.3146
   32DOPE  H11A 4008   5.877   2.261  13.053 -1.1144 -0.0842  0.9188
   32DOPE  H11B 4009   5.737   2.301  12.941  0.5746 -0.6597  0.1666
   32DOPE     P 4010   6.067   2.383  12.893 -0.1519  0.0042  0.2697
   32DOPE   O13 4011   6.127   2.490  12.806  0.2858  0.0104 -0.9834
   32DOPE   O14 4012   6.136   2.256  12.904 -0.4447 -0.5041 -0.2925
   32DOPE   O11 4013   6.070   2.435  13.048  0.4081  0.1896  0.3206
   32DOPE   O12 4014   5.915   2.367  12.878  0.1807 -0.0194  0.2520
   32DOPE    C1 4015   6.017   2.571  13.062  0.1393 -0.7071 -0.2071
   32DOPE    HA 4016   5.924   2.587  13.004 -0.1518  1.0056  0.6441
   32DOPE    HB 4017   6.098   2.645  13.040 -2.8336  3.8090  2.3217
   32DOPE    C2 4018   5.973   2.604  13.209 -0.0759 -0.1148  0.5283
   32DOPE    HS 4019   5.950   2.712  13.215  0.7838  0.0517  1.0958
   32DOPE   O21 4020   6.082   2.562  13.291 -0.6374  0.7651  0.3578
   32DOPE   C21 4021   6.189   2.640  13.292 -0.4311 -0.4155 -0.8570
   32DOPE   O22 4022   6.193   2.749  13.236 -0.0376  0.6119 -0.3942
   32DOPE   C22 4023   6.289   2.587  13.395 -0.6634 -0.3008  0.3392
   32DOPE   H2R 4024   6.235   2.539  13.479  0.2798 -0.1849  1.0273
   32DOPE   H2S 4025   6.336   2.685  13.418 -2.3427  1.0129 -1.5593
   32DOPE    C3 4026   5.850   2.529  13.254  0.0229  0.9203 -0.5233
   32DOPE    HX 4027   5.878   2.429  13.215  2.2026  1.1442  0.3472
   32DOPE    HY 4028   5.763   2.565  13.195  0.8827  1.7339 -1.3258
   32DOPE   O31 4029   5.823   2.536  13.395 -0.5707 -0.1577  0.4622
   32DOPE   C31 4030   5.869   2.435  13.468 -0.0404 -0.6187 -0.1696
   32DOPE   O32 4031   5.910   2.328  13.431 -0.1915 -0.3978 -0.1786
   32DOPE   C32 4032   5.849   2.460  13.616 -0.1981 -0.2606  0.6153
   32DOPE   H2X 4033   5.848   2.569  13.640  0.9811 -0.2201  0.5355
   32DOPE   H2Y 4034   5.747   2.423  13.639 -0.8515  0.0193 -1.5988
   32DOPE   C23 4035   6.402   2.501  13.342 -0.3546 -0.5165 -0.1000
   32DOPE   H3R 4036   6.436   2.559  13.253 -2.3693  1.8634  0.5542
   32DOPE   H3S 4037   6.364   2.401  13.314 -1.4641 -0.2714  0.4811
   32DOPE   C24 4038   6.514   2.479  13.436  0.0432  0.4482  0.3141
   32DOPE   H4R 4039   6.583   2.408  13.386 -1.1094 -2.8109  2.9460
   32DOPE   H4S 4040   6.480   2.430  13.530 -1.7413  1.4297  0.2357
   32DOPE   C25 4041   6.588   2.606  13.460 -0.2033 -0.3633  0.1602
   32DOPE   H5R 4042   6.527   2.699  13.469 -0.0858 -0.2645 -0.0526
   32DOPE   H5S 4043   6.639   2.610  13.361  1.5198 -2.1671  0.9130
   32DOPE   C26 4044   6.692   2.586  13.566 -0.0651  0.1371  0.2087
   32DOPE   H6R 4045   6.752   2.496  13.540  0.1896  0.3686 -0.0105
   32DOPE   H6S 4046   6.643   2.566  13.664 -1.1488 -0.1149 -0.3705
   32DOPE   C27 4047   6.793   2.700  13.581  0.1704 -0.1220  0.0582
   32DOPE   H7R 4048   6.730   2.791  13.589 -1.2463 -1.2619  2.9924
   32DOPE   H7S 4049   6.847   2.699  13.484  0.3614  0.5958  0.1440
   32DOPE   C28 4050   6.909   2.684  13.683 -0.5726 -0.1313 -0.7545
   32DOPE   H8R 4051   6.967   2.591  13.665 -0.9261 -0.7742  1.1848
   32DOPE   H8S 4052   6.866   2.679  13.785 -1.4789 -0.2658 -1.1388
   32DOPE   C29 4053   7.015   2.789  13.676 -0.0265 -0.7684  0.2756
   32DOPE   H9R 4054   6.968   2.887  13.692  0.3777 -0.4740 -0.3035
   32DOPE  C210 4055   7.150   2.788  13.645 -0.2127  0.9671  0.1247
   32DOPE  H10R 4056   7.205   2.883  13.638 -0.9502  1.2886 -1.8989
   32DOPE  C211 4057   7.239   2.676  13.599 -0.3020 -0.5992 -0.2731
   32DOPE  H11R 4058   7.277   2.695  13.497  0.6546  2.5389  0.5634
   32DOPE  H11S 4059   7.182   2.580  13.601  1.2633 -1.5718 -0.6169
   32DOPE  C212 4060   7.366   2.657  13.689 -0.4132 -0.0616  1.0232
   32DOPE  H12R 4061   7.349   2.638  13.797  1.3921 -0.4592  1.2811
   32DOPE  H12S 4062   7.421   2.753  13.687 -1.4031  0.4988  0.1432
   32DOPE  C213 4063   7.462   2.544  13.645  0.7677  0.1370  0.4044
   32DOPE  H13R 4064   7.513   2.584  13.555 -1.5317  1.0132 -0.6077
   32DOPE  H13S 4065   7.393   2.464  13.608 -0.2504  1.7280 -1.3129
   32DOPE  C214 4066   7.560   2.492  13.747 -1.2957 -0.8103 -0.4064
   32DOPE  H14R 4067   7.643   2.430  13.707 -0.8992  0.3534 -1.4590
   32DOPE  H14S 4068   7.511   2.444  13.835  0.2733  0.2614  1.1381
   32DOPE  C215 4069   7.644   2.604  13.807 -0.5136 -0.1385 -0.1898
   32DOPE  H15R 4070   7.586   2.682  13.860 -0.6797 -0.5796  0.2823
   32DOPE  H15S 4071   7.692   2.652  13.719 -1.7603 -0.9069 -1.3361
   32DOPE  C216 4072   7.759   2.549  13.901 -0.1511  0.2822 -0.5008
   32DOPE  H16R 4073   7.834   2.625  13.932  0.0869 -0.5587  1.1234
   32DOPE  H16S 4074   7.806   2.462  13.851  0.2148  0.3312 -0.2454
   32DOPE  C217 4075   7.693   2.501  14.034 -0.4600  0.7963 -0.4850
   32DOPE  H17R 4076   7.623   2.416  14.015 -0.7387  1.0222 -0.4745
   32DOPE  H17S 4077   7.627   2.583  14.069 -1.6817 -0.5745  0.6019
   32DOPE  C218 4078   7.790   2.451  14.142 -0.1806 -0.5869  0.2522
   32DOPE  H18R 4079   7.860   2.534  14.166  1.3303 -1.7049 -0.1356
   32DOPE  H18S 4080   7.851   2.373  14.091 -1.5551 -0.6329 -1.4181
   32DOPE  H18T 4081   7.749   2.402  14.233 -1.5179 -1.3755 -0.7447
   32DOPE   C33 4082   5.963   2.385  13.695  0.3351 -0.1721 -0.6948
   32DOPE   H3X 4083   6.060   2.438  13.681  0.5572 -0.1221  0.8460
   32DOPE   H3Y 4084   5.977   2.281  13.657  2.5501 -0.0322 -0.4339
   32DOPE   C34 4085   5.940   2.387  13.847  0.0553 -0.0550 -0.3329
   32DOPE   H4X 4086   5.930   2.485  13.899  1.7031  0.3577 -0.7328
   32DOPE   H4Y 4087   5.847   2.332  13.868  1.4179 -1.6596  2.0432
   32DOPE   C35 4088   6.044   2.307  13.925  0.5738 -0.7523 -0.0301
   32DOPE   H5X 4089   6.150   2.337  13.913 -0.0098  1.0767 -1.1364
   32DOPE   H5Y 4090   6.054   2.210  13.872  0.7873 -0.2566 -0.9310
   32DOPE   C36 4091   6.018   2.286  14.072 -0.8598  0.2443 -0.1730
   32DOPE   H6X 4092   5.919   2.236  14.076  0.5489 -2.8622 -1.2758
   32DOPE   H6Y 4093   6.023   2.380  14.131  1.4225 -0.1599  0.3716
   32DOPE   C37 4094   6.107   2.177  14.140 -0.6076 -0.6401 -0.3972
   32DOPE   H7X 4095   6.131   2.094  14.069 -0.7602  1.3739 -2.9787
   32DOPE   H7Y 4096   6.196   2.240  14.162 -1.3606  0.6515 -0.9314
   32DOPE   C38 4097   6.049   2.133  14.277 -0.1736  0.0200  0.6792
   32DOPE   H8X 4098   5.961   2.069  14.255  0.6138 -1.4477  1.5707
   32DOPE   H8Y 4099   6.026   2.220  14.342  1.4344  1.7847 -0.9587
   32DOPE   C39 4100   6.137   2.045  14.357  0.2487  0.3366  0.0927
   32DOPE   H9X 4101   6.120   1.939  14.334 -1.3701  0.4175  0.7883
   32DOPE  C310 4102   6.232   2.081  14.444 -0.0014 -0.0696 -0.2610
   32DOPE  H10X 4103   6.308   2.008  14.477  0.4866  1.3687  2.0106
   32DOPE  C311 4104   6.260   2.224  14.477 -0.4102 -0.1345 -0.2586
   32DOPE  H11X 4105   6.366   2.245  14.453 -0.5337 -0.0432 -0.7221
   32DOPE  H11Y 4106   6.209   2.297  14.412 -0.8850  0.3338  0.6234
   32DOPE  C312 4107   6.221   2.254  14.622  0.7399 -0.1268  0.3789
   32DOPE  H12X 4108   6.255   2.175  14.692 -2.0097 -1.6737  0.1319
   32DOPE  H12Y 4109   6.110   2.244  14.619  0.9134 -3.1566  0.3516
   32DOPE  C313 4110   6.261   2.390  14.680 -0.4169  0.1971  0.2504
   32DOPE  H13X 4111   6.208   2.475  14.633  0.6989  0.8352  0.1036
   32DOPE  H13Y 4112   6.229   2.393  14.786 -0.5137  0.1047  0.2243
   32DOPE  C314 4113   6.408   2.421  14.678 -0.4878 -0.0835 -0.2015
   32DOPE  H14X 4114   6.443   2.436  14.573  1.2307 -1.5610  0.1164
   32DOPE  H14Y 4115   6.470   2.342  14.724 -0.0050  0.6374  0.4111
   32DOPE  C315 4116   6.441   2.546  14.766  0.1531  0.2145 -0.2593
   32DOPE  H15X 4117   6.398   2.541  14.868  0.5495 -0.8430 -0.1284
   32DOPE  H15Y 4118   6.421   2.635  14.703  1.2410  2.6476  2.5918
   32DOPE  C316 4119   6.593   2.568  14.788  0.2124 -0.0923 -0.2547
   32DOPE  H16X 4120   6.607   2.673  14.821  0.0172  0.0758 -0.7056
   32DOPE  H16Y 4121   6.643   2.557  14.690 -0.1849 -0.3853 -0.4275
   32DOPE  C317 4122   6.662   2.482  14.897  0.1863 -0.6003  0.7207
   32DOPE  H17X 4123   6.605   2.508  14.989 -0.8343  0.4304 -0.1660
   32DOPE  H17Y 4124   6.652   2.376  14.867  0.6329 -0.4612  0.0596
   32DOPE  C318 4125   6.809   2.528  14.920  0.1517 -0.0224  0.1126
   32DOPE  H18X 4126   6.863   2.489  14.831 -0.8617 -1.7291  0.1827
   32DOPE  H18Y 4127   6.809   2.638  14.931  1.7409 -0.0421  0.6223
   32DOPE  H18Z 4128   6.853   2.480  15.010 -0.6625  0.6842  0.9068
   33DOPE     N 4129   4.782   2.315  12.812  0.1913  0.7304 -0.0478
   33DOPE   HN1 4130   4.728   2.391  12.766 -1.6394 -0.6171 -0.2597
   33DOPE   HN2 4131   4.789   2.245  12.736 -0.2948  1.2714 -0.5964
   33DOPE   HN3 4132   4.721   2.272  12.885  1.5194 -0.9245  0.1488
   33DOPE   C12 4133   4.915   2.348  12.880  0.3465 -0.3403 -0.2520
   33DOPE  H12A 4134   4.975   2.417  12.817 -0.4980  0.6622  0.0234
   33DOPE  H12B 4135   4.968   2.251  12.892  0.7060 -0.1427 -0.2301
   33DOPE   C11 4136   4.899   2.410  13.024 -0.3672  0.3212 -0.1321
   33DOPE  H11A 4137   5.000   2.440  13.059 -0.2696 -0.8519  0.6496
   33DOPE  H11B 4138   4.849   2.332  13.085 -1.0095 -0.2969 -1.4158
   33DOPE     P 4139   4.857   2.660  13.079 -0.2354 -0.0061  0.0402
   33DOPE   O13 4140   4.734   2.739  13.105  0.0382  0.1923  0.3598
   33DOPE   O14 4141   4.959   2.733  12.994  0.5643 -0.2221 -0.4390
   33DOPE   O11 4142   4.925   2.612  13.213 -0.5915 -0.2930 -0.1510
   33DOPE   O12 4143   4.818   2.524  13.025  0.6482 -0.0753 -0.4555
   33DOPE    C1 4144   4.842   2.565  13.320 -0.0510  0.1828 -0.2808
   33DOPE    HA 4145   4.771   2.487  13.285 -0.3561 -0.2505  1.2056
   33DOPE    HB 4146   4.781   2.645  13.367  0.6191 -0.6520  2.1930
   33DOPE    C2 4147   4.929   2.501  13.439 -0.5496 -0.0160 -0.2976
   33DOPE    HS 4148   4.863   2.453  13.515  0.9437 -0.0274  1.0564
   33DOPE   O21 4149   5.006   2.605  13.508 -0.2488 -0.5390 -0.0667
   33DOPE   C21 4150   4.933   2.681  13.589  0.6620 -0.1786 -0.0675
   33DOPE   O22 4151   4.812   2.666  13.614 -0.6604 -0.1022 -0.5959
   33DOPE   C22 4152   5.027   2.789  13.633 -0.3162 -0.6665  0.0792
   33DOPE   H2R 4153   5.058   2.845  13.542  1.4439  1.5217  1.8884
   33DOPE   H2S 4154   5.113   2.741  13.684 -1.9566 -2.1078  1.5990
   33DOPE    C3 4155   5.013   2.395  13.371  0.7095  0.1387  0.1425
   33DOPE    HX 4156   5.083   2.455  13.310 -0.3907  1.1989 -0.1301
   33DOPE    HY 4157   4.954   2.324  13.308  1.5290  0.2916 -0.8095
   33DOPE   O31 4158   5.086   2.310  13.467  0.2469 -0.2700 -0.3146
   33DOPE   C31 4159   5.191   2.254  13.421 -0.0727  0.6236  0.0240
   33DOPE   O32 4160   5.237   2.268  13.309  0.3081 -0.6070  0.1737
   33DOPE   C32 4161   5.251   2.162  13.528 -0.0332 -0.0852  0.1390
   33DOPE   H2X 4162   5.165   2.141  13.596 -0.4030  1.6707  0.2486
   33DOPE   H2Y 4163   5.284   2.076  13.466 -0.6067 -0.4440  0.3240
   33DOPE   C23 4164   4.960   2.892  13.737  0.0029  0.5894  1.0862
   33DOPE   H3R 4165   4.852   2.900  13.712  0.1692 -0.9117 -0.3231
   33DOPE   H3S 4166   5.014   2.989  13.727 -0.3493  0.7031  0.2088
   33DOPE   C24 4167   4.955   2.845  13.883  0.3696  0.5523 -0.1199
   33DOPE   H4R 4168   4.894   2.752  13.882  1.2676 -0.0624 -1.6161
   33DOPE   H4S 4169   4.896   2.915  13.945 -1.3237  1.1021 -2.2421
   33DOPE   C25 4170   5.098   2.824  13.951  0.4093  0.0345  0.4294
   33DOPE   H5R 4171   5.160   2.763  13.882 -0.8013 -1.1801  0.3713
   33DOPE   H5S 4172   5.089   2.768  14.046  2.1037  1.5449  1.5416
   33DOPE   C26 4173   5.170   2.965  13.984 -0.2417 -0.1823  0.3280
   33DOPE   H6R 4174   5.136   3.042  13.911 -2.1108 -0.2326  1.0816
   33DOPE   H6S 4175   5.281   2.957  13.982 -0.0086  2.3611  0.4740
   33DOPE   C27 4176   5.132   3.027  14.120  0.6125 -0.2233 -0.2869
   33DOPE   H7R 4177   5.186   2.975  14.201 -0.7388  0.2079  0.9445
   33DOPE   H7S 4178   5.023   3.018  14.139  0.7970  1.3478  1.8392
   33DOPE   C28 4179   5.174   3.175  14.126  0.7369  0.1988 -0.2758
   33DOPE   H8R 4180   5.126   3.234  14.045  1.6996  1.1824 -0.1442
   33DOPE   H8S 4181   5.280   3.180  14.094  0.5208  1.9215 -0.8230
   33DOPE   C29 4182   5.137   3.255  14.251 -0.4691  0.3069  0.4874
   33DOPE   H9R 4183   5.080   3.347  14.232 -0.4247  0.0331 -1.0900
   33DOPE  C210 4184   5.178   3.233  14.375  0.4653 -0.3495  0.3863
   33DOPE  H10R 4185   5.140   3.296  14.457  1.0559 -0.6965  0.9427
   33DOPE  C211 4186   5.270   3.127  14.424 -0.1565 -0.2644 -0.0768
   33DOPE  H11R 4187   5.356   3.184  14.466 -1.5202  1.4623  0.4936
   33DOPE  H11S 4188   5.301   3.051  14.349 -2.4045 -0.1949 -1.1567
   33DOPE  C212 4189   5.210   3.041  14.535 -0.5320 -0.3250  0.5411
   33DOPE  H12R 4190   5.106   3.012  14.509 -0.6344 -0.0190  0.6101
   33DOPE  H12S 4191   5.200   3.105  14.625  1.0528 -1.8346  1.8671
   33DOPE  C213 4192   5.284   2.911  14.556 -0.5434  1.1591  0.1663
   33DOPE  H13R 4193   5.389   2.930  14.586 -0.8004 -0.2305  2.2028
   33DOPE  H13S 4194   5.291   2.877  14.451  0.4354  2.4727 -0.2205
   33DOPE  C214 4195   5.222   2.792  14.639  0.3473  0.0736  0.2692
   33DOPE  H14R 4196   5.243   2.692  14.595 -1.1542 -0.4852  0.7774
   33DOPE  H14S 4197   5.111   2.804  14.640  0.0743 -1.9679  2.3425
   33DOPE  C215 4198   5.254   2.787  14.788  0.1198 -0.4562  0.3567
   33DOPE  H15R 4199   5.234   2.884  14.838 -1.7035  0.1486 -1.3920
   33DOPE  H15S 4200   5.363   2.774  14.802  1.0127  3.4471 -1.7039
   33DOPE  C216 4201   5.181   2.678  14.861  0.0921  0.4856 -0.0465
   33DOPE  H16R 4202   5.073   2.671  14.837  0.4917 -1.0755 -1.5481
   33DOPE  H16S 4203   5.204   2.697  14.968 -0.5791  1.9086 -0.1210
   33DOPE  C217 4204   5.231   2.527  14.837  0.0023 -0.0235  0.2808
   33DOPE  H17R 4205   5.196   2.482  14.742 -0.1008 -0.2144  0.4089
   33DOPE  H17S 4206   5.192   2.465  14.921 -0.2195  0.0163  0.2087
   33DOPE  C218 4207   5.381   2.507  14.832  0.4631  0.7573 -0.1251
   33DOPE  H18R 4208   5.421   2.517  14.936  1.3613 -0.3181 -0.3479
   33DOPE  H18S 4209   5.429   2.584  14.768  1.0695  0.3298 -0.1947
   33DOPE  H18T 4210   5.396   2.401  14.802 -3.8206 -0.6064  1.6936
   33DOPE   C33 4211   5.369   2.218  13.613 -0.0954  0.0548 -0.4137
   33DOPE   H3X 4212   5.334   2.296  13.682 -0.3840 -0.5589  0.1424
   33DOPE   H3Y 4213   5.442   2.272  13.549 -0.3485  1.4185  0.4278
   33DOPE   C34 4214   5.443   2.105  13.693 -0.0532 -0.5171  0.6432
   33DOPE   H4X 4215   5.374   2.043  13.753  1.0470 -1.6761  0.7444
   33DOPE   H4Y 4216   5.481   2.039  13.612 -1.2132 -0.3746 -0.0389
   33DOPE   C35 4217   5.565   2.154  13.773 -0.3630 -0.2422 -0.6363
   33DOPE   H5X 4218   5.585   2.262  13.758 -0.1375 -0.4833 -2.1569
   33DOPE   H5Y 4219   5.650   2.094  13.736 -0.3666 -0.3396 -0.4916
   33DOPE   C36 4220   5.545   2.118  13.924 -0.3879 -0.6001  0.1107
   33DOPE   H6X 4221   5.509   2.013  13.925  2.0600 -1.5113  1.1970
   33DOPE   H6Y 4222   5.458   2.172  13.968  2.1116  2.7869  1.3045
   33DOPE   C37 4223   5.666   2.124  14.011 -1.0310 -0.4768 -0.9538
   33DOPE   H7X 4224   5.753   2.069  13.970 -0.5085 -0.0498 -0.4435
   33DOPE   H7Y 4225   5.700   2.226  14.041 -0.6449 -0.0905 -2.6259
   33DOPE   C38 4226   5.643   2.072  14.149  1.2302 -0.1766 -0.4771
   33DOPE   H8X 4227   5.555   2.128  14.189  1.2041  0.8467 -1.8898
   33DOPE   H8Y 4228   5.735   2.096  14.207  1.4026  1.2597 -1.2912
   33DOPE   C39 4229   5.606   1.929  14.166  0.0218  0.5407  0.1388
   33DOPE   H9X 4230   5.550   1.881  14.084  2.2334  1.2208 -1.8631
   33DOPE  C310 4231   5.652   1.843  14.259  0.0134  0.1652  0.6783
   33DOPE  H10X 4232   5.632   1.735  14.258 -1.6745  0.3981  2.5650
   33DOPE  C311 4233   5.754   1.872  14.367  0.0326  0.0317 -0.2688
   33DOPE  H11X 4234   5.849   1.839  14.319  1.5872  0.9062  2.0145
   33DOPE  H11Y 4235   5.772   1.982  14.376 -0.5095  0.0113  1.5222
   33DOPE  C312 4236   5.729   1.800  14.500  0.3642 -0.0301  0.1667
   33DOPE  H12X 4237   5.825   1.784  14.554 -1.0577 -0.6350  2.7108
   33DOPE  H12Y 4238   5.689   1.697  14.487  1.6775 -0.5457  0.0901
   33DOPE  C313 4239   5.639   1.878  14.599  0.1168 -0.5096 -0.7678
   33DOPE  H13X 4240   5.681   1.978  14.625 -1.1021 -0.3970  0.9618
   33DOPE  H13Y 4241   5.550   1.899  14.536 -0.2534 -0.3272 -0.1926
   33DOPE  C314 4242   5.618   1.803  14.729  1.0158  0.0526 -0.3861
   33DOPE  H14X 4243   5.713   1.759  14.767  0.2559 -1.3695 -0.0434
   33DOPE  H14Y 4244   5.547   1.719  14.714 -0.5201  0.8542  1.8746
   33DOPE  C315 4245   5.558   1.886  14.846  0.2169  0.4674  0.4971
   33DOPE  H15X 4246   5.453   1.914  14.822  0.9375  0.6644 -2.9828
   33DOPE  H15Y 4247   5.611   1.984  14.834 -0.7284  0.9570  0.2369
   33DOPE  C316 4248   5.586   1.820  14.985 -0.3946  0.4438 -0.3228
   33DOPE  H16X 4249   5.690   1.780  14.981 -0.7621 -0.7422  1.1698
   33DOPE  H16Y 4250   5.513   1.739  14.967 -0.1790  0.4535 -1.3342
   33DOPE  C317 4251   5.546   1.894  15.111  0.1079  0.0551 -0.1125
   33DOPE  H17X 4252   5.440   1.927  15.099  0.2115  1.0621  1.4257
   33DOPE  H17Y 4253   5.537   1.820  15.194  1.4417 -0.7303 -0.6404
   33DOPE  C318 4254   5.644   2.012  15.149 -0.8177 -0.2783  0.0557
   33DOPE  H18X 4255   5.645   2.101  15.082  0.0606  0.8910  1.5659
   33DOPE  H18Y 4256   5.606   2.047  15.247 -2.1940 -0.6032 -0.3399
   33DOPE  H18Z 4257   5.748   1.974  15.153  0.9350  3.9407 -0.1738
   34DOPE     N 4258   3.168   3.364  12.922 -0.0041 -0.0046 -0.2382
   34DOPE   HN1 4259   3.210   3.449  12.877  1.0071 -0.6170 -0.4964
   34DOPE   HN2 4260   3.207   3.279  12.877  1.0141 -0.3301  1.1903
   34DOPE   HN3 4261   3.066   3.383  12.920  0.2856  1.6639 -1.2475
   34DOPE   C12 4262   3.222   3.369  13.066 -0.7308 -0.1559  0.2550
   34DOPE  H12A 4263   3.185   3.272  13.104 -1.8492 -0.0830 -0.5790
   34DOPE  H12B 4264   3.167   3.452  13.117 -0.9799 -0.2960  0.2165
   34DOPE   C11 4265   3.369   3.372  13.056 -0.3069 -0.3670 -0.5755
   34DOPE  H11A 4266   3.414   3.292  12.993  1.0050  0.2651 -0.4916
   34DOPE  H11B 4267   3.404   3.366  13.161 -0.2270  2.7409 -0.3398
   34DOPE     P 4268   3.491   3.610  13.069 -0.0708 -0.1363 -0.2226
   34DOPE   O13 4269   3.513   3.719  12.966 -0.7204 -0.8190  0.4550
   34DOPE   O14 4270   3.610   3.560  13.147 -0.0879  0.5238  0.3511
   34DOPE   O11 4271   3.378   3.657  13.161 -0.9176  0.5992  0.4604
   34DOPE   O12 4272   3.416   3.497  12.996 -0.2454  1.2155 -0.0867
   34DOPE    C1 4273   3.401   3.756  13.257  0.5011 -0.4880 -0.2647
   34DOPE    HA 4274   3.344   3.844  13.222  0.3330 -0.8140 -0.8330
   34DOPE    HB 4275   3.504   3.791  13.278  0.2292 -0.5035  1.2299
   34DOPE    C2 4276   3.334   3.716  13.393  0.2644  0.2071 -0.3295
   34DOPE    HS 4277   3.234   3.671  13.378  0.0203  0.8557 -0.6975
   34DOPE   O21 4278   3.304   3.837  13.468  0.1464 -0.0501 -0.1731
   34DOPE   C21 4279   3.205   3.917  13.438 -0.1478  0.3414  0.4140
   34DOPE   O22 4280   3.130   3.898  13.345  0.5732 -0.1000 -0.0117
   34DOPE   C22 4281   3.218   4.044  13.519 -1.0756 -0.4862 -0.0682
   34DOPE   H2R 4282   3.164   4.125  13.466  0.0417  0.9266  0.8894
   34DOPE   H2S 4283   3.327   4.065  13.527  0.2903 -6.3924  3.4434
   34DOPE    C3 4284   3.410   3.613  13.483 -0.1864  1.1658 -0.2905
   34DOPE    HX 4285   3.518   3.637  13.489 -0.5280  2.6480  0.5495
   34DOPE    HY 4286   3.396   3.516  13.431 -1.1043  2.3790 -2.4350
   34DOPE   O31 4287   3.363   3.604  13.625 -0.1148 -0.3335  0.3761
   34DOPE   C31 4288   3.242   3.550  13.637 -0.0959 -0.1718  0.5509
   34DOPE   O32 4289   3.178   3.493  13.550 -0.0979  0.7510  0.3435
   34DOPE   C32 4290   3.190   3.562  13.778 -0.1778 -0.6883 -0.0362
   34DOPE   H2X 4291   3.127   3.653  13.786  1.1921  0.2043  0.8134
   34DOPE   H2Y 4292   3.122   3.475  13.790 -1.8201  0.3824 -1.0711
   34DOPE   C23 4293   3.145   4.045  13.657  0.0844  0.7514  0.6186
   34DOPE   H3R 4294   3.197   3.983  13.733  0.8208  1.4454  0.6986
   34DOPE   H3S 4295   3.040   4.011  13.643  0.1592  0.5202  0.6110
   34DOPE   C24 4296   3.156   4.191  13.701 -0.2921 -0.8367  0.7434
   34DOPE   H4R 4297   3.248   4.241  13.665 -0.2257 -1.4281  0.0834
   34DOPE   H4S 4298   3.155   4.190  13.812  1.8555 -2.6968  0.8268
   34DOPE   C25 4299   3.039   4.280  13.640 -0.0163 -0.0184  0.0322
   34DOPE   H5R 4300   2.945   4.221  13.646 -0.5940  0.9416  0.7534
   34DOPE   H5S 4301   3.053   4.300  13.531  0.9359 -0.5385  0.0523
   34DOPE   C26 4302   3.019   4.415  13.709  0.0840  0.0733  0.4164
   34DOPE   H6R 4303   2.954   4.479  13.645  0.1543  0.0732  0.3453
   34DOPE   H6S 4304   3.116   4.469  13.706 -0.7202  1.5212 -1.1736
   34DOPE   C27 4305   2.959   4.413  13.854 -0.6589  0.2723  0.6118
   34DOPE   H7R 4306   2.975   4.515  13.895  1.0961  0.1977  0.1913
   34DOPE   H7S 4307   3.015   4.338  13.914  0.5246  0.1882 -0.5444
   34DOPE   C28 4308   2.810   4.377  13.868 -0.1242 -0.4814  0.6841
   34DOPE   H8R 4309   2.774   4.390  13.972 -2.3619 -1.5477  0.0948
   34DOPE   H8S 4310   2.804   4.267  13.851  3.6492 -0.5217 -1.7470
   34DOPE   C29 4311   2.722   4.455  13.780  0.1608 -0.0227  0.4079
   34DOPE   H9R 4312   2.775   4.535  13.726  0.4258 -1.7327 -2.0416
   34DOPE  C210 4313   2.595   4.428  13.741  0.4511  0.0071 -0.2269
   34DOPE  H10R 4314   2.544   4.500  13.675  0.3056  1.2887  1.2181
   34DOPE  C211 4315   2.522   4.310  13.785  0.1057 -0.7185  0.2413
   34DOPE  H11R 4316   2.432   4.342  13.842  1.0094 -2.8742  3.1769
   34DOPE  H11S 4317   2.577   4.258  13.867  1.8623  2.1598  1.0448
   34DOPE  C212 4318   2.484   4.211  13.682  0.1680 -0.1090 -0.4390
   34DOPE  H12R 4319   2.447   4.262  13.591  0.1201 -1.1587 -1.0213
   34DOPE  H12S 4320   2.395   4.151  13.712 -1.2588  1.2198 -1.8755
   34DOPE  C213 4321   2.601   4.125  13.632 -0.2628  0.3740 -0.2879
   34DOPE  H13R 4322   2.674   4.102  13.713  1.0775  0.5809 -1.4151
   34DOPE  H13S 4323   2.653   4.194  13.563 -0.4652  0.0180 -0.7991
   34DOPE  C214 4324   2.553   3.992  13.562  0.8837  0.4078  0.5355
   34DOPE  H14R 4325   2.488   4.023  13.478 -0.6027  0.7970  1.7808
   34DOPE  H14S 4326   2.487   3.931  13.627  0.0393  1.1324  0.3647
   34DOPE  C215 4327   2.666   3.909  13.504 -0.0209 -0.0855  1.1774
   34DOPE  H15R 4328   2.691   3.952  13.405 -3.2981 -0.5066  0.0374
   34DOPE  H15S 4329   2.619   3.817  13.466  1.4971  0.0916 -1.3348
   34DOPE  C216 4330   2.781   3.882  13.596 -0.0124 -0.0433  0.4214
   34DOPE  H16R 4331   2.819   3.982  13.624 -0.4996  1.0242 -2.4019
   34DOPE  H16S 4332   2.860   3.830  13.538  0.7727 -3.1376  3.8418
   34DOPE  C217 4333   2.734   3.794  13.715  0.2898  0.1400 -0.0456
   34DOPE  H17R 4334   2.678   3.704  13.682  0.9186 -1.2454  2.3975
   34DOPE  H17S 4335   2.667   3.856  13.777 -1.3801 -1.5806 -0.0289
   34DOPE  C218 4336   2.848   3.745  13.797  0.2183  0.6950  0.0675
   34DOPE  H18R 4337   2.894   3.835  13.843  1.0699  0.2711  0.0700
   34DOPE  H18S 4338   2.919   3.682  13.740  0.5488  0.5212  0.6626
   34DOPE  H18T 4339   2.821   3.683  13.884  0.9443  0.6012  0.2346
   34DOPE   C33 4340   3.294   3.566  13.899 -0.5781  0.2477  0.6456
   34DOPE   H3X 4341   3.321   3.672  13.918 -1.1698  1.4429 -3.9284
   34DOPE   H3Y 4342   3.390   3.518  13.871 -0.1704 -0.6327  3.3063
   34DOPE   C34 4343   3.229   3.501  14.022  0.4224 -0.2279 -0.2150
   34DOPE   H4X 4344   3.262   3.551  14.116  0.3641 -0.7045  0.0590
   34DOPE   H4Y 4345   3.125   3.537  14.007  1.0652  1.1954 -1.6385
   34DOPE   C35 4346   3.231   3.347  14.039 -0.0466  0.1659  0.3515
   34DOPE   H5X 4347   3.338   3.321  14.057  0.4314  1.9993  0.3507
   34DOPE   H5Y 4348   3.187   3.291  13.954  1.9325 -1.2595  0.1865
   34DOPE   C36 4349   3.146   3.307  14.161 -0.1878 -0.0468 -0.5656
   34DOPE   H6X 4350   3.046   3.344  14.129  0.1935  0.0271 -1.7066
   34DOPE   H6Y 4351   3.185   3.353  14.255 -1.1214 -0.7863  0.2136
   34DOPE   C37 4352   3.151   3.157  14.197  0.3183  0.5398 -0.6188
   34DOPE   H7X 4353   3.098   3.114  14.109  1.8845  2.1992 -2.4555
   34DOPE   H7Y 4354   3.254   3.117  14.199  0.1334  0.0730  0.6140
   34DOPE   C38 4355   3.086   3.129  14.339 -0.3934 -0.1791 -0.2093
   34DOPE   H8X 4356   3.143   3.197  14.406 -0.4324  0.9533 -1.2947
   34DOPE   H8Y 4357   3.097   3.020  14.356 -2.2115 -0.2658  0.7214
   34DOPE   C39 4358   2.942   3.160  14.344  0.3583 -0.7264 -0.0908
   34DOPE   H9X 4359   2.877   3.095  14.283 -0.3632  0.3795 -0.5403
   34DOPE  C310 4360   2.882   3.267  14.399  0.4085 -0.4332  0.5675
   34DOPE  H10X 4361   2.773   3.269  14.409  0.2715  0.2927 -0.8427
   34DOPE  C311 4362   2.946   3.386  14.468  0.5004  0.3009 -0.5625
   34DOPE  H11X 4363   3.056   3.388  14.457  0.9248 -1.2107  2.2310
   34DOPE  H11Y 4364   2.903   3.482  14.434  0.7988  0.9067  0.7056
   34DOPE  C312 4365   2.922   3.370  14.622 -0.6052  0.3796  0.0518
   34DOPE  H12X 4366   2.993   3.432  14.681  3.4237 -2.4829 -1.3804
   34DOPE  H12Y 4367   2.945   3.268  14.657 -1.7464 -0.3698 -1.2753
   34DOPE  C313 4368   2.778   3.408  14.662  0.2650  0.7837  0.1627
   34DOPE  H13X 4369   2.775   3.507  14.712  0.8505  0.8084  0.1581
   34DOPE  H13Y 4370   2.719   3.410  14.568 -0.6337 -0.3920  0.6813
   34DOPE  C314 4371   2.714   3.321  14.773 -0.2935 -1.0862 -0.3851
   34DOPE  H14X 4372   2.721   3.213  14.746 -0.9991 -1.6119  1.3636
   34DOPE  H14Y 4373   2.610   3.359  14.779  0.0171 -0.4890  1.9681
   34DOPE  C315 4374   2.777   3.347  14.909 -1.0143 -0.9873  0.1735
   34DOPE  H15X 4375   2.764   3.454  14.935  1.8904 -0.2280 -1.0693
   34DOPE  H15Y 4376   2.887   3.333  14.903 -0.4764  2.0912  0.9758
   34DOPE  C316 4377   2.732   3.253  15.018 -0.0495 -0.1250 -0.0947
   34DOPE  H16X 4378   2.788   3.273  15.113 -0.4575 -1.1442  0.3787
   34DOPE  H16Y 4379   2.762   3.150  14.988 -1.0955 -1.1036  1.9901
   34DOPE  C317 4380   2.579   3.245  15.037 -0.4355 -0.3040 -0.1687
   34DOPE  H17X 4381   2.535   3.346  15.038 -0.4936 -0.3250  0.9429
   34DOPE  H17Y 4382   2.539   3.191  14.948 -1.7953  0.5755 -0.1177
   34DOPE  C318 4383   2.532   3.173  15.158 -0.0325 -0.5273 -0.7258
   34DOPE  H18X 4384   2.539   3.244  15.243 -1.2370 -1.2284 -0.0102
   34DOPE  H18Y 4385   2.434   3.122  15.150 -0.1151 -0.7282  1.2421
   34DOPE  H18Z 4386   2.598   3.090  15.193  0.5014  1.3365  3.2351
   35DOPE     N 4387   6.348   2.094  12.964  0.5348 -0.2095  0.9013
   35DOPE   HN1 4388   6.289   2.009  12.952  1.3069 -0.4300 -2.3128
   35DOPE   HN2 4389   6.298   2.182  12.937  0.2026 -0.8987 -0.9058
   35DOPE   HN3 4390   6.428   2.080  12.899  0.2145 -1.1295  0.6936
   35DOPE   C12 4391   6.409   2.100  13.099 -0.1664  0.5887 -0.7450
   35DOPE  H12A 4392   6.468   2.008  13.116 -0.5966  0.5758  0.8675
   35DOPE  H12B 4393   6.323   2.080  13.166  0.4886 -0.6704 -0.2510
   35DOPE   C11 4394   6.486   2.235  13.128  0.2886 -0.0860  0.7136
   35DOPE  H11A 4395   6.518   2.232  13.234  1.6114 -0.0811  0.3365
   35DOPE  H11B 4396   6.420   2.322  13.110  2.9291  1.9011 -0.0379
   35DOPE     P 4397   6.628   2.375  12.946  0.5870  0.0072 -0.2140
   35DOPE   O13 4398   6.544   2.360  12.823  0.3372  0.3594 -0.1798
   35DOPE   O14 4399   6.771   2.396  12.915  0.0307  0.6818 -0.0592
   35DOPE   O11 4400   6.572   2.492  13.030 -0.1111 -0.2700 -0.8003
   35DOPE   O12 4401   6.599   2.245  13.036 -0.3519 -0.1498  0.1025
   35DOPE    C1 4402   6.610   2.629  13.033 -0.4671  0.2330 -0.5727
   35DOPE    HA 4403   6.542   2.683  13.102 -1.6703  0.3216 -1.7853
   35DOPE    HB 4404   6.610   2.689  12.939 -1.2452  0.9126 -0.1429
   35DOPE    C2 4405   6.752   2.653  13.091 -0.0986 -0.0032 -0.9008
   35DOPE    HS 4406   6.825   2.638  13.009  1.0224 -0.2721  0.1060
   35DOPE   O21 4407   6.778   2.549  13.201  0.5478 -0.1084  0.6995
   35DOPE   C21 4408   6.904   2.506  13.209 -0.1352  0.1103 -0.5279
   35DOPE   O22 4409   6.998   2.562  13.155  0.5879  0.0160  0.1225
   35DOPE   C22 4410   6.900   2.373  13.286  0.4323 -0.9254 -0.6361
   35DOPE   H2R 4411   6.794   2.343  13.300  0.1217  0.3306 -0.1543
   35DOPE   H2S 4412   6.942   2.394  13.387  0.8100 -0.9826 -0.7801
   35DOPE    C3 4413   6.764   2.794  13.158  0.3355  0.2394 -0.1655
   35DOPE    HX 4414   6.668   2.817  13.208 -0.7849 -0.7305 -1.8085
   35DOPE    HY 4415   6.769   2.865  13.072  1.7336  3.1115  2.0936
   35DOPE   O31 4416   6.881   2.810  13.251  0.7823  0.4397  0.1269
   35DOPE   C31 4417   6.985   2.839  13.173  0.0103  0.1173  0.0309
   35DOPE   O32 4418   6.986   2.834  13.050  0.8125 -0.3823 -0.1029
   35DOPE   C32 4419   7.104   2.866  13.268  0.5200  0.4182 -0.2895
   35DOPE   H2X 4420   7.116   2.779  13.335 -1.0104  1.8397  1.9451
   35DOPE   H2Y 4421   7.191   2.869  13.200  0.4569  1.4487 -0.3408
   35DOPE   C23 4422   6.984   2.262  13.217 -0.2445  0.3784 -0.0981
   35DOPE   H3R 4423   6.949   2.259  13.111  0.5380 -0.2714 -0.3467
   35DOPE   H3S 4424   6.969   2.159  13.254  0.5691  0.2036 -0.2413
   35DOPE   C24 4425   7.141   2.293  13.225  0.4721 -0.5259  0.0292
   35DOPE   H4R 4426   7.162   2.393  13.183 -1.7230  0.3056  0.7216
   35DOPE   H4S 4427   7.179   2.208  13.165  0.4664 -0.0175 -0.7052
   35DOPE   C25 4428   7.195   2.270  13.368 -0.4173  0.1575  0.5437
   35DOPE   H5R 4429   7.145   2.185  13.418 -1.9988  0.7858  0.0976
   35DOPE   H5S 4430   7.171   2.360  13.429  0.8138  0.8127  0.1013
   35DOPE   C26 4431   7.348   2.250  13.382 -0.9460  0.3234 -0.1093
   35DOPE   H6R 4432   7.391   2.352  13.378  0.3523 -0.2581 -1.8652
   35DOPE   H6S 4433   7.389   2.192  13.297  1.9180  0.0217  1.3400
   35DOPE   C27 4434   7.379   2.180  13.518  0.2629 -0.5015  0.0277
   35DOPE   H7R 4435   7.348   2.075  13.504  2.0714 -0.8215 -1.9922
   35DOPE   H7S 4436   7.320   2.213  13.606  1.9210  4.5936 -0.4447
   35DOPE   C28 4437   7.533   2.189  13.554  0.0518  0.4018  0.5146
   35DOPE   H8R 4438   7.558   2.291  13.588 -2.4825  0.3720  2.8376
   35DOPE   H8S 4439   7.592   2.162  13.464  0.7060 -1.5768  1.4787
   35DOPE   C29 4440   7.577   2.086  13.658  0.9052 -0.1091  0.0277
   35DOPE   H9R 4441   7.652   2.017  13.615  0.5302 -0.4413 -0.0941
   35DOPE  C210 4442   7.520   2.041  13.772  0.2701 -0.2505  0.6535
   35DOPE  H10R 4443   7.567   1.963  13.834  1.4144  0.8862  1.2662
   35DOPE  C211 4444   7.390   2.091  13.834  0.2039 -0.0310  0.5553
   35DOPE  H11R 4445   7.297   2.056  13.785  0.0944  0.3141  0.5145
   35DOPE  H11S 4446   7.383   2.201  13.822 -2.8945 -0.2250 -0.0451
   35DOPE  C212 4447   7.369   2.054  13.981 -0.4058 -0.5079  0.1491
   35DOPE  H12R 4448   7.384   1.945  13.997  3.3753 -0.1877 -0.3588
   35DOPE  H12S 4449   7.265   2.081  14.011  0.2544  2.8081 -0.2360
   35DOPE  C213 4450   7.456   2.122  14.074 -0.6775  0.1737 -0.8330
   35DOPE  H13R 4451   7.449   2.232  14.085 -0.0750  0.3072 -1.6652
   35DOPE  H13S 4452   7.563   2.114  14.046 -0.1388 -1.0249  1.3366
   35DOPE  C214 4453   7.453   2.070  14.217  0.0742 -0.4296  0.2280
   35DOPE  H14R 4454   7.483   1.963  14.220 -0.5017 -0.5831  0.5739
   35DOPE  H14S 4455   7.346   2.080  14.243 -0.0564  1.1447 -0.7696
   35DOPE  C215 4456   7.541   2.149  14.313 -0.1406  0.3860  0.4668
   35DOPE  H15R 4457   7.539   2.259  14.306 -1.4863  0.3689  0.4087
   35DOPE  H15S 4458   7.648   2.119  14.303 -0.1344 -0.3254  2.3337
   35DOPE  C216 4459   7.508   2.120  14.461 -0.3049  0.0048  0.6111
   35DOPE  H16R 4460   7.592   2.158  14.524  1.5693 -1.1603 -1.1017
   35DOPE  H16S 4461   7.502   2.011  14.477  3.4080 -0.6503 -1.3290
   35DOPE  C217 4462   7.380   2.173  14.520  0.1109  0.2488  0.3210
   35DOPE  H17R 4463   7.291   2.138  14.464 -0.4013  0.7726  0.7946
   35DOPE  H17S 4464   7.385   2.283  14.505  0.4536  0.0684 -1.0260
   35DOPE  C218 4465   7.361   2.153  14.669  0.1054  0.2185 -0.0451
   35DOPE  H18R 4466   7.349   2.046  14.694 -1.6035  0.5816  0.7848
   35DOPE  H18S 4467   7.267   2.203  14.698 -0.3434  0.1248 -1.2959
   35DOPE  H18T 4468   7.454   2.181  14.725  0.6752 -1.9689  0.1982
   35DOPE   C33 4469   7.090   3.002  13.342  0.5279  0.2811  0.8461
   35DOPE   H3X 4470   7.149   2.984  13.434 -0.7360 -2.0880  1.2772
   35DOPE   H3Y 4471   6.983   3.015  13.371 -0.0577 -1.0720 -0.5360
   35DOPE   C34 4472   7.138   3.140  13.286 -0.5493  0.5362  1.1900
   35DOPE   H4X 4473   7.247   3.126  13.270 -0.9612 -2.1209  0.2526
   35DOPE   H4Y 4474   7.089   3.148  13.186 -1.0400 -0.0503  1.3777
   35DOPE   C35 4475   7.103   3.262  13.375  0.5178  0.5185  0.5765
   35DOPE   H5X 4476   6.993   3.270  13.388  0.1270  0.1643 -2.0515
   35DOPE   H5Y 4477   7.131   3.361  13.332 -0.6391  0.2892 -0.7514
   35DOPE   C36 4478   7.157   3.260  13.523  0.0900 -0.1391 -0.0423
   35DOPE   H6X 4479   7.266   3.240  13.533 -0.4043 -2.2660  2.4757
   35DOPE   H6Y 4480   7.112   3.170  13.571 -0.1912 -0.5249 -1.0070
   35DOPE   C37 4481   7.117   3.382  13.615 -0.7146  0.9061  0.4096
   35DOPE   H7X 4482   7.177   3.472  13.589 -0.9242  0.5040 -1.6088
   35DOPE   H7Y 4483   7.014   3.412  13.586 -0.5085  1.3225  0.0874
   35DOPE   C38 4484   7.124   3.358  13.764  0.1089 -0.2066 -0.1490
   35DOPE   H8X 4485   7.068   3.264  13.784 -1.1438  0.1714 -1.6196
   35DOPE   H8Y 4486   7.066   3.440  13.812 -0.9477 -0.7080 -0.5391
   35DOPE   C39 4487   7.268   3.346  13.808  0.1811  0.4683 -0.7497
   35DOPE   H9X 4488   7.307   3.254  13.761  0.1233 -0.6414  1.2575
   35DOPE  C310 4489   7.340   3.430  13.884 -0.7082 -0.3177 -0.3567
   35DOPE  H10X 4490   7.442   3.399  13.911 -1.0032 -2.0968 -1.1345
   35DOPE  C311 4491   7.296   3.566  13.935 -0.6904  0.2084  0.0715
   35DOPE  H11X 4492   7.382   3.636  13.924 -0.8762  0.4980  0.4521
   35DOPE  H11Y 4493   7.219   3.610  13.868  0.5053  2.6439  0.1660
   35DOPE  C312 4494   7.245   3.562  14.081  0.6737  0.3575 -0.9168
   35DOPE  H12X 4495   7.147   3.509  14.085 -0.3483  2.1820 -0.0168
   35DOPE  H12Y 4496   7.239   3.666  14.119 -0.2467 -0.1516  0.4251
   35DOPE  C313 4497   7.347   3.498  14.184  0.1065 -0.1251 -1.0220
   35DOPE  H13X 4498   7.364   3.391  14.162 -0.0766 -0.0536 -1.5250
   35DOPE  H13Y 4499   7.440   3.558  14.171  1.3436 -1.2797  1.7660
   35DOPE  C314 4500   7.325   3.516  14.332 -0.6943  0.6733 -0.7455
   35DOPE  H14X 4501   7.228   3.470  14.359  0.1397 -2.0577 -1.9975
   35DOPE  H14Y 4502   7.318   3.624  14.354  1.2911  0.6351  0.3097
   35DOPE  C315 4503   7.426   3.423  14.408  0.0016 -0.3845 -0.2068
   35DOPE  H15X 4504   7.435   3.322  14.363 -0.4227 -1.4663  2.0330
   35DOPE  H15Y 4505   7.389   3.418  14.512  1.3140  2.1307  0.4695
   35DOPE  C316 4506   7.573   3.473  14.401  0.3527  0.0217  0.3591
   35DOPE  H16X 4507   7.576   3.570  14.455 -0.4879 -1.0438  2.4541
   35DOPE  H16Y 4508   7.607   3.490  14.297  0.4316 -2.2605 -0.0488
   35DOPE  C317 4509   7.673   3.367  14.445 -0.2804  0.5735 -0.6284
   35DOPE  H17X 4510   7.657   3.270  14.392  0.3947 -0.3322  0.7458
   35DOPE  H17Y 4511   7.771   3.410  14.415  0.9215 -0.0280  2.0623
   35DOPE  C318 4512   7.669   3.346  14.598  0.6869 -0.6447  0.4527
   35DOPE  H18X 4513   7.568   3.305  14.620  0.3725 -0.1707 -0.0775
   35DOPE  H18Y 4514   7.742   3.278  14.646  0.1304 -1.1623  0.5780
   35DOPE  H18Z 4515   7.678   3.442  14.653 -0.0463 -0.7382  0.7601
   36DOPE     N 4516   0.009   3.040  12.716  0.1944 -0.5240  0.0360
   36DOPE   HN1 4517  -0.058   3.039  12.796  0.9845  2.0055  0.8466
   36DOPE   HN2 4518  -0.033   2.974  12.649 -0.7491 -1.3829  1.4208
   36DOPE   HN3 4519   0.099   2.997  12.747 -0.7468 -2.2773  0.4606
   36DOPE   C12 4520   0.027   3.176  12.659  0.0755 -0.9781 -0.8081
   36DOPE  H12A 4521  -0.071   3.216  12.627  0.0785 -1.8393 -1.9630
   36DOPE  H12B 4522   0.093   3.153  12.572 -1.2370 -1.2936 -1.7495
   36DOPE   C11 4523   0.096   3.268  12.766  1.0192  0.5101  0.2770
   36DOPE  H11A 4524   0.136   3.358  12.715 -2.7612  1.0245 -2.1604
   36DOPE  H11B 4525   0.184   3.224  12.817 -0.2824 -0.1824  2.0345
   36DOPE     P 4526  -0.022   3.458  12.897  0.4509 -0.1830 -0.2176
   36DOPE   O13 4527  -0.137   3.482  12.991 -0.3231 -0.2987  0.1504
   36DOPE   O14 4528  -0.023   3.540  12.770  0.0071  0.7761 -0.0801
   36DOPE   O11 4529   0.111   3.510  12.969  0.4116 -0.5312 -0.3419
   36DOPE   O12 4530  -0.005   3.309  12.866 -0.8028  0.0611  0.1670
   36DOPE    C1 4531   0.213   3.422  13.021  0.3630 -0.0051 -0.2485
   36DOPE    HA 4532   0.300   3.432  12.952  0.4959 -0.9265 -0.2287
   36DOPE    HB 4533   0.178   3.317  13.034  0.0674 -0.2687 -2.7256
   36DOPE    C2 4534   0.256   3.468  13.166  0.7448  0.2783  0.5264
   36DOPE    HS 4535   0.271   3.578  13.170  2.1988  0.1385 -0.2092
   36DOPE   O21 4536   0.373   3.398  13.200 -0.4549  0.0285 -0.7011
   36DOPE   C21 4537   0.483   3.459  13.153 -0.4905 -0.1093 -0.2889
   36DOPE   O22 4538   0.488   3.567  13.091  0.3569  0.4483  0.8330
   36DOPE   C22 4539   0.603   3.376  13.196  0.2127 -0.5893  0.1112
   36DOPE   H2R 4540   0.674   3.385  13.111 -1.7856  1.3472 -1.4827
   36DOPE   H2S 4541   0.579   3.268  13.206  3.7989 -1.8719 -2.6949
   36DOPE    C3 4542   0.149   3.434  13.271  0.2160  0.6147  0.6841
   36DOPE    HX 4543   0.127   3.326  13.276 -0.8734  0.7190 -1.0758
   36DOPE    HY 4544   0.060   3.489  13.235 -2.0128 -2.3274  1.3730
   36DOPE   O31 4545   0.177   3.485  13.402  0.2684  0.1385 -0.0312
   36DOPE   C31 4546   0.073   3.465  13.483  0.0246  0.5130 -0.4161
   36DOPE   O32 4547  -0.029   3.401  13.459 -0.0747 -0.6524 -0.7879
   36DOPE   C32 4548   0.099   3.538  13.618 -0.1358 -0.0971 -0.0860
   36DOPE   H2X 4549   0.163   3.627  13.599 -1.8218  0.9735 -0.9911
   36DOPE   H2Y 4550  -0.001   3.568  13.655 -0.2897 -0.5735 -0.1164
   36DOPE   C23 4551   0.668   3.426  13.328 -0.1037  0.3359  0.1172
   36DOPE   H3R 4552   0.701   3.529  13.304 -1.4333  0.6554 -0.4243
   36DOPE   H3S 4553   0.754   3.357  13.341 -1.2228 -1.4495 -1.2984
   36DOPE   C24 4554   0.580   3.402  13.451  0.1098 -0.6185  0.4600
   36DOPE   H4R 4555   0.549   3.296  13.466  1.2317 -1.3198 -1.7482
   36DOPE   H4S 4556   0.489   3.464  13.445  0.7664  0.6100  2.4221
   36DOPE   C25 4557   0.666   3.448  13.570 -0.0163 -0.1506  0.5371
   36DOPE   H5R 4558   0.696   3.554  13.554  0.7649 -0.4428  0.0081
   36DOPE   H5S 4559   0.760   3.389  13.570  0.1151 -0.0641  3.5712
   36DOPE   C26 4560   0.601   3.425  13.704  0.2383 -0.0997 -0.4259
   36DOPE   H6R 4561   0.550   3.329  13.724 -2.3802  1.2956  0.0676
   36DOPE   H6S 4562   0.519   3.500  13.715 -1.4095 -2.0486  1.4085
   36DOPE   C27 4563   0.687   3.443  13.835 -0.4452  0.2901 -0.0457
   36DOPE   H7R 4564   0.762   3.520  13.806  0.0626 -0.4473 -0.7414
   36DOPE   H7S 4565   0.734   3.345  13.857 -0.3006  0.3001 -0.3040
   36DOPE   C28 4566   0.598   3.487  13.956 -0.5363  0.6306  0.8607
   36DOPE   H8R 4567   0.650   3.460  14.050  0.3251  0.2252  0.2875
   36DOPE   H8S 4568   0.507   3.424  13.944  1.2005 -2.0129  0.6536
   36DOPE   C29 4569   0.575   3.633  13.947  0.5361 -0.0645  0.0332
   36DOPE   H9R 4570   0.608   3.683  13.855  0.6272  0.8487  0.5528
   36DOPE  C210 4571   0.528   3.712  14.050 -0.4953 -0.5700 -0.0861
   36DOPE  H10R 4572   0.504   3.819  14.036  1.9067  0.0998  0.4541
   36DOPE  C211 4573   0.493   3.663  14.188 -0.7884 -0.0627 -0.7596
   36DOPE  H11R 4574   0.582   3.673  14.254 -1.8275 -1.2169  0.8822
   36DOPE  H11S 4575   0.467   3.555  14.188 -1.0224 -0.1970  3.8280
   36DOPE  C212 4576   0.380   3.750  14.263  0.0663  0.5765  0.4204
   36DOPE  H12R 4577   0.287   3.755  14.201 -1.6197  3.1912  2.9305
   36DOPE  H12S 4578   0.405   3.858  14.268 -0.5431  0.6541  3.3112
   36DOPE  C213 4579   0.366   3.692  14.400  0.2250  0.5231 -0.1424
   36DOPE  H13R 4580   0.468   3.682  14.441 -0.2808 -0.3615  0.9191
   36DOPE  H13S 4581   0.330   3.587  14.395  2.1318 -0.1924  0.4179
   36DOPE  C214 4582   0.272   3.768  14.493  0.1290  0.8361  0.3138
   36DOPE  H14R 4583   0.184   3.800  14.433  0.4831  1.4744  0.1266
   36DOPE  H14S 4584   0.321   3.861  14.526 -1.8897  2.2453 -0.4514
   36DOPE  C215 4585   0.220   3.684  14.609  0.6226  0.1668  0.1745
   36DOPE  H15R 4586   0.305   3.634  14.660  1.3476  0.1461 -1.0052
   36DOPE  H15S 4587   0.164   3.602  14.560  1.8052 -0.6056  0.0772
   36DOPE  C216 4588   0.141   3.764  14.712 -0.4034 -0.4415  0.1719
   36DOPE  H16R 4589   0.052   3.810  14.663 -1.9750  0.3380  3.4745
   36DOPE  H16S 4590   0.199   3.851  14.748  0.3072 -0.8227 -0.0255
   36DOPE  C217 4591   0.077   3.680  14.828 -0.1625 -0.0538  0.0136
   36DOPE  H17R 4592   0.009   3.605  14.783 -1.9190  1.3476  0.2115
   36DOPE  H17S 4593   0.010   3.742  14.892 -0.3859 -0.2409 -0.0383
   36DOPE  C218 4594   0.178   3.609  14.921 -0.4034 -0.1527 -0.1667
   36DOPE  H18R 4595   0.212   3.678  15.002  0.0192 -1.4815  0.8254
   36DOPE  H18S 4596   0.276   3.585  14.875  0.5468  1.0602  1.1314
   36DOPE  H18T 4597   0.127   3.520  14.964 -1.0241  0.5572  0.6041
   36DOPE   C33 4598   0.156   3.430  13.721 -0.2587 -0.2065  0.0552
   36DOPE   H3X 4599   0.239   3.379  13.668 -0.4844  0.3454 -0.8471
   36DOPE   H3Y 4600   0.075   3.357  13.743 -0.6931  0.4873  0.8088
   36DOPE   C34 4601   0.216   3.494  13.848  0.0058  0.4535 -1.0632
   36DOPE   H4X 4602   0.288   3.419  13.889 -0.9242 -0.0501 -0.3277
   36DOPE   H4Y 4603   0.275   3.588  13.841  0.7813  0.0120 -0.6350
   36DOPE   C35 4604   0.124   3.521  13.967 -0.4403 -0.1736  0.5200
   36DOPE   H5X 4605   0.185   3.531  14.059 -0.1558  0.8259  0.2404
   36DOPE   H5Y 4606   0.049   3.441  13.986 -1.0470  1.0576  3.9395
   36DOPE   C36 4607   0.042   3.652  13.939 -0.1584  0.1362 -0.3640
   36DOPE   H6X 4608  -0.054   3.614  13.898 -0.2073 -0.5644  0.3741
   36DOPE   H6Y 4609   0.104   3.700  13.860 -1.8207 -0.3680 -2.0344
   36DOPE   C37 4610   0.034   3.745  14.061 -0.5002 -0.1373  0.6743
   36DOPE   H7X 4611   0.047   3.691  14.157  1.8924  0.4832  0.7572
   36DOPE   H7Y 4612   0.114   3.822  14.063 -1.7305  1.2486 -0.7382
   36DOPE   C38 4613  -0.105   3.808  14.065 -0.0850  0.2528  0.5110
   36DOPE   H8X 4614  -0.188   3.737  14.083 -0.6761  1.0994  1.1900
   36DOPE   H8Y 4615  -0.117   3.848  13.962 -0.2329  0.4689  0.6113
   36DOPE   C39 4616  -0.120   3.932  14.148  0.6344 -0.0023 -0.5697
   36DOPE   H9X 4617  -0.071   4.019  14.103 -0.1089  1.9236  2.1318
   36DOPE  C310 4618  -0.178   3.941  14.268  0.5960 -0.0139 -0.2824
   36DOPE  H10X 4619  -0.187   4.040  14.314 -0.1719 -0.8673  1.4728
   36DOPE  C311 4620  -0.243   3.847  14.360  0.4394 -0.2267 -0.7452
   36DOPE  H11X 4621  -0.352   3.837  14.342  0.6133 -0.2012 -1.8497
   36DOPE  H11Y 4622  -0.205   3.748  14.326  0.8050 -0.6089  0.6760
   36DOPE  C312 4623  -0.197   3.861  14.501 -0.0847  0.2864 -0.1219
   36DOPE  H12X 4624  -0.092   3.894  14.514  0.5946 -1.2649 -1.2541
   36DOPE  H12Y 4625  -0.217   3.759  14.540  0.7791  0.8313  1.8334
   36DOPE  C313 4626  -0.282   3.951  14.590  0.4388  0.0511 -0.6879
   36DOPE  H13X 4627  -0.285   4.060  14.566 -3.4519  0.4557  1.0135
   36DOPE  H13Y 4628  -0.383   3.908  14.600  0.9443 -0.5489  3.4709
   36DOPE  C314 4629  -0.244   3.937  14.742  0.4874 -0.0752 -0.1065
   36DOPE  H14X 4630  -0.133   3.944  14.745  0.7959 -2.4565 -2.2675
   36DOPE  H14Y 4631  -0.266   3.830  14.766  1.5007 -0.2969 -0.1104
   36DOPE  C315 4632  -0.307   4.031  14.849  0.2066 -0.0510  0.0478
   36DOPE  H15X 4633  -0.284   4.139  14.841 -0.9835  0.5224  3.0992
   36DOPE  H15Y 4634  -0.263   4.003  14.947  3.0417  1.6089 -0.6560
   36DOPE  C316 4635  -0.458   4.018  14.875  0.2921 -0.3321 -0.9221
   36DOPE  H16X 4636  -0.481   3.909  14.871  1.3543 -0.7871  2.0836
   36DOPE  H16Y 4637  -0.518   4.073  14.800 -4.0142 -2.0677  0.9018
   36DOPE  C317 4638  -0.493   4.064  15.019  0.0718 -0.2094  0.1230
   36DOPE  H17X 4639  -0.435   3.999  15.087  0.8353  1.4490  1.1435
   36DOPE  H17Y 4640  -0.436   4.160  15.024  1.3243 -0.9315  0.1073
   36DOPE  C318 4641  -0.648   4.064  15.046 -1.1074  0.3147  0.4659
   36DOPE  H18X 4642  -0.669   4.095  15.151  2.9775  1.3284  1.1811
   36DOPE  H18Y 4643  -0.695   4.136  14.975 -1.5986 -0.0553  0.4183
   36DOPE  H18Z 4644  -0.683   3.959  15.037  0.5289 -0.1074 -2.0823
   37DOPE     N 4645   4.290   1.982  12.849 -0.2241 -0.0415  0.0628
   37DOPE   HN1 4646   4.368   1.923  12.886  0.7404  0.2608 -1.4058
   37DOPE   HN2 4647   4.220   1.942  12.783 -2.5410 -1.1617  2.9367
   37DOPE   HN3 4648   4.339   2.062  12.806  1.0045 -0.2702  0.9683
   37DOPE   C12 4649   4.223   2.028  12.976 -0.0387 -0.0893  0.7725
   37DOPE  H12A 4650   4.197   1.933  13.026  1.3250 -0.4178  0.9026
   37DOPE  H12B 4651   4.129   2.086  12.960 -0.7898 -1.1046  1.4215
   37DOPE   C11 4652   4.325   2.103  13.061 -0.3518  0.4437 -0.4519
   37DOPE  H11A 4653   4.278   2.120  13.160 -1.7754 -0.6105 -0.9121
   37DOPE  H11B 4654   4.337   2.203  13.012 -0.5592  0.4780 -0.4373
   37DOPE     P 4655   4.571   2.111  13.127  0.0872 -0.2105 -0.2634
   37DOPE   O13 4656   4.621   2.197  13.014 -0.1172  0.6569 -0.0901
   37DOPE   O14 4657   4.665   2.020  13.192 -0.0036 -0.3901 -0.1903
   37DOPE   O11 4658   4.510   2.200  13.243 -0.6440  0.8601  0.0076
   37DOPE   O12 4659   4.444   2.027  13.074 -0.2872  0.3476 -0.2920
   37DOPE    C1 4660   4.465   2.145  13.368 -0.0705 -0.3601  0.4206
   37DOPE    HA 4661   4.464   2.034  13.367 -0.1458 -0.3982 -2.2463
   37DOPE    HB 4662   4.360   2.178  13.385  0.4792  1.9869 -0.3009
   37DOPE    C2 4663   4.554   2.179  13.493 -0.1444  0.0173 -0.0958
   37DOPE    HS 4664   4.495   2.132  13.575 -0.3325 -1.0048 -0.8099
   37DOPE   O21 4665   4.570   2.323  13.509 -0.7299  0.0106  0.0288
   37DOPE   C21 4666   4.473   2.378  13.578  0.2663 -0.3271  0.0370
   37DOPE   O22 4667   4.374   2.320  13.615  0.4353 -0.5921 -0.3371
   37DOPE   C22 4668   4.508   2.524  13.589 -0.6740  0.2113 -0.5806
   37DOPE   H2R 4669   4.461   2.575  13.502 -0.3441 -1.4365 -1.7795
   37DOPE   H2S 4670   4.619   2.530  13.594 -0.6971 -0.0469  3.0752
   37DOPE    C3 4671   4.692   2.111  13.482 -0.4010 -0.4195 -0.2885
   37DOPE    HX 4672   4.765   2.163  13.417  1.3018 -0.5087  1.4592
   37DOPE    HY 4673   4.668   2.011  13.439 -0.3732 -0.5745  0.0468
   37DOPE   O31 4674   4.742   2.096  13.615  0.0874 -0.1183 -0.3437
   37DOPE   C31 4675   4.842   2.022  13.628  0.0399  0.2010 -0.4611
   37DOPE   O32 4676   4.905   1.968  13.539  1.1202 -0.0037 -0.4349
   37DOPE   C32 4677   4.885   2.024  13.774 -0.0279 -0.2448 -0.5178
   37DOPE   H2X 4678   4.902   2.133  13.790  3.1737 -0.7680  0.3401
   37DOPE   H2Y 4679   4.797   1.980  13.825 -0.6380  0.9539 -0.5040
   37DOPE   C23 4680   4.447   2.593  13.711  0.7794  0.4805  0.6090
   37DOPE   H3R 4681   4.416   2.519  13.787 -2.7495  1.6235  0.4657
   37DOPE   H3S 4682   4.350   2.638  13.681  0.8406 -0.2435 -0.7516
   37DOPE   C24 4683   4.524   2.702  13.774 -0.0479  0.3059 -0.1655
   37DOPE   H4R 4684   4.572   2.770  13.701 -0.5298 -0.7226 -1.4946
   37DOPE   H4S 4685   4.600   2.641  13.825  1.2664  0.8495 -1.4024
   37DOPE   C25 4686   4.435   2.777  13.876  0.3114  0.8749 -0.4523
   37DOPE   H5R 4687   4.412   2.700  13.954 -1.7289  2.7233  0.8973
   37DOPE   H5S 4688   4.343   2.816  13.827  0.8037  2.8482  0.1174
   37DOPE   C26 4689   4.494   2.887  13.966  0.0679  0.1494  0.5861
   37DOPE   H6R 4690   4.430   2.916  14.052  0.7115  0.8332  0.8434
   37DOPE   H6S 4691   4.523   2.972  13.901  2.9426 -0.0849  1.4240
   37DOPE   C27 4692   4.633   2.855  14.027 -0.1465 -0.0152 -0.2329
   37DOPE   H7R 4693   4.668   2.951  14.072 -3.7453  0.5988  1.6808
   37DOPE   H7S 4694   4.698   2.836  13.939 -0.4791 -0.6988 -0.3321
   37DOPE   C28 4695   4.641   2.746  14.132  0.6401 -0.2149 -0.0839
   37DOPE   H8R 4696   4.749   2.721  14.140  0.6848  0.0410  0.1086
   37DOPE   H8S 4697   4.596   2.652  14.092 -3.5369  1.8923 -0.9820
   37DOPE   C29 4698   4.588   2.785  14.265 -0.0257  0.7009  0.4267
   37DOPE   H9R 4699   4.490   2.834  14.257 -1.6642 -2.4380 -0.0168
   37DOPE  C210 4700   4.648   2.755  14.379  0.3313 -0.1214  0.2788
   37DOPE  H10R 4701   4.608   2.808  14.467  1.5987 -0.7733  1.2868
   37DOPE  C211 4702   4.777   2.679  14.396  0.8910  0.2295 -0.7602
   37DOPE  H11R 4703   4.777   2.596  14.322 -0.6559 -0.1539 -0.3636
   37DOPE  H11S 4704   4.772   2.637  14.499 -0.6248  2.6494  0.2211
   37DOPE  C212 4705   4.914   2.762  14.389  0.6265 -1.0315  0.5892
   37DOPE  H12R 4706   4.928   2.814  14.486  1.7692  1.2511 -0.7175
   37DOPE  H12S 4707   4.900   2.844  14.315 -3.2570 -1.7705  0.2919
   37DOPE  C213 4708   5.030   2.683  14.333 -0.3532  0.5999  0.2062
   37DOPE  H13R 4709   5.120   2.748  14.332 -2.8567  4.3992 -1.3992
   37DOPE  H13S 4710   5.004   2.644  14.232 -0.3109 -0.8897  0.7456
   37DOPE  C214 4711   5.060   2.559  14.422  0.0766  0.2724  0.7494
   37DOPE  H14R 4712   4.977   2.484  14.421 -0.8674  1.2894  0.2187
   37DOPE  H14S 4713   5.074   2.588  14.528 -0.1612  1.8557  0.3789
   37DOPE  C215 4714   5.182   2.482  14.365  0.5986  0.3946  0.2997
   37DOPE  H15R 4715   5.256   2.559  14.334 -0.0645  0.3290 -1.5816
   37DOPE  H15S 4716   5.139   2.430  14.276 -0.2557 -0.7087  1.3219
   37DOPE  C216 4717   5.238   2.360  14.450 -0.6931 -0.0041 -0.1091
   37DOPE  H16R 4718   5.181   2.268  14.426  0.9506 -0.6406 -1.9397
   37DOPE  H16S 4719   5.235   2.384  14.558  1.1836  0.4188 -0.1046
   37DOPE  C217 4720   5.386   2.321  14.416 -0.0980 -0.5720 -0.0920
   37DOPE  H17R 4721   5.450   2.409  14.435 -0.3473 -0.4751  0.3005
   37DOPE  H17S 4722   5.390   2.297  14.307 -0.3093  2.0936 -0.7510
   37DOPE  C218 4723   5.447   2.202  14.493 -1.3222 -0.1995  0.2480
   37DOPE  H18R 4724   5.467   2.224  14.600  1.1906 -0.2735 -0.1477
   37DOPE  H18S 4725   5.547   2.176  14.453 -0.9577  1.1667  0.2350
   37DOPE  H18T 4726   5.394   2.105  14.490  2.1902 -2.2784 -0.6558
   37DOPE   C33 4727   5.016   1.951  13.795  0.3474  0.0220  0.3876
   37DOPE   H3X 4728   5.098   2.004  13.743  0.9045 -0.3356  0.8907
   37DOPE   H3Y 4729   5.006   1.853  13.743  1.7041  1.2840 -2.4655
   37DOPE   C34 4730   5.062   1.943  13.941  0.2301 -0.2247  0.0881
   37DOPE   H4X 4731   5.091   2.043  13.980 -0.5293 -0.4693  1.3381
   37DOPE   H4Y 4732   4.975   1.916  14.004 -0.5690  0.8757 -0.5073
   37DOPE   C35 4733   5.181   1.855  13.960  0.1836  0.1206  0.0631
   37DOPE   H5X 4734   5.259   1.870  13.883  1.1739  1.6361  1.2963
   37DOPE   H5Y 4735   5.148   1.749  13.962  3.2539 -0.9144  0.6639
   37DOPE   C36 4736   5.249   1.870  14.097 -0.2717  0.4818 -0.1853
   37DOPE   H6X 4737   5.297   1.971  14.091  0.0185  0.2901 -1.1699
   37DOPE   H6Y 4738   5.328   1.792  14.090 -1.1591 -0.4140 -0.4587
   37DOPE   C37 4739   5.163   1.844  14.223  0.4331  0.4840  0.7432
   37DOPE   H7X 4740   5.076   1.912  14.233 -0.9740 -1.2099  0.4880
   37DOPE   H7Y 4741   5.127   1.739  14.216 -0.4251  0.8533 -1.0461
   37DOPE   C38 4742   5.236   1.878  14.360  0.5736  0.4646 -0.1638
   37DOPE   H8X 4743   5.262   1.984  14.381  0.6813  0.6130 -0.9975
   37DOPE   H8Y 4744   5.339   1.842  14.339  1.2620  3.0695 -1.8126
   37DOPE   C39 4745   5.170   1.824  14.486  0.9168  0.3303 -0.6557
   37DOPE   H9X 4746   5.190   1.716  14.493 -1.3802 -0.1331 -0.3953
   37DOPE  C310 4747   5.101   1.892  14.583  0.1200 -0.0084 -0.8500
   37DOPE  H10X 4748   5.043   1.832  14.654 -0.0248  0.6456 -0.4108
   37DOPE  C311 4749   5.075   2.036  14.591 -0.3472  0.3388 -0.6687
   37DOPE  H11X 4750   5.165   2.081  14.637  1.6474 -0.7059 -3.2948
   37DOPE  H11Y 4751   5.064   2.094  14.497 -1.5336 -1.7499 -1.8954
   37DOPE  C312 4752   4.954   2.074  14.681  0.2509  0.1742  0.3857
   37DOPE  H12X 4753   4.942   2.036  14.785 -2.6238  0.2862  0.1867
   37DOPE  H12Y 4754   4.857   2.038  14.639  0.2634 -0.8327  1.1782
   37DOPE  C313 4755   4.938   2.221  14.701  0.7573  0.5433 -0.3745
   37DOPE  H13X 4756   5.039   2.256  14.732  1.6938 -2.2515  0.0188
   37DOPE  H13Y 4757   4.917   2.268  14.602 -0.7130 -3.3088 -2.0641
   37DOPE  C314 4758   4.828   2.274  14.795  0.8059  0.0159 -0.2375
   37DOPE  H14X 4759   4.863   2.236  14.893  0.0984  1.7935  0.7496
   37DOPE  H14Y 4760   4.731   2.237  14.754  1.4041 -0.8940 -0.8416
   37DOPE  C315 4761   4.831   2.427  14.796  0.1928  0.0023  0.1799
   37DOPE  H15X 4762   4.812   2.461  14.691 -0.7016 -3.1864 -0.7997
   37DOPE  H15Y 4763   4.935   2.452  14.826  0.4586  0.8771 -1.3390
   37DOPE  C316 4764   4.730   2.492  14.895 -0.0772 -0.0730  0.2055
   37DOPE  H16X 4765   4.739   2.442  14.994 -0.4954 -0.2188  0.1754
   37DOPE  H16Y 4766   4.626   2.473  14.861  0.6971 -0.5089 -2.0942
   37DOPE  C317 4767   4.740   2.648  14.902  0.2872 -0.3495  0.6460
   37DOPE  H17X 4768   4.684   2.681  14.992 -0.6981 -1.9917  0.6915
   37DOPE  H17Y 4769   4.843   2.677  14.930 -0.6817  2.7758  1.3174
   37DOPE  C318 4770   4.691   2.728  14.783 -0.0326 -0.0312 -0.1007
   37DOPE  H18X 4771   4.592   2.702  14.740 -0.6985  0.6177  0.9901
   37DOPE  H18Y 4772   4.694   2.838  14.798 -1.0969  0.2706 -1.8626
   37DOPE  H18Z 4773   4.766   2.707  14.705 -0.1149 -0.4263 -0.0760
   38DOPE     N 4774   6.867   4.475  13.517  0.5780 -0.5048 -0.2975
   38DOPE   HN1 4775   6.781   4.529  13.495  0.5799 -0.8194 -1.0695
   38DOPE   HN2 4776   6.845   4.383  13.560 -0.6716 -0.6235 -1.1427
   38DOPE   HN3 4777   6.915   4.541  13.582 -1.5661  0.5813  0.2768
   38DOPE   C12 4778   6.944   4.451  13.386  0.2200  0.0184 -1.1652
   38DOPE  H12A 4779   7.045   4.417  13.418  0.2510  2.0708  1.2762
   38DOPE  H12B 4780   6.953   4.549  13.334 -0.4040 -0.0369 -1.3841
   38DOPE   C11 4781   6.866   4.349  13.298  0.2368  0.4052  0.6132
   38DOPE  H11A 4782   6.852   4.254  13.354  0.7488 -1.4468 -2.2191
   38DOPE  H11B 4783   6.933   4.322  13.214  1.6667  1.1398  1.4763
   38DOPE     P 4784   6.621   4.319  13.189 -0.2065  0.1706 -0.1000
   38DOPE   O13 4785   6.681   4.193  13.139 -0.2662 -0.5148  0.4310
   38DOPE   O14 4786   6.554   4.404  13.091  0.3440  0.1390  0.4294
   38DOPE   O11 4787   6.519   4.282  13.305  0.2833 -0.1426 -0.1366
   38DOPE   O12 4788   6.736   4.408  13.262 -0.2863  0.2186 -0.2186
   38DOPE    C1 4789   6.518   4.361  13.422  0.0647  0.1668  0.2864
   38DOPE    HA 4790   6.513   4.469  13.399 -1.7760  0.4360  1.6273
   38DOPE    HB 4791   6.608   4.344  13.485 -0.7547 -0.1656  1.4108
   38DOPE    C2 4792   6.398   4.325  13.510  0.4421  0.5675  0.2665
   38DOPE    HS 4793   6.413   4.381  13.605 -1.1790  0.1499  0.8044
   38DOPE   O21 4794   6.395   4.180  13.529  0.3371  0.1824  0.5334
   38DOPE   C21 4795   6.466   4.130  13.622 -0.3863 -0.3158  0.4653
   38DOPE   O22 4796   6.543   4.187  13.698  0.3303 -0.2020 -0.3204
   38DOPE   C22 4797   6.443   3.984  13.628  0.4384  0.0974  0.0851
   38DOPE   H2R 4798   6.492   3.944  13.536  4.1733  0.6351  1.6522
   38DOPE   H2S 4799   6.333   3.972  13.618  0.2186  2.8710 -2.0309
   38DOPE    C3 4800   6.265   4.370  13.440 -0.4122  0.1265  0.1694
   38DOPE    HX 4801   6.268   4.322  13.340  0.1258 -0.2175  0.3456
   38DOPE    HY 4802   6.260   4.480  13.428 -0.3929  0.4994  2.8106
   38DOPE   O31 4803   6.154   4.318  13.513 -0.2289 -0.1193  0.6099
   38DOPE   C31 4804   6.124   4.393  13.617  0.1896 -0.4282  0.2581
   38DOPE   O32 4805   6.184   4.491  13.658  0.3623 -0.7385 -0.0752
   38DOPE   C32 4806   5.984   4.343  13.669  0.3519 -0.9764  0.5233
   38DOPE   H2X 4807   5.907   4.421  13.655 -1.6958 -3.1556 -1.0373
   38DOPE   H2Y 4808   5.958   4.252  13.610  2.4504 -1.3892  0.1359
   38DOPE   C23 4809   6.514   3.915  13.742  0.2431  0.5526  0.0077
   38DOPE   H3R 4810   6.620   3.949  13.748  0.8516 -0.9870 -1.1533
   38DOPE   H3S 4811   6.517   3.809  13.709 -1.2441 -0.3828  2.6141
   38DOPE   C24 4812   6.441   3.909  13.880 -0.2344 -0.1129 -0.6740
   38DOPE   H4R 4813   6.341   3.863  13.871 -1.0361  1.5433 -0.5067
   38DOPE   H4S 4814   6.431   4.013  13.919 -1.8189 -1.8297  4.2802
   38DOPE   C25 4815   6.508   3.817  13.982 -0.2418  0.0554 -0.1269
   38DOPE   H5R 4816   6.618   3.825  13.994 -0.3923  0.0458  1.5261
   38DOPE   H5S 4817   6.488   3.712  13.954 -1.3432  1.0522 -3.6367
   38DOPE   C26 4818   6.455   3.846  14.126  0.3819 -0.0823  0.7981
   38DOPE   H6R 4819   6.348   3.819  14.125  0.2614  0.3555  1.8167
   38DOPE   H6S 4820   6.447   3.957  14.127  0.5591 -0.0693  0.9334
   38DOPE   C27 4821   6.532   3.799  14.240 -0.6752  0.4282  0.4828
   38DOPE   H7R 4822   6.635   3.841  14.238 -0.6236  0.2997  0.4614
   38DOPE   H7S 4823   6.550   3.690  14.236  0.1059  0.5594  0.2217
   38DOPE   C28 4824   6.452   3.843  14.370 -0.5347  0.1715  0.5560
   38DOPE   H8R 4825   6.348   3.804  14.371 -1.1611  1.7596  1.0596
   38DOPE   H8S 4826   6.447   3.954  14.366  1.4001  0.3752  2.3130
   38DOPE   C29 4827   6.533   3.793  14.484 -0.5311 -0.1757 -0.5016
   38DOPE   H9R 4828   6.636   3.832  14.483 -0.9227  1.1176  1.7060
   38DOPE  C210 4829   6.493   3.699  14.573 -0.4147  0.8023  0.4400
   38DOPE  H10R 4830   6.565   3.653  14.643  0.7371 -0.7046 -1.6358
   38DOPE  C211 4831   6.353   3.633  14.559 -0.1364  0.4352 -0.1552
   38DOPE  H11R 4832   6.333   3.580  14.464 -2.7231 -0.1518  0.6435
   38DOPE  H11S 4833   6.268   3.705  14.565 -1.3577 -1.0241  0.8149
   38DOPE  C212 4834   6.325   3.526  14.669  0.1487  0.5158 -0.1392
   38DOPE  H12R 4835   6.406   3.451  14.676 -0.4029  0.0666  2.0901
   38DOPE  H12S 4836   6.232   3.468  14.651  0.7542 -2.0877  3.8700
   38DOPE  C213 4837   6.322   3.589  14.808  0.1339  0.8809 -0.2733
   38DOPE  H13R 4838   6.234   3.653  14.829  0.4168  1.1029  0.2557
   38DOPE  H13S 4839   6.409   3.657  14.820  0.1922  0.4633  2.3795
   38DOPE  C214 4840   6.335   3.492  14.925 -0.3301 -0.7775  0.0453
   38DOPE  H14R 4841   6.359   3.548  15.018  0.8785 -1.0555 -0.0805
   38DOPE  H14S 4842   6.424   3.426  14.918 -0.6792 -1.2053 -0.4704
   38DOPE  C215 4843   6.204   3.421  14.948 -0.7033  0.2719 -1.2514
   38DOPE  H15R 4844   6.172   3.368  14.855  1.8182 -1.1802 -1.3838
   38DOPE  H15S 4845   6.124   3.497  14.961 -0.7039  0.1679 -0.5940
   38DOPE  C216 4846   6.193   3.328  15.074  0.2173 -0.0917 -0.7067
   38DOPE  H16R 4847   6.213   3.386  15.167  0.4357  1.6226 -1.7797
   38DOPE  H16S 4848   6.269   3.247  15.065 -1.3616 -1.7822  0.3434
   38DOPE  C217 4849   6.051   3.272  15.079 -0.6493 -0.6706  0.6139
   38DOPE  H17R 4850   6.021   3.222  14.985  0.7003 -0.2566 -0.0538
   38DOPE  H17S 4851   5.991   3.366  15.087  1.7893  0.8590  2.2901
   38DOPE  C218 4852   6.027   3.186  15.206 -0.4277 -0.5294 -0.2880
   38DOPE  H18R 4853   5.920   3.163  15.223 -1.1921  1.7238 -1.5629
   38DOPE  H18S 4854   6.071   3.242  15.291  0.2784  0.6177 -1.3594
   38DOPE  H18T 4855   6.087   3.095  15.187 -0.0744 -0.7577  1.7572
   38DOPE   C33 4856   5.980   4.321  13.815 -0.2584 -0.0271  0.1024
   38DOPE   H3X 4857   5.875   4.300  13.843 -0.8556  1.1413 -1.1577
   38DOPE   H3Y 4858   6.008   4.413  13.871 -0.4786 -0.8775  1.6780
   38DOPE   C34 4859   6.067   4.216  13.883 -0.9154 -0.4760  0.1622
   38DOPE   H4X 4860   6.047   4.118  13.834 -1.1756  0.3363 -1.4085
   38DOPE   H4Y 4861   6.170   4.253  13.868 -0.2583 -1.2386  2.4275
   38DOPE   C35 4862   6.054   4.209  14.028  0.1456  0.4914 -1.6257
   38DOPE   H5X 4863   5.952   4.195  14.071  1.1125  1.2059  1.0938
   38DOPE   H5Y 4864   6.089   4.311  14.052 -0.3083  0.5213 -1.0588
   38DOPE   C36 4865   6.140   4.099  14.087  0.8852 -0.0076  0.3827
   38DOPE   H6X 4866   6.241   4.093  14.040  0.6234 -1.6567 -0.0205
   38DOPE   H6Y 4867   6.103   3.998  14.060 -0.7262  0.4277  0.8453
   38DOPE   C37 4868   6.163   4.101  14.239 -0.0138  0.1968  0.0780
   38DOPE   H7X 4869   6.065   4.107  14.292  0.2424 -0.4992  0.6637
   38DOPE   H7Y 4870   6.215   4.004  14.258 -0.3875 -0.2307 -1.0127
   38DOPE   C38 4871   6.244   4.222  14.296  0.1694  1.1454 -0.4538
   38DOPE   H8X 4872   6.193   4.319  14.277 -0.4440  0.5042 -2.4336
   38DOPE   H8Y 4873   6.334   4.220  14.232 -0.0777  0.7045 -0.7954
   38DOPE   C39 4874   6.287   4.208  14.440  0.4064  0.2662 -0.4908
   38DOPE   H9X 4875   6.308   4.103  14.467 -0.6914  0.2164  0.2366
   38DOPE  C310 4876   6.300   4.310  14.531  0.2571  0.1442 -1.0552
   38DOPE  H10X 4877   6.291   4.283  14.637  0.5538 -0.2263 -1.1229
   38DOPE  C311 4878   6.267   4.455  14.502  0.6453  0.4192 -0.0720
   38DOPE  H11X 4879   6.282   4.477  14.394  2.6957 -0.0503  0.0675
   38DOPE  H11Y 4880   6.165   4.486  14.533  0.6134 -0.8023  1.1182
   38DOPE  C312 4881   6.358   4.553  14.573  0.5255 -0.4388  0.0393
   38DOPE  H12X 4882   6.334   4.655  14.537 -1.7124  0.0573  2.6109
   38DOPE  H12Y 4883   6.460   4.519  14.543 -0.3144 -1.7963 -1.4354
   38DOPE  C313 4884   6.353   4.564  14.726 -0.3799  0.1681 -0.0987
   38DOPE  H13X 4885   6.250   4.589  14.759 -0.4575  0.9746 -0.9167
   38DOPE  H13Y 4886   6.369   4.459  14.760 -1.9937  0.2399  0.9967
   38DOPE  C314 4887   6.467   4.650  14.785  0.1492  0.3901 -1.0975
   38DOPE  H14X 4888   6.427   4.753  14.794  0.3099  0.4829 -1.4013
   38DOPE  H14Y 4889   6.548   4.653  14.708  0.4210  0.8867 -0.7906
   38DOPE  C315 4890   6.529   4.597  14.916  0.3820  0.0293  0.5822
   38DOPE  H15X 4891   6.459   4.605  15.002  0.0768  1.7916  0.2271
   38DOPE  H15Y 4892   6.618   4.661  14.937  0.1001  0.7481 -0.3159
   38DOPE  C316 4893   6.583   4.453  14.915 -0.5611  0.1213 -0.1208
   38DOPE  H16X 4894   6.620   4.433  14.813 -0.9587  1.2297 -0.4928
   38DOPE  H16Y 4895   6.492   4.389  14.926 -1.3209  1.0211 -0.9924
   38DOPE  C317 4896   6.694   4.439  15.020  0.6295  0.0808 -0.1274
   38DOPE  H17X 4897   6.766   4.523  15.019  1.7618 -0.8456  0.8631
   38DOPE  H17Y 4898   6.645   4.447  15.119 -4.6208  1.8097 -2.4907
   38DOPE  C318 4899   6.771   4.309  15.014 -0.3854  0.3924 -0.0226
   38DOPE  H18X 4900   6.852   4.290  15.088  1.5115  3.7355 -0.9929
   38DOPE  H18Y 4901   6.698   4.226  15.015 -2.5448  2.1974 -0.0164
   38DOPE  H18Z 4902   6.829   4.298  14.919  3.5860 -1.6630  2.3811
   39DOPE     N 4903   3.682   2.918  13.109 -0.2344 -0.2701  0.2661
   39DOPE   HN1 4904   3.727   2.992  13.052 -1.5315  0.0201 -0.4146
   39DOPE   HN2 4905   3.754   2.870  13.168  0.3403  0.3652  0.0881
   39DOPE   HN3 4906   3.642   2.847  13.044  1.1375 -1.2480  0.4387
   39DOPE   C12 4907   3.570   2.970  13.187  0.7573 -0.2814 -1.0642
   39DOPE  H12A 4908   3.610   3.040  13.264 -0.9099  1.1579 -1.4330
   39DOPE  H12B 4909   3.505   2.887  13.224 -0.8591  0.7378 -1.4899
   39DOPE   C11 4910   3.475   3.050  13.097  0.4434  0.4332  0.4602
   39DOPE  H11A 4911   3.534   3.118  13.032 -1.1531  0.8693 -0.6022
   39DOPE  H11B 4912   3.405   3.105  13.164  0.7131 -2.2605  3.1536
   39DOPE     P 4913   3.255   2.968  12.981  0.4357  0.1347  0.4036
   39DOPE   O13 4914   3.214   2.837  12.921 -0.0385 -0.1228  0.3643
   39DOPE   O14 4915   3.237   3.097  12.905 -0.0594 -0.2369  0.4503
   39DOPE   O11 4916   3.196   2.975  13.129  0.3606 -0.3233  0.1127
   39DOPE   O12 4917   3.412   2.950  13.008  0.0731  0.2952  0.1750
   39DOPE    C1 4918   3.213   2.856  13.210  0.3490 -0.0969 -0.1022
   39DOPE    HA 4919   3.306   2.798  13.188  0.2509 -0.9298  1.5475
   39DOPE    HB 4920   3.125   2.789  13.207  1.4127 -1.5872  0.4741
   39DOPE    C2 4921   3.207   2.892  13.356 -0.9341  0.4448  0.3566
   39DOPE    HS 4922   3.104   2.930  13.374 -1.2694 -0.4082  0.2862
   39DOPE   O21 4923   3.313   2.991  13.383  0.4379 -0.0610 -0.3246
   39DOPE   C21 4924   3.298   3.047  13.503 -0.4065 -0.0760  0.3996
   39DOPE   O22 4925   3.201   3.044  13.573 -0.1782  0.1923 -0.1965
   39DOPE   C22 4926   3.416   3.133  13.533  0.6430 -0.3688  0.0282
   39DOPE   H2R 4927   3.425   3.201  13.446  0.0710 -0.2935  0.0258
   39DOPE   H2S 4928   3.502   3.065  13.554  0.0689 -1.4467 -1.0021
   39DOPE    C3 4929   3.227   2.761  13.443  0.0817  0.5561  0.1479
   39DOPE    HX 4930   3.332   2.734  13.418 -0.5037  0.0879 -1.9620
   39DOPE    HY 4931   3.165   2.675  13.412  0.4583 -0.1298  1.2363
   39DOPE   O31 4932   3.207   2.783  13.587  0.1269 -0.0717 -0.0315
   39DOPE   C31 4933   3.096   2.750  13.635 -0.2505 -0.0731  0.0516
   39DOPE   O32 4934   2.988   2.747  13.576  0.0059  0.2886  0.7022
   39DOPE   C32 4935   3.106   2.744  13.787  0.0782 -0.4426 -0.4302
   39DOPE   H2X 4936   3.170   2.661  13.822 -0.3252  0.3297  2.4006
   39DOPE   H2Y 4937   3.163   2.835  13.818 -1.3834  0.5849 -0.6251
   39DOPE   C23 4938   3.413   3.211  13.668 -0.1398  0.5540  0.1192
   39DOPE   H3R 4939   3.418   3.134  13.748  3.8436 -0.4666 -0.8727
   39DOPE   H3S 4940   3.321   3.273  13.670  0.4800  1.5123 -0.3092
   39DOPE   C24 4941   3.531   3.314  13.688  0.4447 -0.1568  0.1988
   39DOPE   H4R 4942   3.526   3.389  13.770  0.8589  0.7662 -0.5979
   39DOPE   H4S 4943   3.532   3.373  13.594 -2.6066 -1.6537 -0.9231
   39DOPE   C25 4944   3.665   3.250  13.717 -0.1241 -0.5241 -0.4792
   39DOPE   H5R 4945   3.682   3.158  13.655  2.5260  0.7249 -1.7874
   39DOPE   H5S 4946   3.678   3.227  13.824 -0.3140  1.3458 -0.0199
   39DOPE   C26 4947   3.774   3.351  13.681  0.1951 -0.5227 -0.0135
   39DOPE   H6R 4948   3.766   3.446  13.738 -0.8972  1.3327 -2.9914
   39DOPE   H6S 4949   3.762   3.382  13.575 -0.3688  0.2545  0.2666
   39DOPE   C27 4950   3.914   3.285  13.695  0.1976  0.0434 -0.8244
   39DOPE   H7R 4951   3.980   3.334  13.620 -0.4092 -0.3681 -1.6389
   39DOPE   H7S 4952   3.904   3.178  13.666 -0.2557 -0.7993  2.1039
   39DOPE   C28 4953   3.969   3.290  13.841  0.6559  0.4280 -0.5890
   39DOPE   H8R 4954   3.899   3.229  13.903  0.2669  0.8499 -0.6039
   39DOPE   H8S 4955   3.964   3.392  13.884 -0.4331  0.0702  0.2029
   39DOPE   C29 4956   4.106   3.243  13.855 -1.3926  0.5152 -0.1765
   39DOPE   H9R 4957   4.179   3.323  13.836  0.5926 -0.1165  3.7599
   39DOPE  C210 4958   4.146   3.114  13.866 -0.2696 -0.7289  0.2871
   39DOPE  H10R 4959   4.254   3.096  13.863  0.2169  1.8542  0.2380
   39DOPE  C211 4960   4.055   2.992  13.875 -0.1850 -0.8201 -0.0035
   39DOPE  H11R 4961   4.092   2.920  13.799 -1.0273 -1.6125  0.3157
   39DOPE  H11S 4962   3.953   3.017  13.837  0.6123  1.4173 -0.8885
   39DOPE  C212 4963   4.059   2.916  14.006 -0.0450 -0.6354 -0.0499
   39DOPE  H12R 4964   4.160   2.888  14.044 -0.3531 -0.9496  0.5506
   39DOPE  H12S 4965   4.004   2.825  13.974 -0.5696  0.1037 -1.3054
   39DOPE  C213 4966   3.977   2.981  14.113 -0.2829  0.1853 -0.4100
   39DOPE  H13R 4967   3.886   3.023  14.065  0.3102  0.8773 -0.9490
   39DOPE  H13S 4968   4.037   3.056  14.169  4.8045 -1.8071 -2.5664
   39DOPE  C214 4969   3.926   2.886  14.230  0.1440 -0.0964 -0.7902
   39DOPE  H14R 4970   3.883   2.793  14.186 -1.1519 -0.3282  0.8326
   39DOPE  H14S 4971   3.832   2.933  14.267 -0.7627 -1.7464 -0.8612
   39DOPE  C215 4972   4.024   2.862  14.342  0.2091 -0.0924  0.4798
   39DOPE  H15R 4973   4.052   2.955  14.395  0.3864 -0.5646  1.2241
   39DOPE  H15S 4974   4.103   2.802  14.290 -2.0718 -1.8050 -1.1945
   39DOPE  C216 4975   3.963   2.777  14.449 -0.3930 -0.4562  0.2754
   39DOPE  H16R 4976   3.913   2.690  14.401  1.5185 -1.5217  0.1112
   39DOPE  H16S 4977   3.890   2.838  14.506  1.4904  1.5221  0.6993
   39DOPE  C217 4978   4.065   2.714  14.540 -0.2325 -0.0574  0.1126
   39DOPE  H17R 4979   4.066   2.786  14.624 -0.4329 -0.8586  0.8153
   39DOPE  H17S 4980   4.163   2.715  14.487 -0.5124 -0.6132 -0.4355
   39DOPE  C218 4981   4.038   2.575  14.594 -0.9997  0.1144  0.3733
   39DOPE  H18R 4982   3.957   2.579  14.671 -1.0236  0.8156  0.3190
   39DOPE  H18S 4983   4.133   2.530  14.631 -0.2985 -0.8183 -2.3696
   39DOPE  H18T 4984   4.008   2.519  14.503 -2.7371  0.7822  0.4968
   39DOPE   C33 4985   2.965   2.759  13.864  0.4317  0.0594  0.0916
   39DOPE   H3X 4986   2.891   2.681  13.836  0.0505 -0.3821  2.1727
   39DOPE   H3Y 4987   2.919   2.857  13.839 -0.0879 -0.1838  0.0859
   39DOPE   C34 4988   2.986   2.741  14.009 -0.6996  0.0628  0.0001
   39DOPE   H4X 4989   3.015   2.634  14.019 -1.2029 -0.1845 -1.0513
   39DOPE   H4Y 4990   3.074   2.805  14.031 -0.5504 -0.6933  1.8021
   39DOPE   C35 4991   2.869   2.784  14.099  0.0345  0.2207  0.4239
   39DOPE   H5X 4992   2.771   2.742  14.067 -0.5633  0.9434  1.2554
   39DOPE   H5Y 4993   2.868   2.895  14.096 -0.8330  0.2486  1.1531
   39DOPE   C36 4994   2.905   2.731  14.245  0.1880  0.2951 -0.6963
   39DOPE   H6X 4995   3.007   2.767  14.272  1.0661 -2.2287 -0.4266
   39DOPE   H6Y 4996   2.911   2.621  14.230  1.5060  0.5399 -2.3441
   39DOPE   C37 4997   2.798   2.778  14.348 -0.4344  0.6886 -0.0099
   39DOPE   H7X 4998   2.817   2.883  14.379 -0.1754  0.8204 -0.6035
   39DOPE   H7Y 4999   2.701   2.773  14.294  0.9333  0.8581 -2.6239
   39DOPE   C38 5000   2.800   2.681  14.474  0.1194 -0.3941  0.6450
   39DOPE   H8X 5001   2.774   2.583  14.428  1.5726 -1.3595  1.7787
   39DOPE   H8Y 5002   2.725   2.730  14.539 -0.4628  1.4908 -1.3066
   39DOPE   C39 5003   2.932   2.670  14.537  0.3884  0.7018 -0.5237
   39DOPE   H9X 5004   2.974   2.769  14.560  1.9092  0.1511 -0.7570
   39DOPE  C310 5005   3.007   2.560  14.546 -0.0470 -0.6506 -0.4784
   39DOPE  H10X 5006   3.101   2.571  14.603 -1.1922  0.9267  1.2329
   39DOPE  C311 5007   2.982   2.425  14.498 -0.3053  0.1076 -0.1407
   39DOPE  H11X 5008   2.921   2.426  14.405 -0.2439 -2.3046 -0.2699
   39DOPE  H11Y 5009   3.070   2.365  14.467  0.5486  2.4663 -2.6796
   39DOPE  C312 5010   2.889   2.356  14.594  0.3748 -0.6458 -0.2179
   39DOPE  H12X 5011   2.791   2.409  14.603 -0.0172 -1.0201 -1.9668
   39DOPE  H12Y 5012   2.929   2.367  14.697  0.6623  3.2802 -0.5989
   39DOPE  C313 5013   2.860   2.220  14.551  0.1967 -0.1576  0.0297
   39DOPE  H13X 5014   2.788   2.217  14.467 -1.2386  1.6175  1.1183
   39DOPE  H13Y 5015   2.953   2.166  14.522 -0.4361 -1.9173  1.1402
   39DOPE  C314 5016   2.807   2.147  14.674 -0.0358  0.1037  0.3079
   39DOPE  H14X 5017   2.722   2.198  14.724  1.2664  1.6755  1.0448
   39DOPE  H14Y 5018   2.898   2.153  14.738  0.9867  1.4045 -1.1773
   39DOPE  C315 5019   2.767   2.005  14.648 -1.3816  0.0787  0.3711
   39DOPE  H15X 5020   2.853   1.946  14.610 -0.7440 -0.1766  2.1124
   39DOPE  H15Y 5021   2.690   1.989  14.569  0.9327 -2.1283 -1.6040
   39DOPE  C316 5022   2.729   1.923  14.774  0.1026 -0.7799 -0.1369
   39DOPE  H16X 5023   2.807   1.918  14.853 -1.5278 -0.5285  1.5679
   39DOPE  H16Y 5024   2.708   1.816  14.751 -1.1161 -0.4937 -0.4300
   39DOPE  C317 5025   2.606   1.987  14.846  0.3771 -0.2747 -0.3629
   39DOPE  H17X 5026   2.617   2.097  14.860 -1.1922 -0.3547  2.0504
   39DOPE  H17Y 5027   2.514   1.977  14.785  0.7913 -0.2744 -1.0096
   39DOPE  C318 5028   2.592   1.932  14.987 -0.2877  0.1412 -0.4995
   39DOPE  H18X 5029   2.678   1.966  15.049 -0.4671 -0.4940  0.1115
   39DOPE  H18Y 5030   2.508   1.984  15.037 -0.0014  0.3336 -0.2181
   39DOPE  H18Z 5031   2.582   1.821  14.984  0.6353  0.0503 -0.6940
   40DOPE     N 5032   5.746   4.560  13.068  0.5202 -0.4782  0.1760
   40DOPE   HN1 5033   5.668   4.607  13.118 -0.1773 -0.1007 -1.1998
   40DOPE   HN2 5034   5.693   4.488  13.015  1.9623 -0.6685 -1.0762
   40DOPE   HN3 5035   5.805   4.516  13.140  0.0387 -1.9913 -0.3137
   40DOPE   C12 5036   5.826   4.645  12.970 -0.6045  0.7195 -0.2890
   40DOPE  H12A 5037   5.901   4.580  12.922 -2.3576 -1.8006  0.1991
   40DOPE  H12B 5038   5.890   4.718  13.024  1.8378  0.2907 -2.4488
   40DOPE   C11 5039   5.727   4.715  12.881 -0.8056  0.3998 -0.6345
   40DOPE  H11A 5040   5.685   4.630  12.823  0.9169  0.0017 -1.3566
   40DOPE  H11B 5041   5.784   4.773  12.805  1.6902 -0.6809  0.3289
   40DOPE     P 5042   5.528   4.881  12.909  0.3090 -0.4346 -0.0889
   40DOPE   O13 5043   5.408   4.872  12.993  0.3389 -0.2239  0.5362
   40DOPE   O14 5044   5.500   4.858  12.764  0.3474  0.4266 -0.3670
   40DOPE   O11 5045   5.590   5.029  12.923  0.1707  1.0359 -0.2030
   40DOPE   O12 5046   5.640   4.788  12.963 -0.3376 -0.6992 -0.1911
   40DOPE    C1 5047   5.732   5.051  12.930 -0.1248  0.2845 -0.4650
   40DOPE    HA 5048   5.757   5.148  12.883 -1.1671  1.1070  0.6181
   40DOPE    HB 5049   5.792   4.977  12.872  0.0031 -1.5464  1.8677
   40DOPE    C2 5050   5.787   5.050  13.074  0.3746 -0.0267 -0.1744
   40DOPE    HS 5051   5.799   4.942  13.098  1.5700  0.7347  3.2023
   40DOPE   O21 5052   5.685   5.109  13.161 -0.2044 -0.2953 -0.5883
   40DOPE   C21 5053   5.622   5.031  13.243  0.2078  0.6309 -0.7802
   40DOPE   O22 5054   5.661   4.919  13.278  0.0749 -0.0383  0.3097
   40DOPE   C22 5055   5.487   5.080  13.276 -0.7530 -0.0740  0.2729
   40DOPE   H2R 5056   5.421   5.055  13.190 -1.0141  0.2892  0.3666
   40DOPE   H2S 5057   5.480   5.190  13.283  1.2029  0.2771 -1.9484
   40DOPE    C3 5058   5.918   5.112  13.089 -0.2209 -0.5366 -0.5822
   40DOPE    HX 5059   5.919   5.219  13.059 -1.2290 -0.6540 -1.0841
   40DOPE    HY 5060   5.999   5.067  13.028  1.9925  2.2593  0.1205
   40DOPE   O31 5061   5.965   5.109  13.227  0.1384  0.5342 -0.7284
   40DOPE   C31 5062   6.026   5.000  13.265 -0.6099  0.2539 -0.3500
   40DOPE   O32 5063   6.048   4.905  13.191  0.0380 -0.0003 -0.0150
   40DOPE   C32 5064   6.075   5.006  13.415  0.0983  0.1363  0.0690
   40DOPE   H2X 5065   6.185   5.011  13.404  0.2413  0.6344  1.4878
   40DOPE   H2Y 5066   6.040   5.100  13.462  0.0268  0.8099 -1.2829
   40DOPE   C23 5067   5.436   5.014  13.410  0.3114 -0.3997  0.6100
   40DOPE   H3R 5068   5.448   4.904  13.417 -1.7552 -0.5528  2.4676
   40DOPE   H3S 5069   5.328   5.025  13.433  0.7051 -0.8113  2.8299
   40DOPE   C24 5070   5.520   5.051  13.530 -0.2160 -1.4706 -0.7919
   40DOPE   H4R 5071   5.530   5.161  13.544 -0.9474 -1.5330  0.3517
   40DOPE   H4S 5072   5.626   5.018  13.521  0.6530  0.7154  0.6232
   40DOPE   C25 5073   5.452   4.992  13.657  0.7380  0.3210  0.3354
   40DOPE   H5R 5074   5.475   4.883  13.655 -1.6909 -0.3354  2.6211
   40DOPE   H5S 5075   5.343   5.010  13.652  0.9160  1.0950 -1.4932
   40DOPE   C26 5076   5.510   5.052  13.784  0.1896 -0.7051 -0.8869
   40DOPE   H6R 5077   5.488   5.160  13.797  2.5398 -0.2567 -0.2407
   40DOPE   H6S 5078   5.618   5.030  13.774  0.6741  0.8692  0.3924
   40DOPE   C27 5079   5.444   4.978  13.903 -0.0210  0.0776 -0.5497
   40DOPE   H7R 5080   5.424   4.873  13.871  1.5657 -0.3688 -0.1715
   40DOPE   H7S 5081   5.348   5.026  13.932  0.2839 -0.9026  2.4432
   40DOPE   C28 5082   5.539   4.995  14.018 -0.5878 -0.1872  0.5874
   40DOPE   H8R 5083   5.540   5.103  14.042  0.7318  0.1524 -0.8500
   40DOPE   H8S 5084   5.640   4.966  13.981  0.2109 -0.7755  3.0675
   40DOPE   C29 5085   5.514   4.918  14.147  0.3406  0.0334  0.7044
   40DOPE   H9R 5086   5.531   4.810  14.133 -0.8724 -0.0344 -0.5164
   40DOPE  C210 5087   5.453   4.968  14.255 -0.2113 -0.1755 -0.7102
   40DOPE  H10R 5088   5.438   4.897  14.337 -2.1751 -0.0895 -0.9440
   40DOPE  C211 5089   5.400   5.104  14.289 -0.2017  0.1046  0.0648
   40DOPE  H11R 5090   5.382   5.163  14.196 -0.3049 -0.1401 -0.0720
   40DOPE  H11S 5091   5.486   5.151  14.341  1.1912 -2.1932 -0.0248
   40DOPE  C212 5092   5.279   5.119  14.392 -0.3170 -0.4476  0.2121
   40DOPE  H12R 5093   5.293   5.052  14.479  0.1822 -0.8568 -0.1766
   40DOPE  H12S 5094   5.195   5.088  14.326  0.4918  2.1729 -2.3047
   40DOPE  C213 5095   5.251   5.265  14.439  0.2176  0.2533  0.2185
   40DOPE  H13R 5096   5.233   5.338  14.358 -0.7802  0.9693  1.0606
   40DOPE  H13S 5097   5.331   5.301  14.507 -1.4706  1.7284  1.5081
   40DOPE  C214 5098   5.119   5.277  14.523  0.2375 -1.0795 -0.1403
   40DOPE  H14R 5099   5.052   5.200  14.478  0.6536 -1.4064 -0.2057
   40DOPE  H14S 5100   5.075   5.377  14.503 -1.6180 -1.7662  0.3123
   40DOPE  C215 5101   5.138   5.250  14.673  0.4526  0.6665 -0.3515
   40DOPE  H15R 5102   5.232   5.293  14.714  0.2900 -0.4866  1.3407
   40DOPE  H15S 5103   5.150   5.142  14.696 -1.9874  0.0465 -1.6109
   40DOPE  C216 5104   5.019   5.300  14.756  0.8126  0.0910 -0.1397
   40DOPE  H16R 5105   4.920   5.256  14.731  0.5166  0.5203  0.2632
   40DOPE  H16S 5106   5.018   5.406  14.722  2.8179  0.0038 -0.5734
   40DOPE  C217 5107   5.030   5.293  14.910 -0.0232  0.5143 -0.3871
   40DOPE  H17R 5108   4.933   5.326  14.953 -0.4972 -1.3052  0.0168
   40DOPE  H17S 5109   5.108   5.368  14.933  0.6784  0.4243 -2.2700
   40DOPE  C218 5110   5.063   5.155  14.969 -0.1810  0.4449  0.4276
   40DOPE  H18R 5111   5.030   5.085  14.890 -0.8164  1.2562 -0.0372
   40DOPE  H18S 5112   5.004   5.124  15.058  1.4273 -0.7585  1.1388
   40DOPE  H18T 5113   5.172   5.145  14.990 -0.2844 -0.4816  0.5529
   40DOPE   C33 5114   6.038   4.885  13.505 -0.0244 -0.8215 -0.4552
   40DOPE   H3X 5115   6.077   4.903  13.608 -1.8905  0.9594  0.0087
   40DOPE   H3Y 5116   6.088   4.793  13.468 -1.7440 -1.1579 -2.0904
   40DOPE   C34 5117   5.888   4.855  13.508  0.1415 -0.4254 -0.1656
   40DOPE   H4X 5118   5.841   4.930  13.574  0.2930 -1.0070  0.6081
   40DOPE   H4Y 5119   5.838   4.845  13.409 -0.9635  1.8932  0.0973
   40DOPE   C35 5120   5.867   4.720  13.581 -0.1382 -0.5208  1.1720
   40DOPE   H5X 5121   5.925   4.736  13.674 -0.1160  0.2371  1.0276
   40DOPE   H5Y 5122   5.907   4.630  13.528  1.5117  0.3883  0.8221
   40DOPE   C36 5123   5.717   4.687  13.611  0.3024  0.5855 -0.0500
   40DOPE   H6X 5124   5.694   4.583  13.578 -0.7254  1.2867 -1.7178
   40DOPE   H6Y 5125   5.647   4.749  13.550 -0.0068 -1.2603 -1.6780
   40DOPE   C37 5126   5.685   4.705  13.765 -0.1831  0.5273  0.2228
   40DOPE   H7X 5127   5.721   4.808  13.790 -3.1700  1.6049  0.5023
   40DOPE   H7Y 5128   5.574   4.702  13.767 -0.3588 -1.1414 -3.6123
   40DOPE   C38 5129   5.746   4.594  13.857 -0.2377 -0.3658 -0.3207
   40DOPE   H8X 5130   5.853   4.577  13.833 -0.4767  0.2826 -1.9860
   40DOPE   H8Y 5131   5.687   4.501  13.842 -2.0796  0.7518 -0.3607
   40DOPE   C39 5132   5.730   4.625  14.004  0.7144  0.5696 -0.4408
   40DOPE   H9X 5133   5.633   4.600  14.048  1.5830 -0.3581  1.0586
   40DOPE  C310 5134   5.814   4.691  14.090  0.1911 -0.5110 -0.4026
   40DOPE  H10X 5135   5.789   4.689  14.197  1.5379  1.5415 -0.0028
   40DOPE  C311 5136   5.947   4.754  14.060 -0.1779 -0.0199  0.4644
   40DOPE  H11X 5137   5.957   4.773  13.951  1.3520 -1.7317  0.2583
   40DOPE  H11Y 5138   5.945   4.846  14.121 -0.0285 -0.6170  1.3924
   40DOPE  C312 5139   6.067   4.662  14.079  0.0486 -0.0951 -0.3780
   40DOPE  H12X 5140   6.054   4.575  14.011 -2.3229  0.2342 -0.4209
   40DOPE  H12Y 5141   6.056   4.628  14.185  1.9293  1.5738  0.4208
   40DOPE  C313 5142   6.199   4.736  14.059  0.2056 -0.6069  0.5880
   40DOPE  H13X 5143   6.201   4.739  13.948 -3.8340 -0.1538  0.3665
   40DOPE  H13Y 5144   6.205   4.838  14.101 -0.7493 -0.4837  0.4481
   40DOPE  C314 5145   6.327   4.661  14.121  0.7995  0.3984  0.3511
   40DOPE  H14X 5146   6.303   4.634  14.226  1.1024 -0.7009  0.1476
   40DOPE  H14Y 5147   6.410   4.731  14.099  0.5651  0.4610 -0.3782
   40DOPE  C315 5148   6.342   4.534  14.040  0.1558  0.5171  0.7152
   40DOPE  H15X 5149   6.343   4.547  13.930 -0.9971 -2.0742  0.3381
   40DOPE  H15Y 5150   6.255   4.472  14.070  0.6761  0.1447  1.5161
   40DOPE  C316 5151   6.473   4.460  14.078  0.0075 -0.4837  0.7142
   40DOPE  H16X 5152   6.471   4.435  14.186 -0.3943 -1.0010  0.5936
   40DOPE  H16Y 5153   6.555   4.534  14.068 -0.6201  0.3051  1.3505
   40DOPE  C317 5154   6.503   4.331  14.003  0.3065  0.5017  0.4467
   40DOPE  H17X 5155   6.410   4.272  14.022 -0.2676  1.6597  1.4132
   40DOPE  H17Y 5156   6.504   4.361  13.896  5.1034  0.7124  0.3475
   40DOPE  C318 5157   6.621   4.252  14.045 -0.2991 -0.2642 -0.4803
   40DOPE  H18X 5158   6.678   4.214  13.958  0.2253  1.4445 -0.9313
   40DOPE  H18Y 5159   6.689   4.324  14.095 -1.6412  0.6654  0.0714
   40DOPE  H18Z 5160   6.600   4.169  14.116 -1.3715  0.0442 -0.4184
   41DOPE     N 5161   3.669   5.475  12.760 -0.2578  0.2289 -0.1176
   41DOPE   HN1 5162   3.567   5.459  12.773 -0.6141  1.4213 -1.2534
   41DOPE   HN2 5163   3.669   5.520  12.666  1.5420  1.7187  0.5398
   41DOPE   HN3 5164   3.724   5.386  12.759 -1.6276 -0.6500 -0.0219
   41DOPE   C12 5165   3.722   5.568  12.864  0.1281  0.8761  0.2337
   41DOPE  H12A 5166   3.673   5.667  12.857  1.3272  1.5112  0.5196
   41DOPE  H12B 5167   3.827   5.596  12.843 -0.5259  2.9587 -0.5523
   41DOPE   C11 5168   3.704   5.505  13.006  0.1172 -0.1575 -0.3032
   41DOPE  H11A 5169   3.598   5.506  13.040 -0.3886  0.9741 -1.7823
   41DOPE  H11B 5170   3.747   5.580  13.076 -1.1781  1.3750 -1.0796
   41DOPE     P 5171   3.914   5.353  13.062 -0.2404 -0.2586 -0.1617
   41DOPE   O13 5172   3.987   5.480  13.066 -0.6388 -0.0105  0.0960
   41DOPE   O14 5173   3.967   5.246  12.979  0.8534 -0.1895 -0.0497
   41DOPE   O11 5174   3.893   5.301  13.208  0.3424 -0.2703 -0.3253
   41DOPE   O12 5175   3.768   5.377  13.013  0.1462 -0.0547  0.3812
   41DOPE    C1 5176   3.903   5.384  13.319 -0.1988 -0.1738 -0.0139
   41DOPE    HA 5177   3.972   5.466  13.289  0.3988 -0.9898 -0.9184
   41DOPE    HB 5178   3.942   5.326  13.405  2.8514  0.5385 -0.7920
   41DOPE    C2 5179   3.763   5.428  13.364  0.0532  0.8856 -0.4212
   41DOPE    HS 5180   3.729   5.494  13.281 -1.9684 -1.2806 -1.4382
   41DOPE   O21 5181   3.775   5.490  13.490  0.1124  0.0572 -0.0401
   41DOPE   C21 5182   3.700   5.597  13.512 -0.0321  0.0461  0.2004
   41DOPE   O22 5183   3.632   5.651  13.426  0.0902 -0.3068  0.5784
   41DOPE   C22 5184   3.699   5.657  13.657 -0.4924  0.2923 -0.3482
   41DOPE   H2R 5185   3.602   5.711  13.660 -1.0054 -0.6342  1.3305
   41DOPE   H2S 5186   3.780   5.733  13.653  0.5559 -0.6788  1.1917
   41DOPE    C3 5187   3.663   5.312  13.365 -0.8119  0.3044 -0.5996
   41DOPE    HX 5188   3.698   5.231  13.432 -1.4428 -1.4280 -2.2664
   41DOPE    HY 5189   3.668   5.259  13.268  0.2465 -1.7699  0.5276
   41DOPE   O31 5190   3.527   5.356  13.398  0.2245 -0.2224 -0.7334
   41DOPE   C31 5191   3.428   5.331  13.311 -0.1146 -0.2112  0.7305
   41DOPE   O32 5192   3.440   5.269  13.208  0.5715  0.0439 -0.2900
   41DOPE   C32 5193   3.299   5.386  13.362 -0.4256  0.3774  0.5178
   41DOPE   H2X 5194   3.314   5.445  13.455 -0.5177  1.2486 -0.0080
   41DOPE   H2Y 5195   3.264   5.463  13.289 -0.8620  2.2553  2.5915
   41DOPE   C23 5196   3.723   5.581  13.794 -0.8670 -0.8516 -0.2264
   41DOPE   H3R 5197   3.819   5.525  13.786  0.4556  1.0474  1.5272
   41DOPE   H3S 5198   3.638   5.510  13.803 -0.8743 -0.6965  1.1433
   41DOPE   C24 5199   3.704   5.663  13.920  0.2975 -0.5162  0.3152
   41DOPE   H4R 5200   3.768   5.753  13.908  0.1827 -0.4560  0.1412
   41DOPE   H4S 5201   3.760   5.612  14.001  1.1006  1.6574  1.2012
   41DOPE   C25 5202   3.561   5.690  13.964  0.1859 -0.1466 -0.0364
   41DOPE   H5R 5203   3.518   5.590  13.989  2.8495 -1.3665 -0.0635
   41DOPE   H5S 5204   3.504   5.725  13.875 -0.9741 -0.7335  0.4510
   41DOPE   C26 5205   3.539   5.792  14.080 -0.0282  0.0578 -0.2861
   41DOPE   H6R 5206   3.431   5.800  14.106 -0.1884  1.6002 -1.3334
   41DOPE   H6S 5207   3.558   5.892  14.037  0.2247  0.5515  0.9178
   41DOPE   C27 5208   3.616   5.761  14.207 -0.4113 -0.3434  0.2746
   41DOPE   H7R 5209   3.726   5.755  14.189 -0.5746  0.0443 -0.9420
   41DOPE   H7S 5210   3.586   5.662  14.248 -1.1230 -0.6048 -0.8479
   41DOPE   C28 5211   3.586   5.863  14.320  0.0905  0.0029 -0.7344
   41DOPE   H8R 5212   3.478   5.887  14.315  0.3903  1.5903 -0.4723
   41DOPE   H8S 5213   3.641   5.957  14.296  1.0919 -0.5807 -0.7596
   41DOPE   C29 5214   3.628   5.808  14.458  0.0608  0.4547  0.3917
   41DOPE   H9R 5215   3.727   5.760  14.455  0.0808  0.5271 -0.5961
   41DOPE  C210 5216   3.549   5.796  14.560 -0.0599 -0.0679  0.1035
   41DOPE  H10R 5217   3.585   5.748  14.652  0.6579 -0.7256 -0.5153
   41DOPE  C211 5218   3.401   5.830  14.583 -0.8533 -0.1187 -0.2354
   41DOPE  H11R 5219   3.363   5.888  14.497  2.1560  1.0855 -0.8850
   41DOPE  H11S 5220   3.390   5.901  14.668 -1.8881 -0.3066 -0.1931
   41DOPE  C212 5221   3.322   5.705  14.610 -0.2685  1.2204  0.3344
   41DOPE  H12R 5222   3.369   5.648  14.693  0.3621  1.4318  0.1315
   41DOPE  H12S 5223   3.331   5.636  14.523  0.7972  0.0480  1.3418
   41DOPE  C213 5224   3.175   5.729  14.647  0.3025 -0.0836 -0.0785
   41DOPE  H13R 5225   3.121   5.801  14.580  0.2973 -1.1054 -1.2068
   41DOPE  H13S 5226   3.189   5.767  14.750  1.1931 -3.0057  0.9643
   41DOPE  C214 5227   3.080   5.612  14.663 -0.3073 -0.5736 -0.7841
   41DOPE  H14R 5228   3.125   5.538  14.733  0.8350  1.3019  0.5369
   41DOPE  H14S 5229   3.071   5.573  14.559 -0.9844  0.4974 -1.1334
   41DOPE  C215 5230   2.938   5.646  14.719 -0.1512  0.0980  0.4752
   41DOPE  H15R 5231   2.887   5.723  14.657 -2.9537 -1.2597  0.9212
   41DOPE  H15S 5232   2.959   5.696  14.816  0.5241  0.3740  0.1976
   41DOPE  C216 5233   2.848   5.527  14.743  0.2042  0.5757 -0.2433
   41DOPE  H16R 5234   2.897   5.457  14.814 -0.1850  0.9046  0.3480
   41DOPE  H16S 5235   2.841   5.470  14.648 -0.3516  0.6290 -0.2387
   41DOPE  C217 5236   2.703   5.577  14.771 -0.1393 -0.4214  0.0133
   41DOPE  H17R 5237   2.630   5.494  14.780  0.5971 -0.9565  1.3078
   41DOPE  H17S 5238   2.659   5.634  14.686  0.9635  1.1603  0.4570
   41DOPE  C218 5239   2.688   5.659  14.904  0.3159 -0.4412  0.1856
   41DOPE  H18R 5240   2.582   5.666  14.936  0.3602 -0.5912  0.3697
   41DOPE  H18S 5241   2.735   5.759  14.890 -1.3847  0.2029 -1.3272
   41DOPE  H18T 5242   2.741   5.602  14.984  0.6022 -3.1722 -1.7966
   41DOPE   C33 5243   3.201   5.267  13.399  0.2394 -0.0113 -0.2315
   41DOPE   H3X 5244   3.199   5.177  13.334  1.6386 -1.8807  2.1425
   41DOPE   H3Y 5245   3.103   5.318  13.410  0.2024 -0.1611  0.1287
   41DOPE   C34 5246   3.228   5.212  13.539 -0.6042 -0.2136 -0.6942
   41DOPE   H4X 5247   3.332   5.173  13.549 -0.3557  0.5397 -0.2462
   41DOPE   H4Y 5248   3.221   5.289  13.618  1.1725 -0.1133 -0.5901
   41DOPE   C35 5249   3.135   5.098  13.600 -0.4748  0.6239 -0.1888
   41DOPE   H5X 5250   3.146   4.995  13.560 -1.4335  1.0859 -1.7171
   41DOPE   H5Y 5251   3.031   5.131  13.582 -0.8227  0.0472  0.6774
   41DOPE   C36 5252   3.161   5.081  13.750  0.2489 -0.1403 -0.5111
   41DOPE   H6X 5253   3.143   5.174  13.809  1.3433 -1.1790  1.5897
   41DOPE   H6Y 5254   3.270   5.065  13.765  0.5192  1.4486 -0.5645
   41DOPE   C37 5255   3.091   4.965  13.820  0.5073 -0.3138  0.6398
   41DOPE   H7X 5256   2.989   5.003  13.841 -0.5131 -0.8117 -2.8477
   41DOPE   H7Y 5257   3.084   4.872  13.759 -1.6155 -0.6804  1.3502
   41DOPE   C38 5258   3.160   4.926  13.954 -0.0694 -0.1548 -0.7983
   41DOPE   H8X 5259   3.145   5.011  14.025 -0.1211  0.0699 -1.0758
   41DOPE   H8Y 5260   3.270   4.914  13.946  0.2613 -0.5179  2.6544
   41DOPE   C39 5261   3.110   4.797  14.003 -0.7033  0.0622  0.0141
   41DOPE   H9X 5262   3.137   4.714  13.936 -4.3634 -1.9194  0.7456
   41DOPE  C310 5263   3.068   4.774  14.128  0.1695 -0.5617 -0.1301
   41DOPE  H10X 5264   3.061   4.671  14.167 -0.2068 -0.1211  0.9946
   41DOPE  C311 5265   3.058   4.864  14.249 -0.4166 -0.0474 -0.0183
   41DOPE  H11X 5266   3.050   4.968  14.211 -0.4889  0.5401  1.5668
   41DOPE  H11Y 5267   2.969   4.851  14.315 -0.7691  0.6447 -0.3515
   41DOPE  C312 5268   3.193   4.860  14.339  0.3989  0.4016 -0.0759
   41DOPE  H12X 5269   3.175   4.936  14.419 -0.3635 -0.2915  0.4275
   41DOPE  H12Y 5270   3.285   4.886  14.283 -0.2841  1.2581 -0.8368
   41DOPE  C313 5271   3.199   4.719  14.408  0.1347 -0.6746  0.5394
   41DOPE  H13X 5272   3.095   4.682  14.417 -0.1759  0.1276  0.3395
   41DOPE  H13Y 5273   3.248   4.645  14.340 -0.0204  1.4673 -2.0801
   41DOPE  C314 5274   3.265   4.735  14.539 -0.2355 -0.1906 -0.2636
   41DOPE  H14X 5275   3.218   4.817  14.597  1.5040  1.8096 -1.5188
   41DOPE  H14Y 5276   3.366   4.773  14.513  0.2802 -0.5524  1.1312
   41DOPE  C315 5277   3.277   4.604  14.615 -0.6168  0.2163 -0.0639
   41DOPE  H15X 5278   3.323   4.523  14.556 -0.2692  1.2745 -1.2952
   41DOPE  H15Y 5279   3.177   4.561  14.637  0.6869 -3.4291 -0.6582
   41DOPE  C316 5280   3.356   4.609  14.747  0.4787 -0.4064 -0.1203
   41DOPE  H16X 5281   3.298   4.675  14.814 -2.0059 -0.8940 -1.6408
   41DOPE  H16Y 5282   3.461   4.645  14.742  1.3466 -2.2771  2.6989
   41DOPE  C317 5283   3.371   4.467  14.819 -0.2441 -0.1229 -0.3235
   41DOPE  H17X 5284   3.275   4.412  14.832 -0.0904 -0.5379 -0.9268
   41DOPE  H17Y 5285   3.436   4.400  14.759 -1.5046 -0.6975 -1.0959
   41DOPE  C318 5286   3.447   4.486  14.954  0.5246  0.0706  0.1287
   41DOPE  H18X 5287   3.449   4.388  15.006 -1.9379 -1.6495 -2.6582
   41DOPE  H18Y 5288   3.549   4.525  14.932 -0.3456  3.7912  1.9270
   41DOPE  H18Z 5289   3.402   4.563  15.020  2.3301  2.4561 -1.2417
   42DOPE     N 5290   3.036   4.758  12.732  0.0407 -0.4183  0.1751
   42DOPE   HN1 5291   3.078   4.796  12.644 -1.4241 -1.4315 -1.0175
   42DOPE   HN2 5292   3.077   4.663  12.750 -2.6069 -1.8263 -0.7055
   42DOPE   HN3 5293   2.936   4.733  12.721 -0.2425 -0.0953  1.8103
   42DOPE   C12 5294   3.069   4.832  12.855  0.6358  0.0491  0.3153
   42DOPE  H12A 5295   3.046   4.940  12.839 -2.8367 -0.2457  2.1579
   42DOPE  H12B 5296   3.177   4.813  12.870  0.9438  1.0657 -0.4835
   42DOPE   C11 5297   2.996   4.790  12.975  0.3695 -0.0152 -0.7667
   42DOPE  H11A 5298   2.895   4.835  12.991 -0.1633 -1.7484  1.1880
   42DOPE  H11B 5299   3.052   4.828  13.063  0.0341 -0.7867 -0.2089
   42DOPE     P 5300   2.879   4.578  13.080 -0.1477 -0.0888  0.3139
   42DOPE   O13 5301   2.847   4.448  13.021  0.4097 -0.1584 -0.4408
   42DOPE   O14 5302   2.773   4.673  13.118 -0.2637  0.0133 -0.9656
   42DOPE   O11 5303   2.965   4.543  13.213  0.4481 -0.2044  0.9583
   42DOPE   O12 5304   2.979   4.652  12.983  0.3438 -0.3788  0.1202
   42DOPE    C1 5305   2.941   4.578  13.342  0.4146  0.4722 -0.4265
   42DOPE    HA 5306   2.992   4.501  13.405 -2.6916 -0.1397  1.5580
   42DOPE    HB 5307   2.833   4.568  13.363  0.5428 -2.0304 -0.6529
   42DOPE    C2 5308   2.992   4.717  13.381  0.3027 -0.4659 -0.7208
   42DOPE    HS 5309   2.944   4.797  13.321 -0.1459  0.7723  1.2007
   42DOPE   O21 5310   3.135   4.718  13.357  0.0857  0.4829  0.2714
   42DOPE   C21 5311   3.190   4.830  13.317 -0.7472 -0.7819 -0.9955
   42DOPE   O22 5312   3.132   4.934  13.302  0.2523  0.2326  0.1972
   42DOPE   C22 5313   3.339   4.815  13.288  0.4249 -0.3445  0.3179
   42DOPE   H2R 5314   3.354   4.856  13.186  0.5302 -0.3596  0.3279
   42DOPE   H2S 5315   3.360   4.707  13.302 -1.3487 -0.8074 -0.2672
   42DOPE    C3 5316   2.975   4.742  13.534 -0.3784 -0.2331  0.1393
   42DOPE    HX 5317   3.022   4.842  13.546 -2.6232  1.0752 -1.2064
   42DOPE    HY 5318   3.037   4.669  13.589  0.0236 -0.7109 -0.9268
   42DOPE   O31 5319   2.837   4.752  13.579 -0.4357 -0.3749  0.6914
   42DOPE   C31 5320   2.764   4.856  13.541  0.4115  1.2948 -0.3667
   42DOPE   O32 5321   2.803   4.954  13.485  0.0549 -0.2733 -0.2197
   42DOPE   C32 5322   2.618   4.812  13.558  0.3490  0.5438 -0.2248
   42DOPE   H2X 5323   2.567   4.825  13.460 -1.8531  0.4465  0.8507
   42DOPE   H2Y 5324   2.617   4.704  13.583 -0.5342  1.0754  2.2773
   42DOPE   C23 5325   3.417   4.891  13.399  0.0080  0.5595 -0.0198
   42DOPE   H3R 5326   3.369   4.991  13.407  0.7918  1.3341 -3.5772
   42DOPE   H3S 5327   3.527   4.899  13.388  0.2473  1.1172  2.1979
   42DOPE   C24 5328   3.410   4.825  13.537 -0.4097  0.6385  0.3613
   42DOPE   H4R 5329   3.407   4.714  13.536 -3.1346  0.6329  1.0308
   42DOPE   H4S 5330   3.312   4.857  13.579 -0.3462  0.3995  0.6923
   42DOPE   C25 5331   3.522   4.870  13.633 -0.2629  0.2675 -0.6147
   42DOPE   H5R 5332   3.527   4.980  13.642  0.1784  0.2291 -0.3541
   42DOPE   H5S 5333   3.615   4.823  13.593  0.5614  0.3114  1.1609
   42DOPE   C26 5334   3.504   4.821  13.775  0.7528 -0.1737  0.1661
   42DOPE   H6R 5335   3.397   4.826  13.802  0.1291 -0.7905 -2.0500
   42DOPE   H6S 5336   3.560   4.881  13.851  0.4231 -0.8926  0.9912
   42DOPE   C27 5337   3.558   4.677  13.784 -0.2154  0.0310 -0.7036
   42DOPE   H7R 5338   3.666   4.672  13.757  0.3237 -0.8945  1.4491
   42DOPE   H7S 5339   3.501   4.607  13.720 -0.3596 -0.4355 -0.0736
   42DOPE   C28 5340   3.554   4.625  13.934 -0.6933 -0.3435 -0.2487
   42DOPE   H8R 5341   3.619   4.680  14.005 -1.4979 -0.8682  0.9262
   42DOPE   H8S 5342   3.590   4.520  13.941 -2.3001 -0.9080 -0.0478
   42DOPE   C29 5343   3.412   4.620  13.973 -0.0924 -0.3615 -0.4125
   42DOPE   H9R 5344   3.377   4.718  14.010  0.2160 -1.1023  2.0063
   42DOPE  C210 5345   3.328   4.519  13.996  0.5831  0.1578 -0.4084
   42DOPE  H10R 5346   3.232   4.556  14.034 -0.0096 -2.5793  0.9631
   42DOPE  C211 5347   3.359   4.373  13.983 -0.2321 -0.6822 -0.2536
   42DOPE  H11R 5348   3.387   4.336  13.882  0.6644 -0.6801 -0.0123
   42DOPE  H11S 5349   3.265   4.315  13.983 -0.7903  0.0956  2.2998
   42DOPE  C212 5350   3.446   4.326  14.096 -0.4918 -0.1231  0.4948
   42DOPE  H12R 5351   3.540   4.386  14.096  0.3340 -1.3069 -1.5178
   42DOPE  H12S 5352   3.471   4.218  14.082 -1.7947 -1.0430  4.0490
   42DOPE  C213 5353   3.370   4.331  14.233 -0.2660 -0.3792 -0.2432
   42DOPE  H13R 5354   3.275   4.275  14.221 -1.5030  1.1740  1.6989
   42DOPE  H13S 5355   3.343   4.431  14.271 -1.2193 -0.8327  0.3027
   42DOPE  C214 5356   3.455   4.260  14.340  0.8979 -1.0012  0.2080
   42DOPE  H14R 5357   3.541   4.327  14.362 -0.1766  0.7912 -0.7976
   42DOPE  H14S 5358   3.489   4.164  14.295 -1.3005 -2.5078  1.5289
   42DOPE  C215 5359   3.375   4.221  14.468 -0.3159 -0.7048 -0.2873
   42DOPE  H15R 5360   3.298   4.146  14.440 -1.3620 -0.5227  1.9214
   42DOPE  H15S 5361   3.324   4.312  14.508 -0.0363 -0.4227 -0.5699
   42DOPE  C216 5362   3.456   4.168  14.585  0.2965  0.2200 -0.3315
   42DOPE  H16R 5363   3.534   4.241  14.615  0.6327 -0.2460 -0.0498
   42DOPE  H16S 5364   3.510   4.077  14.550  2.2204  0.8377  0.9117
   42DOPE  C217 5365   3.374   4.108  14.694  0.5387 -0.8488 -0.8643
   42DOPE  H17R 5366   3.294   4.042  14.655 -1.0086  0.4169  0.0421
   42DOPE  H17S 5367   3.309   4.187  14.737  2.1302  1.0213 -1.7977
   42DOPE  C218 5368   3.450   4.015  14.794 -0.2115 -0.2884  0.3043
   42DOPE  H18R 5369   3.521   4.076  14.853 -1.0842  0.5487  0.5191
   42DOPE  H18S 5370   3.497   3.932  14.737  0.1987 -0.7617  1.3161
   42DOPE  H18T 5371   3.385   3.976  14.875 -2.2347 -1.3112 -1.6718
   42DOPE   C33 5372   2.546   4.899  13.658 -0.1496  0.0272 -0.3356
   42DOPE   H3X 5373   2.436   4.889  13.655 -0.0717 -1.4069  0.7477
   42DOPE   H3Y 5374   2.583   5.003  13.645  1.1427 -0.4321 -0.5333
   42DOPE   C34 5375   2.576   4.862  13.804 -0.2192  0.0819 -0.4548
   42DOPE   H4X 5376   2.660   4.790  13.808 -0.3760 -0.1235 -0.8145
   42DOPE   H4Y 5377   2.600   4.953  13.862  0.2618 -1.2351  1.5170
   42DOPE   C35 5378   2.463   4.779  13.869 -0.5601  0.4286 -0.5631
   42DOPE   H5X 5379   2.455   4.680  13.818  1.0989  0.2934 -0.6294
   42DOPE   H5Y 5380   2.367   4.833  13.853 -0.9513 -0.6437 -2.1569
   42DOPE   C36 5381   2.501   4.738  14.008  0.3144  0.4177 -0.4654
   42DOPE   H6X 5382   2.526   4.821  14.078  0.3830 -0.6197  0.7862
   42DOPE   H6Y 5383   2.598   4.685  14.019  1.5054  2.6802  0.9532
   42DOPE   C37 5384   2.384   4.659  14.079  0.7502 -0.1559  0.3423
   42DOPE   H7X 5385   2.298   4.729  14.086  1.3643  0.5801  0.6832
   42DOPE   H7Y 5386   2.352   4.564  14.031  0.0171  0.9109 -1.3478
   42DOPE   C38 5387   2.417   4.612  14.226  0.5569 -0.3374 -0.1781
   42DOPE   H8X 5388   2.324   4.601  14.285  0.6416 -0.0274  0.0220
   42DOPE   H8Y 5389   2.468   4.692  14.284 -1.0884 -1.1854  2.6222
   42DOPE   C39 5390   2.487   4.477  14.228 -0.3354 -0.7820  0.4016
   42DOPE   H9X 5391   2.427   4.398  14.182  1.1131 -1.4110 -0.4829
   42DOPE  C310 5392   2.602   4.438  14.285 -0.8336 -0.1650 -0.0167
   42DOPE  H10X 5393   2.632   4.333  14.271 -1.1470 -0.4609  1.3818
   42DOPE  C311 5394   2.695   4.527  14.362 -0.1298  0.2042 -0.1087
   42DOPE  H11X 5395   2.640   4.619  14.392 -3.1968 -1.9825  1.5840
   42DOPE  H11Y 5396   2.720   4.480  14.460  0.4921  3.2508  1.3263
   42DOPE  C312 5397   2.822   4.563  14.287 -0.1485  0.4229  0.4802
   42DOPE  H12X 5398   2.880   4.637  14.346  1.8015 -0.4638 -0.2300
   42DOPE  H12Y 5399   2.809   4.611  14.188  2.3176 -0.7559 -0.5074
   42DOPE  C313 5400   2.901   4.440  14.255  0.9955  0.8362 -0.5120
   42DOPE  H13X 5401   2.831   4.366  14.211 -0.4773  2.3968 -0.9222
   42DOPE  H13Y 5402   2.974   4.466  14.175  3.5011 -0.8330  1.0638
   42DOPE  C314 5403   2.999   4.390  14.369  0.4541  0.6251 -0.2687
   42DOPE  H14X 5404   3.057   4.468  14.423 -0.5668  0.8304  0.5840
   42DOPE  H14Y 5405   3.067   4.313  14.329 -1.2734 -2.2933  1.9820
   42DOPE  C315 5406   2.933   4.331  14.490 -0.0651 -0.2238 -0.1263
   42DOPE  H15X 5407   2.846   4.267  14.465  1.3049 -1.5213 -1.9695
   42DOPE  H15Y 5408   2.895   4.413  14.553 -0.2347  0.4387 -1.0640
   42DOPE  C316 5409   3.034   4.233  14.563 -0.1755 -0.4942  0.3900
   42DOPE  H16X 5410   3.113   4.292  14.614  1.5132 -2.2944 -0.0421
   42DOPE  H16Y 5411   3.076   4.170  14.481  0.5110  0.6119 -0.1380
   42DOPE  C317 5412   2.948   4.152  14.655 -0.0381 -0.1754  0.1428
   42DOPE  H17X 5413   2.886   4.212  14.725  0.6627 -1.8354  2.2803
   42DOPE  H17Y 5414   2.875   4.088  14.600  1.0091 -3.2649  2.1330
   42DOPE  C318 5415   3.031   4.062  14.749  0.8162  0.9525  0.3238
   42DOPE  H18X 5416   3.061   3.966  14.704 -0.1068 -0.1923  2.0482
   42DOPE  H18Y 5417   3.120   4.121  14.780  0.9556  2.0501 -1.9562
   42DOPE  H18Z 5418   2.964   4.041  14.835  1.0688 -0.6077  0.1563
   43DOPE     N 5419   2.841   2.317  12.939  0.0606 -0.1295 -0.0989
   43DOPE   HN1 5420   2.753   2.268  12.965  2.0389 -3.4164  0.9631
   43DOPE   HN2 5421   2.823   2.418  12.955 -1.0047 -0.3341  0.1397
   43DOPE   HN3 5422   2.869   2.299  12.840 -1.0431  1.0055 -0.6483
   43DOPE   C12 5423   2.953   2.282  13.023  0.0622  0.2507  0.0932
   43DOPE  H12A 5424   2.924   2.291  13.130  0.5611 -0.3700  0.2838
   43DOPE  H12B 5425   3.038   2.346  12.994 -0.0892 -0.5388 -2.3297
   43DOPE   C11 5426   3.008   2.141  12.992 -0.3604  0.3193  0.3204
   43DOPE  H11A 5427   3.019   2.129  12.883  1.2896  0.1307  0.4867
   43DOPE  H11B 5428   2.941   2.061  13.030 -1.0434  0.6006 -0.2739
   43DOPE     P 5429   3.282   2.164  13.012 -0.0994 -0.3528 -0.5358
   43DOPE   O13 5430   3.342   2.249  13.117  0.0977  0.0685 -0.4351
   43DOPE   O14 5431   3.278   2.212  12.876  0.8338  0.3622  0.2814
   43DOPE   O11 5432   3.359   2.027  13.015  0.0919 -0.1076 -1.1213
   43DOPE   O12 5433   3.131   2.116  13.060  0.0661  0.2567 -0.3316
   43DOPE    C1 5434   3.320   1.921  13.102 -0.2596 -0.1552  0.0871
   43DOPE    HA 5435   3.388   1.835  13.086 -0.1610 -0.3703  1.4791
   43DOPE    HB 5436   3.215   1.886  13.090  0.2092 -1.5576 -0.0817
   43DOPE    C2 5437   3.349   1.939  13.256 -0.6337 -0.0432  0.3782
   43DOPE    HS 5438   3.330   1.837  13.296 -3.3725  0.5672  0.8524
   43DOPE   O21 5439   3.269   2.032  13.325 -0.0139 -0.2783 -0.0984
   43DOPE   C21 5440   3.137   1.997  13.332  0.4682 -0.5159  0.0933
   43DOPE   O22 5441   3.084   1.890  13.295 -0.5599 -0.0368 -0.5165
   43DOPE   C22 5442   3.063   2.121  13.372 -0.4777  0.2865 -0.2622
   43DOPE   H2R 5443   2.974   2.133  13.306 -1.3742  0.3054  0.9215
   43DOPE   H2S 5444   3.134   2.206  13.371  0.8000 -0.7398 -0.6225
   43DOPE    C3 5445   3.499   1.982  13.264  1.1336  0.5384  0.1808
   43DOPE    HX 5446   3.517   2.091  13.249  1.5108  0.7073  1.6805
   43DOPE    HY 5447   3.556   1.925  13.188  1.1940  1.8047 -0.7668
   43DOPE   O31 5448   3.561   1.946  13.388  0.1145 -0.2188 -0.4604
   43DOPE   C31 5449   3.576   2.038  13.470 -0.2283  0.8261 -0.8879
   43DOPE   O32 5450   3.548   2.156  13.457  0.2287 -0.2979 -0.2475
   43DOPE   C32 5451   3.632   1.976  13.602  0.2580  0.1952 -0.5683
   43DOPE   H2X 5452   3.625   1.865  13.603  0.7962  0.0164 -4.1602
   43DOPE   H2Y 5453   3.741   2.000  13.607 -0.5320  4.0060  2.3165
   43DOPE   C23 5454   2.996   2.114  13.503  0.1727  0.4087 -0.1210
   43DOPE   H3R 5455   2.950   2.015  13.523  2.3923 -0.6693  0.0278
   43DOPE   H3S 5456   2.916   2.190  13.510  0.1948  0.3757  0.5549
   43DOPE   C24 5457   3.098   2.152  13.616 -0.0102 -0.2082  0.6677
   43DOPE   H4R 5458   3.134   2.252  13.585 -1.4342  0.5996  1.4879
   43DOPE   H4S 5459   3.183   2.081  13.623 -0.6496 -1.3761 -2.1320
   43DOPE   C25 5460   3.030   2.172  13.753 -0.2673 -0.7679 -0.0165
   43DOPE   H5R 5461   3.000   2.073  13.793  0.1575 -0.9540 -0.1463
   43DOPE   H5S 5462   2.939   2.235  13.745  0.4959  0.3025 -0.4705
   43DOPE   C26 5463   3.119   2.231  13.862  0.1909 -0.5453 -0.2071
   43DOPE   H6R 5464   3.218   2.181  13.853  1.2362  1.5723 -1.3274
   43DOPE   H6S 5465   3.079   2.214  13.964  2.6957  1.2137  1.1947
   43DOPE   C27 5466   3.151   2.373  13.849  0.2154  0.1101 -0.2778
   43DOPE   H7R 5467   3.063   2.440  13.847 -0.8648 -1.2615 -0.1106
   43DOPE   H7S 5468   3.204   2.370  13.751  0.1447 -0.8447 -0.2978
   43DOPE   C28 5469   3.262   2.427  13.937 -0.2635 -0.1058  0.3022
   43DOPE   H8R 5470   3.307   2.514  13.886  1.3324 -0.1799  1.5205
   43DOPE   H8S 5471   3.330   2.339  13.942 -2.8955 -2.3672 -0.8496
   43DOPE   C29 5472   3.224   2.452  14.083 -0.2049  0.7818  0.2777
   43DOPE   H9R 5473   3.142   2.384  14.110  0.9555 -0.3747  1.0170
   43DOPE  C210 5474   3.261   2.552  14.158 -0.2205  0.1815  0.3998
   43DOPE  H10R 5475   3.202   2.570  14.249 -1.4490  3.1586 -0.8738
   43DOPE  C211 5476   3.352   2.666  14.125  0.7720  0.7342  0.5436
   43DOPE  H11R 5477   3.324   2.705  14.025 -1.1107 -0.3057  0.6278
   43DOPE  H11S 5478   3.458   2.632  14.129  0.0337 -1.7497  0.5911
   43DOPE  C212 5479   3.337   2.782  14.235 -0.3529  0.5447 -0.4854
   43DOPE  H12R 5480   3.231   2.812  14.242 -0.4497 -0.0718  1.3539
   43DOPE  H12S 5481   3.391   2.867  14.188  2.8880 -1.0340  0.0957
   43DOPE  C213 5482   3.417   2.755  14.371 -0.9568  0.3574 -0.4237
   43DOPE  H13R 5483   3.525   2.754  14.347 -0.6766 -1.3796  0.7353
   43DOPE  H13S 5484   3.384   2.657  14.412  2.5047 -0.3679  0.9319
   43DOPE  C214 5485   3.390   2.855  14.476 -0.9003  0.0585  0.4806
   43DOPE  H14R 5486   3.413   2.948  14.420  0.2119 -1.1836 -1.2376
   43DOPE  H14S 5487   3.463   2.844  14.559 -1.6364 -0.1776  1.1080
   43DOPE  C215 5488   3.248   2.859  14.538  0.1264 -0.2551  0.4514
   43DOPE  H15R 5489   3.220   2.765  14.590  1.5237  0.0904  1.9185
   43DOPE  H15S 5490   3.173   2.877  14.459 -1.2249 -1.7616  1.3200
   43DOPE  C216 5491   3.237   2.970  14.649  0.2942  0.3238 -0.0795
   43DOPE  H16R 5492   3.271   3.065  14.602  0.5927 -0.5518 -1.7153
   43DOPE  H16S 5493   3.313   2.949  14.728  1.1247  1.6779 -0.4817
   43DOPE  C217 5494   3.100   2.987  14.712  0.7385 -0.1906 -0.1679
   43DOPE  H17R 5495   3.059   2.892  14.754 -2.0207  0.2687 -1.6223
   43DOPE  H17S 5496   3.033   3.021  14.631  1.1319 -0.4328 -0.5992
   43DOPE  C218 5497   3.097   3.071  14.841 -0.5189  0.3283  0.3208
   43DOPE  H18R 5498   2.993   3.068  14.879 -0.5114 -1.4044  0.2695
   43DOPE  H18S 5499   3.128   3.172  14.807  0.7745 -0.7606 -2.0256
   43DOPE  H18T 5500   3.166   3.047  14.925  0.6529  1.1993 -0.3535
   43DOPE   C33 5501   3.560   2.034  13.724 -0.0641 -0.6925  0.4859
   43DOPE   H3X 5502   3.449   2.028  13.722 -0.0216 -1.3501 -0.7674
   43DOPE   H3Y 5503   3.591   2.141  13.732 -0.0284 -0.6320 -0.3453
   43DOPE   C34 5504   3.605   1.960  13.852 -0.2399 -0.0903 -0.0671
   43DOPE   H4X 5505   3.583   1.853  13.833  0.3123 -0.0635 -0.9182
   43DOPE   H4Y 5506   3.716   1.964  13.851  0.0903 -4.0055 -2.9309
   43DOPE   C35 5507   3.552   2.001  13.985  0.2632 -0.3475 -0.3611
   43DOPE   H5X 5508   3.554   2.110  14.004  2.3833 -0.1401 -1.4206
   43DOPE   H5Y 5509   3.612   1.951  14.064 -0.9604 -2.1031 -0.4972
   43DOPE   C36 5510   3.403   1.959  13.995 -0.9180 -0.1940  0.1510
   43DOPE   H6X 5511   3.400   1.849  13.978  2.1514 -0.1781 -1.1009
   43DOPE   H6Y 5512   3.341   2.011  13.919  0.2365  0.3519 -0.4274
   43DOPE   C37 5513   3.338   1.992  14.136  0.3318 -0.2736  0.4078
   43DOPE   H7X 5514   3.381   1.934  14.220 -0.1762  1.9280  2.2910
   43DOPE   H7Y 5515   3.341   2.100  14.159 -3.5667  0.1230 -0.2036
   43DOPE   C38 5516   3.184   1.950  14.140 -0.0723  0.7128  0.1192
   43DOPE   H8X 5517   3.180   1.843  14.110  0.7064  1.5668 -3.5234
   43DOPE   H8Y 5518   3.118   1.998  14.065 -0.3898 -1.4544 -1.0956
   43DOPE   C39 5519   3.116   1.968  14.275 -0.2934  0.6595 -0.6313
   43DOPE   H9X 5520   3.070   2.068  14.277 -0.7775  0.4335  0.6641
   43DOPE  C310 5521   3.085   1.886  14.373 -0.1470 -0.9986 -0.7212
   43DOPE  H10X 5522   3.021   1.926  14.454 -0.2493 -1.5048 -0.5500
   43DOPE  C311 5523   3.119   1.740  14.369 -0.4714  0.6637 -0.1494
   43DOPE  H11X 5524   3.076   1.694  14.278  0.0866  1.0102 -0.5960
   43DOPE  H11Y 5525   3.229   1.721  14.367 -0.7271 -1.1313  0.9176
   43DOPE  C312 5526   3.062   1.668  14.501 -0.0394  0.3724  0.2855
   43DOPE  H12X 5527   3.045   1.560  14.483  1.1273 -0.0086  1.3349
   43DOPE  H12Y 5528   2.960   1.707  14.522  0.0837  1.1030 -0.4181
   43DOPE  C313 5529   3.147   1.688  14.629  1.0496  0.2855 -0.6674
   43DOPE  H13X 5530   3.253   1.656  14.615  1.0828 -0.1130  0.3779
   43DOPE  H13Y 5531   3.143   1.795  14.658  1.2214 -0.1287  0.9583
   43DOPE  C314 5532   3.084   1.613  14.759 -0.7269 -0.3304 -0.1800
   43DOPE  H14X 5533   3.064   1.507  14.730 -2.9143 -0.1649  0.5808
   43DOPE  H14Y 5534   2.990   1.665  14.785 -0.3021  0.2396  0.2579
   43DOPE  C315 5535   3.181   1.624  14.882 -0.2601  1.0740 -0.9096
   43DOPE  H15X 5536   3.232   1.723  14.879  1.9744 -0.0422 -2.3706
   43DOPE  H15Y 5537   3.258   1.545  14.882 -0.8296  0.2983  3.2380
   43DOPE  C316 5538   3.103   1.617  15.015  0.1802 -0.2532  0.7227
   43DOPE  H16X 5539   3.157   1.543  15.078 -0.4435 -3.4956 -2.2094
   43DOPE  H16Y 5540   3.009   1.568  14.982  0.2560  0.3717 -0.5046
   43DOPE  C317 5541   3.090   1.755  15.087  0.0715 -0.6208 -0.0245
   43DOPE  H17X 5542   3.090   1.843  15.020  1.8620 -0.0163  0.7237
   43DOPE  H17Y 5543   2.987   1.753  15.130 -0.7095  1.4127 -1.6467
   43DOPE  C318 5544   3.180   1.769  15.209  0.2891 -0.0587 -0.2660
   43DOPE  H18X 5545   3.195   1.673  15.263 -2.2427  0.3877  1.3693
   43DOPE  H18Y 5546   3.280   1.801  15.171 -0.2418  2.1171  0.0747
   43DOPE  H18Z 5547   3.142   1.834  15.291 -1.1550 -1.3043  0.0998
   44DOPE     N 5548   5.961   0.070  12.776 -0.3080  0.4347 -0.0571
   44DOPE   HN1 5549   5.994   0.016  12.858  1.8337  1.4457 -0.1884
   44DOPE   HN2 5550   5.934  -0.003  12.706 -1.4320 -0.2973  1.0994
   44DOPE   HN3 5551   6.040   0.127  12.741 -0.1395  0.6211  0.6133
   44DOPE   C12 5552   5.852   0.160  12.828  0.5003  0.0954 -0.0546
   44DOPE  H12A 5553   5.797   0.216  12.748  0.9289  1.3785  0.5189
   44DOPE  H12B 5554   5.909   0.240  12.881  0.0479  0.7952 -0.5968
   44DOPE   C11 5555   5.743   0.099  12.913 -0.4798 -0.0552 -0.3727
   44DOPE  H11A 5556   5.798   0.047  12.994 -1.0017  1.4086  0.9821
   44DOPE  H11B 5557   5.691   0.028  12.846  0.0733  1.0172 -1.9991
   44DOPE     P 5558   5.693   0.330  13.039  0.6951 -0.1463 -0.3408
   44DOPE   O13 5559   5.582   0.381  13.125 -0.0277  0.0802 -0.1304
   44DOPE   O14 5560   5.753   0.420  12.940 -0.2601 -0.1387 -0.7716
   44DOPE   O11 5561   5.813   0.287  13.130  0.8006 -0.1693  0.1691
   44DOPE   O12 5562   5.649   0.201  12.960 -0.0667  0.0021  0.0808
   44DOPE    C1 5563   5.796   0.199  13.241 -0.8158 -0.2837 -0.0702
   44DOPE    HA 5564   5.880   0.128  13.252 -0.7985 -0.2645 -0.0784
   44DOPE    HB 5565   5.702   0.141  13.231 -0.5878 -1.0144  1.7786
   44DOPE    C2 5566   5.762   0.280  13.367 -0.1108 -0.1976 -0.0697
   44DOPE    HS 5567   5.681   0.350  13.338  0.9421  0.6651 -1.0322
   44DOPE   O21 5568   5.889   0.351  13.406 -0.3529  0.4117  0.2537
   44DOPE   C21 5569   5.866   0.458  13.485 -0.8242 -0.5850 -0.0632
   44DOPE   O22 5570   5.756   0.497  13.512 -0.0096 -0.2139 -0.7870
   44DOPE   C22 5571   5.999   0.510  13.547 -0.5122  0.4723 -0.5328
   44DOPE   H2R 5572   5.977   0.602  13.605  0.7757  1.5573 -1.6862
   44DOPE   H2S 5573   6.077   0.531  13.470  0.4420 -0.3541  0.1843
   44DOPE    C3 5574   5.713   0.191  13.486  0.5499  1.1997 -0.1140
   44DOPE    HX 5575   5.802   0.127  13.499 -1.0997 -1.1150  0.3690
   44DOPE    HY 5576   5.635   0.118  13.452  0.8176 -0.1786  2.0668
   44DOPE   O31 5577   5.675   0.260  13.605 -0.0089 -0.1366 -0.3040
   44DOPE   C31 5578   5.546   0.297  13.605  0.0378 -0.2671 -0.2879
   44DOPE   O32 5579   5.462   0.270  13.524  0.7099  0.2335  0.0732
   44DOPE   C32 5580   5.518   0.386  13.720  0.3296 -0.9934 -1.0092
   44DOPE   H2X 5581   5.606   0.446  13.748 -1.1492  0.1288  1.5647
   44DOPE   H2Y 5582   5.439   0.450  13.676  1.2429 -1.8196 -4.0953
   44DOPE   C23 5583   6.070   0.420  13.660 -0.3216  0.0523 -0.4564
   44DOPE   H3R 5584   6.174   0.460  13.658 -0.0773 -0.3548  1.6501
   44DOPE   H3S 5585   6.065   0.312  13.636 -1.7898 -0.0282  0.0574
   44DOPE   C24 5586   6.020   0.445  13.803 -0.8201  0.2321 -0.0112
   44DOPE   H4R 5587   5.914   0.411  13.809 -0.5735 -0.4120  0.8431
   44DOPE   H4S 5588   6.030   0.555  13.819  0.4579  0.1856 -0.4106
   44DOPE   C25 5589   6.104   0.357  13.900  0.4491 -0.4076 -0.1114
   44DOPE   H5R 5590   6.208   0.392  13.888 -0.6738  3.0893 -0.7732
   44DOPE   H5S 5591   6.101   0.254  13.856  0.3684  0.2872 -1.8092
   44DOPE   C26 5592   6.080   0.367  14.051 -0.7475  0.1721 -0.1087
   44DOPE   H6R 5593   6.102   0.472  14.080  0.5505 -0.4076  1.1018
   44DOPE   H6S 5594   6.147   0.297  14.106 -1.9106 -4.0366 -3.5237
   44DOPE   C27 5595   5.934   0.361  14.097  0.2145  1.0791  0.4418
   44DOPE   H7R 5596   5.896   0.263  14.064  2.2513 -0.1944  1.6299
   44DOPE   H7S 5597   5.871   0.430  14.038 -0.0765 -0.3807 -1.0065
   44DOPE   C28 5598   5.913   0.391  14.242 -0.3447 -0.2332 -0.5601
   44DOPE   H8R 5599   5.974   0.317  14.299 -0.4209  0.2453  0.1531
   44DOPE   H8S 5600   5.804   0.373  14.253 -0.4292  0.4870 -0.1739
   44DOPE   C29 5601   5.950   0.529  14.293 -0.7577  0.2158 -0.1053
   44DOPE   H9R 5602   6.019   0.585  14.228 -1.7936  0.9340 -0.6217
   44DOPE  C210 5603   5.913   0.588  14.410  0.3893  0.6294  0.5459
   44DOPE  H10R 5604   5.947   0.689  14.438  0.5922  0.4323  1.0281
   44DOPE  C211 5605   5.819   0.523  14.504 -0.0608  0.9432  0.2027
   44DOPE  H11R 5606   5.858   0.537  14.608 -0.6086  0.2319  0.5084
   44DOPE  H11S 5607   5.796   0.415  14.491 -1.6754  1.2865 -0.0047
   44DOPE  C212 5608   5.673   0.579  14.496 -0.1768  0.2073 -0.3001
   44DOPE  H12R 5609   5.624   0.560  14.398  1.8713  1.6764 -1.7178
   44DOPE  H12S 5610   5.676   0.689  14.515 -1.1112  0.1073  0.4438
   44DOPE  C213 5611   5.576   0.523  14.605  0.3188 -0.3225  0.7311
   44DOPE  H13R 5612   5.615   0.522  14.709 -1.8701 -1.4385  1.5857
   44DOPE  H13S 5613   5.558   0.418  14.575 -0.5749  0.1708 -0.5705
   44DOPE  C214 5614   5.444   0.592  14.597  0.3650 -0.1510  0.0261
   44DOPE  H14R 5615   5.398   0.579  14.497 -1.0573 -1.3410  0.7785
   44DOPE  H14S 5616   5.428   0.698  14.627  3.2062  0.1190  0.8697
   44DOPE  C215 5617   5.341   0.536  14.696 -0.5580 -0.1957 -0.3165
   44DOPE  H15R 5618   5.376   0.567  14.797 -2.1781  0.5847  0.0489
   44DOPE  H15S 5619   5.346   0.426  14.682 -0.8886 -0.5088  1.7424
   44DOPE  C216 5620   5.191   0.579  14.682 -0.6093  0.4757 -0.1611
   44DOPE  H16R 5621   5.169   0.686  14.661  2.1279  1.0370 -0.4792
   44DOPE  H16S 5622   5.151   0.552  14.782  0.8301  0.4096  0.4166
   44DOPE  C217 5623   5.123   0.493  14.577  0.5698  0.0842  0.6153
   44DOPE  H17R 5624   5.148   0.387  14.597 -1.5592 -0.4024  0.9514
   44DOPE  H17S 5625   5.166   0.513  14.476 -1.2861  1.7410  0.0870
   44DOPE  C218 5626   4.974   0.511  14.564  0.0056 -0.4068  0.4789
   44DOPE  H18R 5627   4.919   0.502  14.660 -1.7245  0.3640 -0.4028
   44DOPE  H18S 5628   4.923   0.441  14.495 -1.5051 -0.5147  1.6495
   44DOPE  H18T 5629   4.962   0.616  14.530 -0.1625  0.0746  1.9308
   44DOPE   C33 5630   5.466   0.309  13.844 -0.1884 -0.0835 -0.5587
   44DOPE   H3X 5631   5.386   0.235  13.818  1.6287 -1.5215 -2.4597
   44DOPE   H3Y 5632   5.426   0.393  13.903  1.0069  1.3583 -1.7322
   44DOPE   C34 5633   5.585   0.240  13.919 -0.1638 -0.9802 -0.3999
   44DOPE   H4X 5634   5.628   0.161  13.854  0.4672 -2.6534  1.9034
   44DOPE   H4Y 5635   5.657   0.315  13.958 -0.9219 -0.4336 -0.0308
   44DOPE   C35 5636   5.529   0.163  14.039  0.1226 -0.7978  0.4445
   44DOPE   H5X 5637   5.601   0.080  14.060  0.0666 -0.3490  2.6861
   44DOPE   H5Y 5638   5.434   0.114  14.008 -0.0215 -0.6390  0.6346
   44DOPE   C36 5639   5.503   0.234  14.169 -0.4953 -1.2600  0.1469
   44DOPE   H6X 5640   5.456   0.331  14.145  0.9204 -0.9986 -1.8642
   44DOPE   H6Y 5641   5.596   0.271  14.217  0.2929  0.1980 -2.3066
   44DOPE   C37 5642   5.414   0.158  14.271  0.2412  0.3595  0.2370
   44DOPE   H7X 5643   5.315   0.136  14.224  0.4613  1.5665 -0.8748
   44DOPE   H7Y 5644   5.469   0.065  14.295 -0.4288 -0.0603  0.1565
   44DOPE   C38 5645   5.395   0.232  14.409  0.3635  0.5100  0.9799
   44DOPE   H8X 5646   5.362   0.336  14.388  0.8874  1.0160  2.5231
   44DOPE   H8Y 5647   5.500   0.242  14.444  1.5560 -0.1908 -2.1441
   44DOPE   C39 5648   5.304   0.167  14.502  0.9755  0.0501 -0.3463
   44DOPE   H9X 5649   5.197   0.180  14.479  0.4127 -0.4239  1.7710
   44DOPE  C310 5650   5.333   0.091  14.613 -0.5836  0.2465  0.5024
   44DOPE  H10X 5651   5.255   0.035  14.666  1.3932 -2.1278  1.0978
   44DOPE  C311 5652   5.480   0.052  14.658  0.2960 -0.8064  0.0090
   44DOPE  H11X 5653   5.486  -0.053  14.694  0.6847 -0.7358  0.1528
   44DOPE  H11Y 5654   5.554   0.069  14.577 -2.9389  4.6950 -2.4088
   44DOPE  C312 5655   5.508   0.144  14.785  0.4726  0.6857 -0.1856
   44DOPE  H12X 5656   5.483   0.248  14.755 -1.7030  0.3982  0.4635
   44DOPE  H12Y 5657   5.617   0.136  14.806  0.2979 -0.5941  0.3305
   44DOPE  C313 5658   5.444   0.111  14.920 -0.7651  0.3616  0.1322
   44DOPE  H13X 5659   5.334   0.124  14.915 -1.0454 -1.7909 -0.2582
   44DOPE  H13Y 5660   5.463   0.002  14.933  1.8017  0.8693  1.2080
   44DOPE  C314 5661   5.509   0.180  15.043 -0.3867 -0.3742  0.2932
   44DOPE  H14X 5662   5.543   0.278  15.003 -0.7930 -0.2005  0.3669
   44DOPE  H14Y 5663   5.599   0.124  15.077 -0.1149  0.7837  1.6022
   44DOPE  C315 5664   5.425   0.202  15.168  0.7221 -0.1799 -0.9141
   44DOPE  H15X 5665   5.350   0.280  15.140  2.1280  1.0934 -1.2567
   44DOPE  H15Y 5666   5.478   0.264  15.244  0.0330  1.6205 -1.8271
   44DOPE  C316 5667   5.369   0.084  15.244  0.2205  0.4119 -0.5536
   44DOPE  H16X 5668   5.456   0.016  15.259  0.7659  1.5629  2.2579
   44DOPE  H16Y 5669   5.293   0.026  15.189 -2.0412  0.9231  1.8220
   44DOPE  C317 5670   5.295   0.130  15.370  0.0988  0.1076 -1.5599
   44DOPE  H17X 5671   5.369   0.157  15.448  1.3862 -3.2525 -1.4338
   44DOPE  H17Y 5672   5.236   0.221  15.348  2.5082  1.7874 -1.4273
   44DOPE  C318 5673   5.214   0.018  15.438  0.3691  0.0990 -0.3026
   44DOPE  H18X 5674   5.266  -0.073  15.474 -1.2456 -0.2481  1.2567
   44DOPE  H18Y 5675   5.152   0.056  15.522 -1.3971 -0.5305 -1.2583
   44DOPE  H18Z 5676   5.132  -0.016  15.371  0.6098 -2.1554  0.4750
   45DOPE     N 5677   5.285   7.612  12.695 -0.1556  0.0163 -0.4342
   45DOPE   HN1 5678   5.340   7.683  12.747  2.3269 -1.2652 -1.1668
   45DOPE   HN2 5679   5.311   7.627  12.595 -0.7716 -2.6479 -1.0869
   45DOPE   HN3 5680   5.183   7.634  12.690 -0.2978 -0.0773  1.5228
   45DOPE   C12 5681   5.325   7.472  12.743 -0.7807 -0.4049  1.1588
   45DOPE  H12A 5682   5.435   7.475  12.751 -0.1327  0.1037 -4.5151
   45DOPE  H12B 5683   5.278   7.408  12.665 -0.6437 -0.0616  0.7959
   45DOPE   C11 5684   5.262   7.438  12.878 -0.0786 -0.4277  0.8677
   45DOPE  H11A 5685   5.301   7.517  12.946 -1.1669  0.9849 -0.0921
   45DOPE  H11B 5686   5.292   7.338  12.917 -1.9828 -1.4595 -0.1644
   45DOPE     P 5687   5.035   7.461  12.995  0.0184  0.1170 -0.5279
   45DOPE   O13 5688   4.899   7.446  12.938 -0.3040 -0.1047 -0.5377
   45DOPE   O14 5689   5.074   7.576  13.082  0.2004 -0.2654  0.8629
   45DOPE   O11 5690   5.082   7.328  13.067 -0.5823  0.3638  0.7055
   45DOPE   O12 5691   5.124   7.455  12.862  0.2405  0.2055 -0.1440
   45DOPE    C1 5692   5.087   7.318  13.210 -0.6102 -0.4534 -0.2451
   45DOPE    HA 5693   5.049   7.220  13.247 -1.4780 -0.1665 -0.3677
   45DOPE    HB 5694   5.027   7.393  13.266 -1.3909 -1.8266  0.8291
   45DOPE    C2 5695   5.229   7.325  13.260  0.6152 -1.0694  0.4507
   45DOPE    HS 5696   5.269   7.426  13.233  1.3862 -0.9217  2.0171
   45DOPE   O21 5697   5.309   7.222  13.200  0.3287  0.3597 -0.6777
   45DOPE   C21 5698   5.439   7.244  13.191 -0.5721  0.9180  0.4575
   45DOPE   O22 5699   5.496   7.351  13.212 -0.6114 -0.5781  0.3876
   45DOPE   C22 5700   5.514   7.112  13.166 -0.4911  0.1200  0.1953
   45DOPE   H2R 5701   5.547   7.121  13.060 -0.8846  2.0987  0.2006
   45DOPE   H2S 5702   5.437   7.033  13.180  0.6343 -1.2818 -1.1622
   45DOPE    C3 5703   5.235   7.318  13.418  0.3680 -0.3484 -0.1809
   45DOPE    HX 5704   5.204   7.214  13.445  1.5451 -0.0084  2.8495
   45DOPE    HY 5705   5.159   7.388  13.459 -0.6988 -0.4570 -1.8429
   45DOPE   O31 5706   5.360   7.344  13.474  0.2519  0.0964  0.2923
   45DOPE   C31 5707   5.391   7.474  13.501  0.5042 -0.4716 -0.3696
   45DOPE   O32 5708   5.316   7.567  13.463  0.2806  0.4801  0.0672
   45DOPE   C32 5709   5.534   7.489  13.555  0.5243 -0.4350  0.0369
   45DOPE   H2X 5710   5.567   7.400  13.612  5.2357  3.7226  4.8463
   45DOPE   H2Y 5711   5.604   7.505  13.470  0.5593  0.7414  0.2734
   45DOPE   C23 5712   5.636   7.081  13.257 -0.2730  0.3522  0.0142
   45DOPE   H3R 5713   5.704   7.168  13.241 -0.3155 -0.0302 -2.5433
   45DOPE   H3S 5714   5.682   6.987  13.222 -1.6195 -0.2178 -0.2897
   45DOPE   C24 5715   5.610   7.069  13.410 -0.4902  0.3965  0.1563
   45DOPE   H4R 5716   5.568   6.968  13.426 -0.5687  0.5956  1.3041
   45DOPE   H4S 5717   5.525   7.138  13.432 -0.7130  1.4145 -3.2271
   45DOPE   C25 5718   5.732   7.087  13.505 -1.0914  0.2119  0.0050
   45DOPE   H5R 5719   5.786   7.182  13.484 -0.2574 -0.1637  0.3993
   45DOPE   H5S 5720   5.795   6.996  13.498 -0.3269  0.6355  1.0980
   45DOPE   C26 5721   5.686   7.099  13.651  0.1820 -0.4921 -0.1328
   45DOPE   H6R 5722   5.626   7.008  13.673 -0.7113  0.3025  0.8852
   45DOPE   H6S 5723   5.612   7.181  13.669  0.5341 -0.5414  1.7931
   45DOPE   C27 5724   5.809   7.109  13.746  0.2013 -0.2374  0.2665
   45DOPE   H7R 5725   5.863   7.203  13.723  0.9542 -1.0516 -1.5467
   45DOPE   H7S 5726   5.868   7.019  13.719 -0.8585 -0.4745 -1.4680
   45DOPE   C28 5727   5.765   7.117  13.896  0.1361 -0.4762  0.2249
   45DOPE   H8R 5728   5.702   7.209  13.901 -0.3877 -0.7742 -0.5785
   45DOPE   H8S 5729   5.860   7.139  13.949  0.5851 -1.3241 -0.2103
   45DOPE   C29 5730   5.681   7.006  13.954  0.2182  0.4342  0.1996
   45DOPE   H9R 5731   5.639   6.925  13.892 -1.1779 -0.3419  2.0741
   45DOPE  C210 5732   5.679   6.966  14.078 -0.3478  0.1905 -0.0713
   45DOPE  H10R 5733   5.623   6.875  14.105  1.3320 -0.9554 -0.3221
   45DOPE  C211 5734   5.759   7.023  14.188  0.4780  0.3650 -0.3976
   45DOPE  H11R 5735   5.786   7.129  14.171  0.1169  0.3964 -0.8120
   45DOPE  H11S 5736   5.854   6.965  14.193  0.9977  1.3297  1.7401
   45DOPE  C212 5737   5.712   7.019  14.339 -0.0719 -0.1076 -0.1095
   45DOPE  H12R 5738   5.807   7.025  14.396 -0.0871  2.5031 -0.2291
   45DOPE  H12S 5739   5.664   6.921  14.359  0.6216 -0.6782 -1.1371
   45DOPE  C213 5740   5.620   7.132  14.397  0.4150 -0.0003 -0.1835
   45DOPE  H13R 5741   5.530   7.135  14.331 -0.3340  1.2147  0.8655
   45DOPE  H13S 5742   5.662   7.234  14.392 -1.2576  0.7349 -0.0342
   45DOPE  C214 5743   5.570   7.094  14.541  0.1190 -0.4465  0.2126
   45DOPE  H14R 5744   5.665   7.072  14.595  0.9239 -0.0269 -0.9704
   45DOPE  H14S 5745   5.503   7.006  14.536  1.1930 -1.2789  0.1924
   45DOPE  C215 5746   5.480   7.208  14.603 -1.1855  0.4850  0.0971
   45DOPE  H15R 5747   5.413   7.244  14.523 -0.5416 -0.0784 -0.7175
   45DOPE  H15S 5748   5.550   7.294  14.615  1.1995 -1.4039  0.6515
   45DOPE  C216 5749   5.394   7.168  14.721 -0.1309  0.2327 -0.1842
   45DOPE  H16R 5750   5.461   7.138  14.805  0.1741 -1.3174 -0.9322
   45DOPE  H16S 5751   5.323   7.087  14.694 -1.7754  1.3057  0.8139
   45DOPE  C217 5752   5.313   7.291  14.764  0.4291 -0.8016 -0.2041
   45DOPE  H17R 5753   5.376   7.378  14.738 -2.3352  1.1783 -0.7932
   45DOPE  H17S 5754   5.285   7.292  14.872 -1.2336  1.2243 -0.6017
   45DOPE  C218 5755   5.184   7.320  14.680 -0.3894  0.9536 -0.2756
   45DOPE  H18R 5756   5.138   7.419  14.696  0.6758  1.9332 -2.7783
   45DOPE  H18S 5757   5.116   7.235  14.705  2.9920 -2.1193 -0.5825
   45DOPE  H18T 5758   5.208   7.303  14.573  2.1445  1.0979  0.1953
   45DOPE   C33 5759   5.542   7.603  13.659 -0.1295  0.3829  0.6178
   45DOPE   H3X 5760   5.480   7.686  13.618  2.1634  1.5330 -0.6904
   45DOPE   H3Y 5761   5.646   7.641  13.671  0.0995  0.1636 -0.5854
   45DOPE   C34 5762   5.472   7.567  13.791  0.2787  0.2120 -0.2496
   45DOPE   H4X 5763   5.444   7.663  13.839  2.2892  1.3164 -1.1393
   45DOPE   H4Y 5764   5.378   7.518  13.759 -0.0526 -0.8692  2.1511
   45DOPE   C35 5765   5.562   7.471  13.878  0.2949 -0.3476  0.1483
   45DOPE   H5X 5766   5.645   7.530  13.921  0.3854  1.2415 -2.0933
   45DOPE   H5Y 5767   5.606   7.391  13.814 -0.0855 -1.5358  1.3256
   45DOPE   C36 5768   5.475   7.405  13.987 -0.4652 -0.5440 -0.2455
   45DOPE   H6X 5769   5.533   7.322  14.031  1.7883  2.0882  2.1160
   45DOPE   H6Y 5770   5.381   7.370  13.938 -1.1090  2.5133 -1.4771
   45DOPE   C37 5771   5.430   7.494  14.101 -1.1658 -0.1665  0.0703
   45DOPE   H7X 5772   5.513   7.535  14.163  0.0303  3.2221 -3.3865
   45DOPE   H7Y 5773   5.370   7.580  14.065 -2.1596 -0.5284  0.8129
   45DOPE   C38 5774   5.349   7.415  14.208  0.1242  0.3771 -0.0695
   45DOPE   H8X 5775   5.409   7.325  14.236  0.4173  0.0278 -1.7535
   45DOPE   H8Y 5776   5.262   7.369  14.156 -0.5523  0.4861  0.9187
   45DOPE   C39 5777   5.298   7.489  14.330 -0.3220 -0.1775  0.3483
   45DOPE   H9X 5778   5.380   7.508  14.402  0.9503 -2.6229 -0.3349
   45DOPE  C310 5779   5.172   7.526  14.361  0.1375  0.2569  0.2952
   45DOPE  H10X 5780   5.154   7.596  14.444 -0.4931 -1.6378  1.7990
   45DOPE  C311 5781   5.043   7.495  14.286 -0.2457 -0.0748 -0.6789
   45DOPE  H11X 5782   5.055   7.415  14.210  0.6326  0.0482 -0.6695
   45DOPE  H11Y 5783   4.958   7.473  14.354  0.0283  0.8801 -0.0108
   45DOPE  C312 5784   4.996   7.617  14.206  0.2410  0.0977  0.4041
   45DOPE  H12X 5785   4.917   7.593  14.132 -0.6589  2.4426  0.5110
   45DOPE  H12Y 5786   5.081   7.666  14.153 -0.0167  1.3877  1.1351
   45DOPE  C313 5787   4.934   7.736  14.294 -0.0716  0.1609 -0.3378
   45DOPE  H13X 5788   4.847   7.690  14.346 -0.1467  0.6355 -0.0345
   45DOPE  H13Y 5789   5.009   7.768  14.370 -1.0263  0.9861  0.2796
   45DOPE  C314 5790   4.896   7.858  14.218  0.1092  0.2417  0.6299
   45DOPE  H14X 5791   4.828   7.921  14.279 -1.5073  2.0528 -2.7562
   45DOPE  H14Y 5792   4.835   7.838  14.127 -0.2693 -1.4413  1.2138
   45DOPE  C315 5793   5.006   7.958  14.176 -0.1590 -0.2003 -0.4382
   45DOPE  H15X 5794   5.090   7.926  14.110 -0.0202 -0.0291 -0.3463
   45DOPE  H15Y 5795   5.051   7.992  14.272  1.1603  2.8209 -2.0102
   45DOPE  C316 5796   4.946   8.080  14.108 -0.2322 -0.0537  0.2296
   45DOPE  H16X 5797   4.859   8.109  14.171 -0.6750 -1.2324  0.1810
   45DOPE  H16Y 5798   4.910   8.039  14.011 -0.9555 -0.2961  0.5951
   45DOPE  C317 5799   5.039   8.208  14.091 -0.8738  0.1610  0.1682
   45DOPE  H17X 5800   5.074   8.217  14.195  0.8687  1.3447 -0.4866
   45DOPE  H17Y 5801   5.126   8.184  14.026  0.0048  0.4083  1.2420
   45DOPE  C318 5802   4.971   8.333  14.050  0.2345  0.4423  0.1041
   45DOPE  H18X 5803   5.035   8.422  14.069  0.2173  0.4707  0.0309
   45DOPE  H18Y 5804   4.954   8.339  13.940  0.3024  0.1031  0.0736
   45DOPE  H18Z 5805   4.870   8.359  14.088  0.2323  0.7096 -0.0844
   46DOPE     N 5806   6.692   4.609  12.966  0.0384 -0.8923 -0.6567
   46DOPE   HN1 5807   6.625   4.680  12.932 -0.6683 -1.3035 -0.1479
   46DOPE   HN2 5808   6.735   4.562  12.883  1.1022 -0.0789 -0.5782
   46DOPE   HN3 5809   6.638   4.542  13.024 -0.0252 -0.8742 -0.6948
   46DOPE   C12 5810   6.802   4.668  13.041  0.4657  0.1709  0.4784
   46DOPE  H12A 5811   6.879   4.591  13.060  0.0818 -0.7340 -1.4186
   46DOPE  H12B 5812   6.757   4.710  13.134  1.5330 -2.0973  2.1071
   46DOPE   C11 5813   6.858   4.777  12.949 -0.4278 -1.2414 -0.1015
   46DOPE  H11A 5814   6.906   4.733  12.859  1.1273  2.1180 -1.0630
   46DOPE  H11B 5815   6.941   4.824  13.005 -0.0616 -2.1039  0.0970
   46DOPE     P 5816   6.712   4.986  13.011  0.2505  0.2559 -0.0994
   46DOPE   O13 5817   6.578   4.951  13.067 -0.4902 -0.2991 -0.5889
   46DOPE   O14 5818   6.729   5.113  12.939  0.4752 -0.2170  0.0613
   46DOPE   O11 5819   6.816   4.976  13.129 -0.3990 -0.6940 -0.5326
   46DOPE   O12 5820   6.762   4.876  12.911  0.2785 -0.1261 -0.1694
   46DOPE    C1 5821   6.920   5.065  13.173 -0.1603  0.1138  0.3008
   46DOPE    HA 5822   6.897   5.171  13.146 -0.4821  0.0234  0.2172
   46DOPE    HB 5823   7.016   5.035  13.125  0.7560  0.9797  1.5307
   46DOPE    C2 5824   6.944   5.059  13.327  0.2481  0.1720  0.0080
   46DOPE    HS 5825   6.956   4.951  13.350  0.9317 -0.3930 -2.5974
   46DOPE   O21 5826   6.825   5.118  13.388 -0.2513  0.1026 -0.3744
   46DOPE   C21 5827   6.724   5.042  13.399 -1.2100 -0.0059  0.4807
   46DOPE   O22 5828   6.728   4.917  13.407 -0.5846 -0.0419 -0.1185
   46DOPE   C22 5829   6.598   5.121  13.376 -0.0814 -0.2679 -0.4864
   46DOPE   H2R 5830   6.581   5.144  13.268 -0.1902  1.8139 -0.0734
   46DOPE   H2S 5831   6.621   5.222  13.416  0.8462 -0.0535 -1.5220
   46DOPE    C3 5832   7.064   5.142  13.380 -0.3404 -0.5468 -0.5991
   46DOPE    HX 5833   7.048   5.246  13.345 -0.3484 -0.4841 -0.4052
   46DOPE    HY 5834   7.154   5.103  13.327  1.0973  0.7016  0.8561
   46DOPE   O31 5835   7.085   5.127  13.524 -0.1789 -0.3024 -0.9365
   46DOPE   C31 5836   7.187   5.198  13.571 -0.0539 -0.5037 -0.1760
   46DOPE   O32 5837   7.273   5.248  13.499 -0.5429  0.3924 -0.5681
   46DOPE   C32 5838   7.170   5.218  13.723 -0.2755 -0.4254  0.2569
   46DOPE   H2X 5839   7.072   5.267  13.740  0.1050  0.5130 -0.1452
   46DOPE   H2Y 5840   7.167   5.114  13.762 -0.8398 -0.4893  0.0538
   46DOPE   C23 5841   6.479   5.056  13.445  0.0325  0.4167  0.5198
   46DOPE   H3R 5842   6.471   4.951  13.410  1.2171  0.2181  0.7930
   46DOPE   H3S 5843   6.386   5.108  13.414 -1.4034 -2.1264  0.2816
   46DOPE   C24 5844   6.493   5.078  13.597 -0.2131 -0.1389 -0.0508
   46DOPE   H4R 5845   6.481   5.186  13.620  1.2681 -0.3066  1.6840
   46DOPE   H4S 5846   6.593   5.046  13.634  0.0615  0.1157 -0.5601
   46DOPE   C25 5847   6.382   5.012  13.681 -0.2104 -0.2106  0.1290
   46DOPE   H5R 5848   6.439   4.943  13.746  1.5481 -1.7461 -2.8074
   46DOPE   H5S 5849   6.329   4.940  13.615  1.2431 -0.3353 -0.9559
   46DOPE   C26 5850   6.295   5.105  13.758 -0.0809 -0.2407 -0.4325
   46DOPE   H6R 5851   6.234   5.173  13.694  1.4603  3.4585  1.7072
   46DOPE   H6S 5852   6.355   5.176  13.819  1.3594 -1.0216 -0.8819
   46DOPE   C27 5853   6.195   5.028  13.852  0.2596  0.0683 -0.1097
   46DOPE   H7R 5854   6.265   4.990  13.930  3.2047 -0.0864 -2.6327
   46DOPE   H7S 5855   6.155   4.941  13.797  2.2069 -0.3796 -0.8810
   46DOPE   C28 5856   6.073   5.117  13.909 -0.1678 -0.5348  0.4671
   46DOPE   H8R 5857   6.006   5.043  13.958 -1.5884 -0.8532 -1.7640
   46DOPE   H8S 5858   6.003   5.147  13.828  0.7704  1.1992  0.2592
   46DOPE   C29 5859   6.110   5.235  13.991  0.8288 -0.2211 -1.0152
   46DOPE   H9R 5860   6.157   5.322  13.944  0.9443  1.6025  2.2531
   46DOPE  C210 5861   6.103   5.243  14.127  0.5496  0.4044  0.8891
   46DOPE  H10R 5862   6.146   5.332  14.175 -0.4729  1.1051  0.5291
   46DOPE  C211 5863   6.059   5.134  14.221 -0.4440  0.2635 -0.6642
   46DOPE  H11R 5864   6.152   5.077  14.241  0.5743  1.9131 -0.5285
   46DOPE  H11S 5865   6.006   5.053  14.168  2.2832 -1.1151 -1.4719
   46DOPE  C212 5866   5.995   5.175  14.348 -0.0607 -0.5850 -0.4287
   46DOPE  H12R 5867   5.885   5.183  14.332 -0.2047 -1.5733  0.0285
   46DOPE  H12S 5868   6.018   5.279  14.380 -1.0199 -1.0284  1.8369
   46DOPE  C213 5869   6.032   5.073  14.458 -0.3083 -0.5302 -0.7133
   46DOPE  H13R 5870   5.980   5.097  14.553 -0.6579 -1.4514 -0.6681
   46DOPE  H13S 5871   6.136   5.102  14.487  0.0852 -2.3386 -0.1909
   46DOPE  C214 5872   6.024   4.922  14.419 -0.7817 -0.5289  0.5514
   46DOPE  H14R 5873   6.107   4.905  14.347  0.3025  2.1634  1.0681
   46DOPE  H14S 5874   5.928   4.902  14.367 -0.5957 -2.5384  0.9041
   46DOPE  C215 5875   6.033   4.820  14.529 -0.1123  0.1739 -0.8090
   46DOPE  H15R 5876   6.128   4.839  14.584  1.1065 -1.3574 -2.2713
   46DOPE  H15S 5877   6.031   4.714  14.495  0.0558 -0.0560 -0.1283
   46DOPE  C216 5878   5.912   4.820  14.627  0.5341  0.0307  0.0776
   46DOPE  H16R 5879   5.817   4.826  14.569  0.9458  0.5134 -0.5501
   46DOPE  H16S 5880   5.918   4.918  14.678 -1.7145  1.3310 -1.9235
   46DOPE  C217 5881   5.892   4.706  14.732  0.0573 -0.1133  0.7803
   46DOPE  H17R 5882   5.982   4.701  14.797  0.3030  0.4266  0.4908
   46DOPE  H17S 5883   5.881   4.607  14.683  1.4702 -0.1974  0.6113
   46DOPE  C218 5884   5.769   4.732  14.829 -0.0637  0.5385 -0.8929
   46DOPE  H18R 5885   5.681   4.759  14.766 -2.3336 -3.5078  0.1906
   46DOPE  H18S 5886   5.794   4.810  14.904  0.7611 -0.1226 -0.4757
   46DOPE  H18T 5887   5.756   4.640  14.890  1.0322  1.1704  0.3547
   46DOPE   C33 5888   7.281   5.282  13.806  0.0754 -0.0035 -0.3926
   46DOPE   H3X 5889   7.331   5.360  13.745  1.4732  1.1970  2.1458
   46DOPE   H3Y 5890   7.369   5.220  13.836  0.6983  1.5435  1.1761
   46DOPE   C34 5891   7.227   5.361  13.928  0.5873  0.1194 -0.3030
   46DOPE   H4X 5892   7.304   5.419  13.984  0.1993  1.5090 -1.1444
   46DOPE   H4Y 5893   7.151   5.438  13.902 -1.4230 -1.9625 -0.9687
   46DOPE   C35 5894   7.157   5.277  14.033  0.3817 -0.3048 -0.0801
   46DOPE   H5X 5895   7.214   5.189  14.071  0.4183  0.8559  2.8658
   46DOPE   H5Y 5896   7.073   5.237  13.972 -0.7728 -0.2314  1.4046
   46DOPE   C36 5897   7.109   5.360  14.156 -0.4512 -0.2306 -0.9775
   46DOPE   H6X 5898   7.060   5.452  14.117 -2.1626 -1.4033 -1.7360
   46DOPE   H6Y 5899   7.195   5.376  14.225 -1.1567  0.2608 -0.1841
   46DOPE   C37 5900   7.013   5.277  14.236  0.5550 -0.3413 -0.0526
   46DOPE   H7X 5901   6.915   5.263  14.185 -0.0135  0.1379  0.8689
   46DOPE   H7Y 5902   7.063   5.178  14.239  0.3856 -0.6018 -3.0394
   46DOPE   C38 5903   6.991   5.330  14.380  0.2260 -0.0196  0.3437
   46DOPE   H8X 5904   6.930   5.422  14.365  0.7940  0.1463 -1.1200
   46DOPE   H8Y 5905   7.090   5.365  14.415  0.5351  1.0302 -1.4258
   46DOPE   C39 5906   6.919   5.228  14.475  0.3927 -0.3975  0.9730
   46DOPE   H9X 5907   6.829   5.181  14.433  0.5686  0.1606 -0.0657
   46DOPE  C310 5908   6.961   5.189  14.593  0.2126  0.0692  0.1225
   46DOPE  H10X 5909   6.904   5.110  14.643  0.5739 -1.8553 -2.2943
   46DOPE  C311 5910   7.089   5.235  14.660 -0.1009  0.1221  0.7025
   46DOPE  H11X 5911   7.138   5.149  14.711  1.5264  0.3901 -0.3216
   46DOPE  H11Y 5912   7.168   5.262  14.587  0.2618 -2.2664  0.1332
   46DOPE  C312 5913   7.062   5.350  14.762  0.1671 -0.0570  0.5414
   46DOPE  H12X 5914   6.995   5.423  14.713 -1.1876  0.0079  2.3780
   46DOPE  H12Y 5915   7.162   5.395  14.780  0.6465 -1.9560  3.3335
   46DOPE  C313 5916   7.004   5.317  14.896  0.0366  0.8019 -0.0260
   46DOPE  H13X 5917   6.909   5.266  14.866 -0.5040  1.6628  0.1992
   46DOPE  H13Y 5918   7.078   5.244  14.936  1.9522  1.1772 -2.6168
   46DOPE  C314 5919   6.986   5.433  14.998 -0.3395  1.3347  0.1824
   46DOPE  H14X 5920   7.084   5.468  15.036 -0.1090  0.9438 -0.0402
   46DOPE  H14Y 5921   6.938   5.398  15.092  0.2636  0.8097  0.2982
   46DOPE  C315 5922   6.912   5.560  14.941 -0.0859  0.4137  0.0620
   46DOPE  H15X 5923   6.979   5.590  14.858  1.4585 -0.8810  0.7841
   46DOPE  H15Y 5924   6.917   5.641  15.016  2.1002 -2.9465  4.0115
   46DOPE  C316 5925   6.770   5.523  14.910  0.0561 -0.3848 -0.4336
   46DOPE  H16X 5926   6.779   5.490  14.804 -1.1953 -0.2988 -0.5841
   46DOPE  H16Y 5927   6.704   5.612  14.904  2.0211  1.0700 -1.9992
   46DOPE  C317 5928   6.700   5.410  14.994 -0.0426 -0.0472 -0.4721
   46DOPE  H17X 5929   6.618   5.384  14.923 -2.5322  1.5173  1.6743
   46DOPE  H17Y 5930   6.758   5.315  14.998  0.9840  0.4820 -1.8450
   46DOPE  C318 5931   6.641   5.457  15.126 -0.2198  0.0043 -0.3256
   46DOPE  H18X 5932   6.716   5.477  15.206 -0.2757 -0.1025 -0.2458
   46DOPE  H18Y 5933   6.586   5.553  15.117  0.4588  0.3234 -1.2045
   46DOPE  H18Z 5934   6.588   5.370  15.169 -0.8887  1.2972  1.5972
   47DOPE     N 5935   3.159   6.335  13.215 -0.1977  0.7910  0.4152
   47DOPE   HN1 5936   3.077   6.388  13.252  0.4858  0.9460  1.7772
   47DOPE   HN2 5937   3.160   6.249  13.274  1.8841  0.3764 -0.1408
   47DOPE   HN3 5938   3.248   6.386  13.230  0.2396 -0.3619  2.0155
   47DOPE   C12 5939   3.144   6.305  13.069  0.5732 -0.6665 -0.4022
   47DOPE  H12A 5940   3.220   6.228  13.042 -0.7641 -2.5171  0.8882
   47DOPE  H12B 5941   3.159   6.397  13.007 -0.4728  0.3552  0.8199
   47DOPE   C11 5942   3.007   6.246  13.035  0.7965  0.6658 -0.6403
   47DOPE  H11A 5943   3.013   6.210  12.930  0.0041  2.0379 -1.1734
   47DOPE  H11B 5944   2.929   6.325  13.032  1.9422  1.8530 -0.3257
   47DOPE     P 5945   2.853   6.044  13.085 -0.5211 -0.0947  0.3928
   47DOPE   O13 5946   2.911   5.960  12.975 -0.0894 -0.1321 -0.0923
   47DOPE   O14 5947   2.731   6.125  13.055 -0.4748  0.2957 -0.3667
   47DOPE   O11 5948   2.837   5.957  13.211  0.5587  0.6620 -0.9587
   47DOPE   O12 5949   2.970   6.142  13.127 -0.1691  0.4226  0.0310
   47DOPE    C1 5950   2.935   5.864  13.254 -0.5720 -0.2831 -0.4803
   47DOPE    HA 5951   3.037   5.898  13.226  0.1841 -2.1899 -0.1855
   47DOPE    HB 5952   2.913   5.765  13.210 -0.1164 -0.9618  0.7473
   47DOPE    C2 5953   2.929   5.848  13.410 -0.7169  0.1913 -0.5372
   47DOPE    HS 5954   3.028   5.808  13.440 -0.7027 -0.0483 -0.8968
   47DOPE   O21 5955   2.819   5.764  13.444  0.6974 -0.1559  0.7126
   47DOPE   C21 5956   2.836   5.635  13.405 -0.1976  0.4900  0.0463
   47DOPE   O22 5957   2.949   5.586  13.392 -0.3059  0.6567 -0.1986
   47DOPE   C22 5958   2.706   5.554  13.415 -0.1678 -0.4080 -0.3631
   47DOPE   H2R 5959   2.636   5.582  13.332  0.6754  1.5822 -0.4524
   47DOPE   H2S 5960   2.667   5.579  13.516 -0.7771 -2.9268  0.1068
   47DOPE    C3 5961   2.928   5.986  13.492 -0.1169 -0.2822 -0.4194
   47DOPE    HX 5962   2.835   6.044  13.470  1.0110  2.1767  0.8577
   47DOPE    HY 5963   3.014   6.052  13.469 -0.2723  0.8356  1.9228
   47DOPE   O31 5964   2.935   5.965  13.638  0.0606  0.3675  0.7008
   47DOPE   C31 5965   2.817   5.944  13.697  0.1317 -0.2019  0.0049
   47DOPE   O32 5966   2.710   5.961  13.640  1.0110  0.2481 -0.5115
   47DOPE   C32 5967   2.838   5.893  13.838  0.0788 -0.2904  0.4123
   47DOPE   H2X 5968   2.826   5.782  13.837 -1.0722 -0.1756  0.1668
   47DOPE   H2Y 5969   2.945   5.913  13.862  0.6836 -0.6299 -1.8173
   47DOPE   C23 5970   2.737   5.401  13.408  0.5839 -0.1197 -0.6539
   47DOPE   H3R 5971   2.807   5.371  13.327  1.2993 -2.2449  0.6873
   47DOPE   H3S 5972   2.643   5.340  13.404  1.6447 -1.9379  0.6330
   47DOPE   C24 5973   2.798   5.348  13.537 -0.1691 -0.2997  0.0922
   47DOPE   H4R 5974   2.895   5.398  13.558 -0.2082  0.8589 -2.1530
   47DOPE   H4S 5975   2.828   5.243  13.520 -2.5819 -1.6646  3.1530
   47DOPE   C25 5976   2.711   5.349  13.661  0.4698  0.0969 -0.0505
   47DOPE   H5R 5977   2.606   5.327  13.630  1.2854 -1.1037 -2.1287
   47DOPE   H5S 5978   2.709   5.451  13.706 -2.3183 -0.1246  0.5252
   47DOPE   C26 5979   2.761   5.252  13.767  0.1712 -0.3438  0.0402
   47DOPE   H6R 5980   2.863   5.280  13.799 -0.5867  1.6081  0.8966
   47DOPE   H6S 5981   2.768   5.151  13.721  5.0168  0.8623 -2.5493
   47DOPE   C27 5982   2.692   5.258  13.905  0.2286  0.4861  0.1328
   47DOPE   H7R 5983   2.586   5.236  13.882  0.8814 -0.2304 -2.5395
   47DOPE   H7S 5984   2.686   5.366  13.932  2.0162  1.2894 -2.3163
   47DOPE   C28 5985   2.742   5.161  14.011  0.5364  0.1615  0.1183
   47DOPE   H8R 5986   2.770   5.062  13.971 -0.7928  0.1448 -0.8360
   47DOPE   H8S 5987   2.655   5.130  14.073  0.3745 -1.2499 -0.7683
   47DOPE   C29 5988   2.860   5.204  14.093 -0.3152  0.1111 -0.4645
   47DOPE   H9R 5989   2.949   5.229  14.033  0.4584 -1.2304  0.0589
   47DOPE  C210 5990   2.867   5.243  14.222  0.1649  0.7293  0.2543
   47DOPE  H10R 5991   2.959   5.282  14.267  1.9776 -0.1552 -2.4400
   47DOPE  C211 5992   2.745   5.258  14.302  0.1022  0.1139  0.6914
   47DOPE  H11R 5993   2.670   5.321  14.251  1.3640  1.0988 -0.0143
   47DOPE  H11S 5994   2.758   5.320  14.393 -2.7974 -0.0225  1.3046
   47DOPE  C212 5995   2.664   5.134  14.350 -0.5923  0.0860  0.7025
   47DOPE  H12R 5996   2.735   5.081  14.417 -0.5494  0.9614  1.3597
   47DOPE  H12S 5997   2.627   5.068  14.268  0.6772  1.0852 -0.7499
   47DOPE  C213 5998   2.544   5.154  14.447  0.1973  0.2994  0.3627
   47DOPE  H13R 5999   2.479   5.064  14.447  2.1043 -1.1367  0.0966
   47DOPE  H13S 6000   2.480   5.234  14.403  2.3149  0.9496 -1.7504
   47DOPE  C214 6001   2.584   5.194  14.591 -0.5766 -0.3222 -0.4187
   47DOPE  H14R 6002   2.495   5.213  14.655  0.5892 -1.7397  1.7382
   47DOPE  H14S 6003   2.633   5.293  14.582 -3.3153  1.3220  1.3143
   47DOPE  C215 6004   2.691   5.117  14.676 -0.1309 -0.3076  0.0520
   47DOPE  H15R 6005   2.788   5.105  14.623  1.0609  0.5033  1.9247
   47DOPE  H15S 6006   2.653   5.014  14.696  0.7240 -0.6265  0.0546
   47DOPE  C216 6007   2.723   5.176  14.810  0.5344  0.4797 -0.4319
   47DOPE  H16R 6008   2.752   5.283  14.804 -0.8640  0.8767 -0.3595
   47DOPE  H16S 6009   2.809   5.120  14.852 -1.5955 -0.4382  3.1274
   47DOPE  C217 6010   2.613   5.153  14.918 -0.2011  0.0658 -0.0843
   47DOPE  H17R 6011   2.614   5.043  14.934  0.1028  0.2914  1.6213
   47DOPE  H17S 6012   2.515   5.184  14.877 -0.6152 -1.8960 -0.6693
   47DOPE  C218 6013   2.644   5.230  15.045 -0.1010  0.0430 -0.0337
   47DOPE  H18R 6014   2.557   5.240  15.114  0.7155 -1.5128  1.2883
   47DOPE  H18S 6015   2.669   5.336  15.023  0.4337  0.0153  0.4272
   47DOPE  H18T 6016   2.722   5.174  15.100 -0.9608 -0.7556  0.4071
   47DOPE   C33 6017   2.739   5.954  13.943 -0.2390 -0.0743  0.1492
   47DOPE   H3X 6018   2.758   5.902  14.039 -1.1629 -0.2942  0.2239
   47DOPE   H3Y 6019   2.632   5.935  13.918 -0.3763 -2.2033  1.9684
   47DOPE   C34 6020   2.759   6.104  13.962 -0.7407  0.1637  0.3515
   47DOPE   H4X 6021   2.869   6.118  13.967 -0.5978 -1.3026  2.2986
   47DOPE   H4Y 6022   2.706   6.164  13.884 -0.5038 -1.7669 -1.3945
   47DOPE   C35 6023   2.699   6.140  14.100  0.9637  0.5145 -0.1606
   47DOPE   H5X 6024   2.748   6.080  14.180 -0.3294 -0.9674 -0.4339
   47DOPE   H5Y 6025   2.592   6.113  14.089  0.9282  0.5078  0.2059
   47DOPE   C36 6026   2.694   6.288  14.140  0.2523 -0.6859  0.4147
   47DOPE   H6X 6027   2.638   6.287  14.236 -1.5633 -2.4836 -0.5780
   47DOPE   H6Y 6028   2.636   6.355  14.072  1.9585  1.3567  0.8462
   47DOPE   C37 6029   2.830   6.354  14.154 -0.1258  0.2071  0.3104
   47DOPE   H7X 6030   2.904   6.280  14.193  0.2582  0.1336 -0.5475
   47DOPE   H7Y 6031   2.858   6.392  14.054 -1.3270 -1.7180 -0.8011
   47DOPE   C38 6032   2.831   6.481  14.246  0.7042  0.5050  0.0040
   47DOPE   H8X 6033   2.753   6.544  14.198  0.6971  1.4080  1.1749
   47DOPE   H8Y 6034   2.928   6.529  14.224  1.5082 -1.5208 -1.2278
   47DOPE   C39 6035   2.805   6.466  14.392 -0.2261 -0.7313  0.4077
   47DOPE   H9X 6036   2.700   6.436  14.404 -0.6364  1.4170  3.0729
   47DOPE  C310 6037   2.878   6.507  14.495 -0.4033  0.8402  0.0632
   47DOPE  H10X 6038   2.846   6.500  14.600  1.0305  1.2883  0.5528
   47DOPE  C311 6039   3.017   6.575  14.478  0.2822 -0.1746  0.6264
   47DOPE  H11X 6040   3.052   6.575  14.372 -0.0515 -0.3713  0.5124
   47DOPE  H11Y 6041   3.012   6.679  14.516  2.8851  1.0333 -1.9424
   47DOPE  C312 6042   3.128   6.504  14.550  0.4144 -0.1078 -0.0995
   47DOPE  H12X 6043   3.223   6.524  14.496 -0.5132  2.3144 -0.9537
   47DOPE  H12Y 6044   3.116   6.393  14.545 -1.2293 -0.1959  3.1450
   47DOPE  C313 6045   3.136   6.542  14.702 -0.2850  0.2179 -0.1888
   47DOPE  H13X 6046   3.130   6.651  14.722  0.0090  0.1313  0.3724
   47DOPE  H13Y 6047   3.054   6.490  14.756  1.2114 -1.4658  0.5664
   47DOPE  C314 6048   3.269   6.499  14.775  0.7090  0.3697 -0.4686
   47DOPE  H14X 6049   3.244   6.514  14.883 -0.7182 -1.7749 -0.4460
   47DOPE  H14Y 6050   3.355   6.566  14.753  0.8707  0.8705  1.4908
   47DOPE  C315 6051   3.304   6.350  14.760 -0.9457  0.2757 -0.2685
   47DOPE  H15X 6052   3.279   6.312  14.659  1.0262 -1.1621 -0.2580
   47DOPE  H15Y 6053   3.248   6.286  14.832  0.8836 -1.6525 -0.4534
   47DOPE  C316 6054   3.453   6.322  14.793 -0.3488 -0.4005  0.1338
   47DOPE  H16X 6055   3.449   6.301  14.902 -1.0275 -0.1121  0.1629
   47DOPE  H16Y 6056   3.516   6.408  14.761  2.2619 -1.9425  0.7894
   47DOPE  C317 6057   3.514   6.199  14.716 -0.1043  0.2096  0.1384
   47DOPE  H17X 6058   3.473   6.109  14.767 -1.2659  0.7803  0.2603
   47DOPE  H17Y 6059   3.476   6.208  14.612 -1.8288  0.4700  0.7546
   47DOPE  C318 6060   3.671   6.195  14.707 -0.9761  0.3835  0.2682
   47DOPE  H18X 6061   3.705   6.107  14.647 -0.8708 -0.1643  1.1082
   47DOPE  H18Y 6062   3.695   6.285  14.648  0.5648 -0.6132 -0.7145
   47DOPE  H18Z 6063   3.709   6.193  14.811 -0.7242 -0.5990  0.1703
   48DOPE     N 6064   0.366   1.379  12.887 -0.1773 -0.4492  0.5913
   48DOPE   HN1 6065   0.389   1.347  12.791 -1.8102 -0.9943  0.3553
   48DOPE   HN2 6066   0.288   1.317  12.916  0.1194 -0.9014  0.4368
   48DOPE   HN3 6067   0.326   1.474  12.880  1.1179  0.1929  1.4633
   48DOPE   C12 6068   0.488   1.383  12.975 -0.1224 -0.1385 -0.3259
   48DOPE  H12A 6069   0.570   1.443  12.930  1.2663 -0.8352  1.1733
   48DOPE  H12B 6070   0.520   1.279  12.994 -0.7644 -0.3847 -0.6025
   48DOPE   C11 6071   0.459   1.437  13.118  0.1810 -0.3597  0.1442
   48DOPE  H11A 6072   0.556   1.453  13.169 -0.1811  1.3108  0.3733
   48DOPE  H11B 6073   0.406   1.357  13.175 -0.7497 -0.3246 -0.6373
   48DOPE     P 6074   0.452   1.698  13.170  0.1781  0.0595 -0.3197
   48DOPE   O13 6075   0.336   1.796  13.169 -0.5217  0.3379 -0.2998
   48DOPE   O14 6076   0.571   1.732  13.094  0.0870  0.1318 -0.0122
   48DOPE   O11 6077   0.496   1.676  13.319 -0.2418 -0.0192  0.3761
   48DOPE   O12 6078   0.392   1.559  13.124 -0.2335  0.3362 -0.2442
   48DOPE    C1 6079   0.411   1.604  13.408 -0.6250 -0.8064  0.0428
   48DOPE    HA 6080   0.469   1.564  13.494 -0.3014  0.0031  0.2055
   48DOPE    HB 6081   0.350   1.518  13.372 -0.3902 -1.1934  0.5473
   48DOPE    C2 6082   0.305   1.702  13.472 -0.3043 -0.1135  0.3177
   48DOPE    HS 6083   0.239   1.728  13.387  1.3297 -1.2922 -1.3816
   48DOPE   O21 6084   0.370   1.817  13.527  0.1288 -0.2425  0.4660
   48DOPE   C21 6085   0.296   1.929  13.526  0.1722  0.5083 -0.1254
   48DOPE   O22 6086   0.180   1.928  13.487 -0.0811  0.1576 -0.4520
   48DOPE   C22 6087   0.376   2.049  13.570 -0.3395  0.0212 -0.3290
   48DOPE   H2R 6088   0.425   2.094  13.481 -0.5450 -0.0288 -0.4678
   48DOPE   H2S 6089   0.464   2.010  13.625 -0.9330 -0.7643  0.0678
   48DOPE    C3 6090   0.220   1.627  13.577 -0.5077 -0.0232  0.0396
   48DOPE    HX 6091   0.189   1.531  13.531  0.5524 -0.4272  0.1459
   48DOPE    HY 6092   0.122   1.681  13.581 -1.5719 -1.7775 -0.9746
   48DOPE   O31 6093   0.280   1.601  13.707 -0.4957  0.3965  0.5973
   48DOPE   C31 6094   0.247   1.678  13.808  0.4780 -0.4275 -0.0525
   48DOPE   O32 6095   0.158   1.764  13.807 -0.3007  0.1554 -0.8016
   48DOPE   C32 6096   0.356   1.660  13.916 -0.3900 -0.3278  0.9106
   48DOPE   H2X 6097   0.423   1.576  13.887 -0.8840 -0.6918  0.7950
   48DOPE   H2Y 6098   0.414   1.754  13.918 -0.0828 -0.3382 -2.2928
   48DOPE   C23 6099   0.301   2.153  13.655 -0.5267 -0.0343  0.2411
   48DOPE   H3R 6100   0.214   2.191  13.598 -1.1351 -0.6612  0.7300
   48DOPE   H3S 6101   0.371   2.237  13.674 -0.5667  0.3842 -1.3398
   48DOPE   C24 6102   0.259   2.088  13.788  1.0693  0.4883  0.5003
   48DOPE   H4R 6103   0.349   2.040  13.832 -0.4814 -0.3167  2.9626
   48DOPE   H4S 6104   0.179   2.017  13.761  0.6157  1.2544 -0.2269
   48DOPE   C25 6105   0.219   2.179  13.907 -0.3390  0.9916  0.7538
   48DOPE   H5R 6106   0.132   2.241  13.879 -0.9666  0.2024  0.9299
   48DOPE   H5S 6107   0.317   2.229  13.924  1.1888 -0.1352 -3.4849
   48DOPE   C26 6108   0.198   2.103  14.034  0.4108 -0.4765  0.2478
   48DOPE   H6R 6109   0.172   1.999  14.004  1.8275 -0.0323 -2.9149
   48DOPE   H6S 6110   0.100   2.132  14.078 -0.8767  0.9731 -3.2622
   48DOPE   C27 6111   0.311   2.098  14.134 -0.1372 -0.1149 -0.1198
   48DOPE   H7R 6112   0.355   2.194  14.168  0.8423 -0.8537  0.7750
   48DOPE   H7S 6113   0.401   2.054  14.085 -0.5084 -1.8892  0.7229
   48DOPE   C28 6114   0.274   2.009  14.256 -0.7639  0.6554 -0.4415
   48DOPE   H8R 6115   0.249   1.909  14.214  3.3228 -0.3018 -1.0223
   48DOPE   H8S 6116   0.185   2.064  14.293  0.5256  3.8025 -1.6134
   48DOPE   C29 6117   0.383   1.989  14.359  0.2446 -0.4165 -0.0197
   48DOPE   H9R 6118   0.471   1.930  14.331  0.8438  0.3477  0.2450
   48DOPE  C210 6119   0.379   2.049  14.480 -0.2107  0.1092  0.7894
   48DOPE  H10R 6120   0.464   2.043  14.550  0.3973 -0.4234  0.0285
   48DOPE  C211 6121   0.269   2.135  14.536 -0.0308  0.1847 -0.5026
   48DOPE  H11R 6122   0.274   2.134  14.647 -1.4580  0.9370 -0.4103
   48DOPE  H11S 6123   0.167   2.103  14.506 -0.1652  0.9607 -0.9035
   48DOPE  C212 6124   0.289   2.277  14.472  0.4113  0.6776  0.0951
   48DOPE  H12R 6125   0.268   2.258  14.364 -3.3590 -0.3346  0.8546
   48DOPE  H12S 6126   0.393   2.314  14.486 -1.2333  5.2692  2.3102
   48DOPE  C213 6127   0.178   2.376  14.519 -0.2554 -0.3620 -0.2798
   48DOPE  H13R 6128   0.080   2.328  14.496  0.1046 -0.5261 -1.5702
   48DOPE  H13S 6129   0.182   2.471  14.462 -1.2459  0.1248  0.4228
   48DOPE  C214 6130   0.182   2.413  14.669 -0.3128 -0.3604 -0.1781
   48DOPE  H14R 6131   0.265   2.484  14.686 -1.6848  0.5059  4.1127
   48DOPE  H14S 6132   0.196   2.328  14.740  0.9069 -0.1020 -0.0931
   48DOPE  C215 6133   0.078   2.511  14.710 -0.0894 -0.3349 -0.4351
   48DOPE  H15R 6134  -0.015   2.462  14.675 -0.2183 -0.3103 -0.1315
   48DOPE  H15S 6135   0.082   2.607  14.655  0.6925  0.0237  0.2219
   48DOPE  C216 6136   0.080   2.548  14.863 -0.4354 -0.8077  0.3441
   48DOPE  H16R 6137   0.009   2.633  14.874  2.8248  2.1968  0.2767
   48DOPE  H16S 6138   0.182   2.584  14.892 -0.3622 -1.6649  1.1988
   48DOPE  C217 6139   0.035   2.441  14.959 -0.1178  0.2978 -0.1356
   48DOPE  H17R 6140   0.040   2.488  15.060 -0.6687  0.9776 -0.4174
   48DOPE  H17S 6141   0.115   2.363  14.961 -1.6283 -1.3336 -0.5353
   48DOPE  C218 6142  -0.107   2.387  14.930 -0.5705  0.1946  0.1541
   48DOPE  H18R 6143  -0.189   2.461  14.942 -0.7235  0.2746 -1.2393
   48DOPE  H18S 6144  -0.141   2.302  14.994  1.0736 -0.0876  0.7037
   48DOPE  H18T 6145  -0.101   2.357  14.823 -0.0948  0.2873  0.1535
   48DOPE   C33 6146   0.295   1.634  14.055  0.7299  0.1181 -0.0382
   48DOPE   H3X 6147   0.238   1.539  14.066 -1.4215  1.6437  5.3975
   48DOPE   H3Y 6148   0.227   1.718  14.079  0.8466  0.9094 -2.2447
   48DOPE   C34 6149   0.398   1.613  14.166 -0.3015 -0.7017 -0.7432
   48DOPE   H4X 6150   0.421   1.718  14.191 -2.4909 -0.9416  2.9883
   48DOPE   H4Y 6151   0.348   1.576  14.258  3.5694 -2.8286  0.7269
   48DOPE   C35 6152   0.521   1.527  14.131 -1.0333 -0.4291 -0.5535
   48DOPE   H5X 6153   0.563   1.568  14.037 -4.8124 -0.0804 -2.2935
   48DOPE   H5Y 6154   0.488   1.425  14.101  1.6721 -1.2404 -1.0336
   48DOPE   C36 6155   0.617   1.531  14.257 -0.5227 -0.1880  0.0205
   48DOPE   H6X 6156   0.585   1.447  14.323 -0.4514 -0.2919 -0.0774
   48DOPE   H6Y 6157   0.603   1.631  14.303 -0.1887 -0.4399  0.6845
   48DOPE   C37 6158   0.764   1.519  14.212  0.1673  0.1332  1.4200
   48DOPE   H7X 6159   0.797   1.601  14.146 -0.7873 -0.6242 -0.0506
   48DOPE   H7Y 6160   0.829   1.533  14.301 -0.1220 -1.4439  1.9331
   48DOPE   C38 6161   0.805   1.377  14.156  0.6677 -0.5636 -0.7051
   48DOPE   H8X 6162   0.909   1.369  14.117  0.4911  0.0267 -1.3066
   48DOPE   H8Y 6163   0.739   1.350  14.070 -1.0547 -0.7744  0.6172
   48DOPE   C39 6164   0.796   1.269  14.261  0.7117 -0.1941  0.4077
   48DOPE   H9X 6165   0.708   1.203  14.256  0.0143  0.7370  0.0538
   48DOPE  C310 6166   0.886   1.246  14.352 -0.6708  0.6565 -0.2343
   48DOPE  H10X 6167   0.867   1.170  14.429 -0.0526  0.1486 -0.5747
   48DOPE  C311 6168   1.017   1.316  14.378 -0.1796  0.3138 -0.0786
   48DOPE  H11X 6169   1.068   1.317  14.280 -4.1688 -0.1968 -2.3727
   48DOPE  H11Y 6170   0.993   1.415  14.421  0.0831 -0.1908  1.2882
   48DOPE  C312 6171   1.118   1.242  14.463  0.1881  0.6427  0.8785
   48DOPE  H12X 6172   1.091   1.253  14.570  2.2562  0.7470  1.4240
   48DOPE  H12Y 6173   1.217   1.292  14.450  1.5218 -1.7364  1.3826
   48DOPE  C313 6174   1.138   1.089  14.431 -0.6338 -0.0699 -0.2327
   48DOPE  H13X 6175   1.086   1.026  14.507 -1.4115 -0.9900 -1.4882
   48DOPE  H13Y 6176   1.084   1.058  14.339 -0.9271 -0.9602  0.2332
   48DOPE  C314 6177   1.289   1.050  14.426 -0.2220 -0.3084  0.0946
   48DOPE  H14X 6178   1.333   1.061  14.527 -0.6490 -1.4249  0.4237
   48DOPE  H14Y 6179   1.338   1.118  14.353  0.3441 -0.6826  0.1200
   48DOPE  C315 6180   1.315   0.909  14.372 -0.7751 -0.0163 -0.4742
   48DOPE  H15X 6181   1.294   0.833  14.450 -1.4070  1.3548  0.7483
   48DOPE  H15Y 6182   1.425   0.905  14.364 -0.3857  3.4246  1.2020
   48DOPE  C316 6183   1.260   0.871  14.243 -0.3414  0.3617  0.6350
   48DOPE  H16X 6184   1.260   0.956  14.171 -0.5116 -0.5682 -0.4749
   48DOPE  H16Y 6185   1.152   0.856  14.260 -0.5482  1.6153  0.5722
   48DOPE  C317 6186   1.328   0.744  14.177 -0.7913  0.0849 -0.3391
   48DOPE  H17X 6187   1.421   0.781  14.131 -1.7726  1.4466 -1.3209
   48DOPE  H17Y 6188   1.356   0.662  14.247  0.9796  1.3061  0.4290
   48DOPE  C318 6189   1.251   0.690  14.061  0.5231  0.5815 -0.1513
   48DOPE  H18X 6190   1.252   0.763  13.978 -2.6927  1.2520  0.2626
   48DOPE  H18Y 6191   1.288   0.589  14.035  0.4830  0.9243 -1.6224
   48DOPE  H18Z 6192   1.141   0.678  14.075  0.6590  0.7746  1.2529
   49DOPE     N 6193   2.525   6.214  13.219  0.2800  0.1873 -0.7824
   49DOPE   HN1 6194   2.547   6.160  13.305 -0.5298  1.3874  0.1944
   49DOPE   HN2 6195   2.446   6.171  13.165  1.6618 -1.3309 -1.6898
   49DOPE   HN3 6196   2.608   6.224  13.158  0.8540  0.0380 -0.0327
   49DOPE   C12 6197   2.484   6.359  13.239 -0.9120  0.6642  0.1066
   49DOPE  H12A 6198   2.466   6.379  13.346  2.1936  0.0868  0.8248
   49DOPE  H12B 6199   2.391   6.376  13.180 -0.7878 -2.1494 -1.0655
   49DOPE   C11 6200   2.597   6.455  13.187  0.2180 -0.5140  0.2804
   49DOPE  H11A 6201   2.563   6.560  13.184  2.9948  0.4730 -2.7555
   49DOPE  H11B 6202   2.609   6.426  13.081 -2.7886 -0.7404 -0.0639
   49DOPE     P 6203   2.827   6.550  13.252  0.0625 -0.0740 -0.1357
   49DOPE   O13 6204   2.771   6.665  13.322  0.2413 -0.0184 -0.3380
   49DOPE   O14 6205   2.859   6.576  13.109 -0.1481  0.1306  0.9459
   49DOPE   O11 6206   2.956   6.498  13.328  0.7027  0.4811 -0.2626
   49DOPE   O12 6207   2.718   6.432  13.260  0.2868  0.2760 -0.3686
   49DOPE    C1 6208   2.978   6.488  13.466  0.2788 -0.1069 -0.7735
   49DOPE    HA 6209   2.964   6.585  13.518  0.8337 -0.4691  0.0590
   49DOPE    HB 6210   3.083   6.455  13.483  0.3925  0.2977 -0.6964
   49DOPE    C2 6211   2.887   6.389  13.548 -0.0862  1.0632  0.4015
   49DOPE    HS 6212   2.852   6.321  13.468 -0.7699  1.4536  0.3605
   49DOPE   O21 6213   2.773   6.467  13.589  0.1613  0.4195  0.0105
   49DOPE   C21 6214   2.684   6.393  13.654 -0.2683  0.5109 -0.2118
   49DOPE   O22 6215   2.671   6.274  13.658 -0.1870  0.1353 -0.7765
   49DOPE   C22 6216   2.598   6.496  13.742 -0.2323  0.4462  0.4193
   49DOPE   H2R 6217   2.563   6.570  13.668 -1.1944 -0.5629 -0.1578
   49DOPE   H2S 6218   2.670   6.541  13.814 -0.4518 -1.2553  1.7670
   49DOPE    C3 6219   2.962   6.318  13.669 -0.1689 -0.9337  0.6161
   49DOPE    HX 6220   3.051   6.262  13.632  1.0785  0.9309  0.6579
   49DOPE    HY 6221   2.889   6.247  13.713 -0.6424 -0.0641  1.2524
   49DOPE   O31 6222   2.999   6.426  13.756 -0.4004  0.0003  0.6082
   49DOPE   C31 6223   3.129   6.464  13.766 -0.4513 -0.6264 -0.6954
   49DOPE   O32 6224   3.219   6.406  13.706  0.5338 -0.6785 -0.1921
   49DOPE   C32 6225   3.138   6.590  13.840  0.3281  1.0668 -0.0091
   49DOPE   H2X 6226   3.089   6.673  13.785  2.0160  0.2561 -2.9539
   49DOPE   H2Y 6227   3.082   6.570  13.934  0.7027 -2.3347 -0.3853
   49DOPE   C23 6228   2.475   6.432  13.818 -0.5012 -0.2991  0.3308
   49DOPE   H3R 6229   2.520   6.354  13.882 -1.3136 -0.2585  0.9622
   49DOPE   H3S 6230   2.401   6.380  13.754 -0.0328 -0.3013 -0.2189
   49DOPE   C24 6231   2.425   6.530  13.936  0.4423 -0.2885  0.7354
   49DOPE   H4R 6232   2.357   6.598  13.881  0.7982 -1.4241 -1.2040
   49DOPE   H4S 6233   2.501   6.597  13.981  0.5780  0.5816 -0.7031
   49DOPE   C25 6234   2.358   6.445  14.041  0.2046  0.1814 -0.4185
   49DOPE   H5R 6235   2.417   6.356  14.074 -0.8755 -0.3567  0.1001
   49DOPE   H5S 6236   2.263   6.410  13.996  0.4980  1.4080 -2.0725
   49DOPE   C26 6237   2.318   6.516  14.174  0.8812  0.8359  0.0343
   49DOPE   H6R 6238   2.268   6.435  14.230  0.7086 -2.0681 -3.8845
   49DOPE   H6S 6239   2.250   6.601  14.150 -0.6595 -0.2825  0.3211
   49DOPE   C27 6240   2.441   6.549  14.258 -0.5376  0.2516 -0.2118
   49DOPE   H7R 6241   2.518   6.589  14.189  0.3666  0.5428  0.9338
   49DOPE   H7S 6242   2.478   6.451  14.294  0.4273  0.0083 -1.7662
   49DOPE   C28 6243   2.413   6.643  14.377  0.7935  0.1355 -0.2454
   49DOPE   H8R 6244   2.393   6.746  14.340 -1.1767  0.2035  0.8472
   49DOPE   H8S 6245   2.509   6.650  14.433  1.0040 -1.4025 -0.3790
   49DOPE   C29 6246   2.306   6.603  14.472  0.1089 -0.2504  0.5306
   49DOPE   H9R 6247   2.206   6.645  14.457 -0.1577 -0.8339  0.6377
   49DOPE  C210 6248   2.331   6.516  14.575 -0.4504  0.3256 -0.5589
   49DOPE  H10R 6249   2.254   6.479  14.644  1.1684  0.9886  1.7079
   49DOPE  C211 6250   2.457   6.445  14.602 -0.1572 -0.3783 -0.5105
   49DOPE  H11R 6251   2.517   6.504  14.675  1.1832 -0.8199 -1.2303
   49DOPE  H11S 6252   2.519   6.423  14.512 -1.1838 -0.1342 -1.3007
   49DOPE  C212 6253   2.417   6.307  14.669  0.2637  0.1153  0.8370
   49DOPE  H12R 6254   2.369   6.254  14.584 -0.2093  2.6802 -0.5922
   49DOPE  H12S 6255   2.344   6.325  14.751 -0.6025  0.2877  0.0477
   49DOPE  C213 6256   2.537   6.227  14.718  0.0112 -0.3953  0.0197
   49DOPE  H13R 6257   2.502   6.141  14.779 -0.1842 -0.8675 -0.7358
   49DOPE  H13S 6258   2.598   6.292  14.784 -0.6334  0.4670 -0.2160
   49DOPE  C214 6259   2.623   6.166  14.601  1.0804 -0.9831  0.2711
   49DOPE  H14R 6260   2.667   6.251  14.544  2.6329 -1.5684  0.5527
   49DOPE  H14S 6261   2.553   6.114  14.533  1.5955 -2.1379  0.5974
   49DOPE  C215 6262   2.736   6.077  14.652  0.2481 -0.4173 -0.1803
   49DOPE  H15R 6263   2.746   5.985  14.590 -0.2567 -0.6315  0.0474
   49DOPE  H15S 6264   2.713   6.056  14.759 -1.4037  2.0088  0.0152
   49DOPE  C216 6265   2.869   6.157  14.638  0.4159 -0.4044 -0.1762
   49DOPE  H16R 6266   2.880   6.251  14.696  3.7039 -2.0449  2.1763
   49DOPE  H16S 6267   2.886   6.179  14.530 -0.5800 -0.2333 -0.3104
   49DOPE  C217 6268   3.001   6.076  14.664  0.4321  0.4740  0.4534
   49DOPE  H17R 6269   3.089   6.139  14.638  1.1946 -0.6877  0.1467
   49DOPE  H17S 6270   2.993   5.987  14.598 -2.3371 -0.2400  1.6142
   49DOPE  C218 6271   3.001   6.016  14.805 -0.0341 -0.1547 -1.1825
   49DOPE  H18R 6272   2.940   6.078  14.875  1.3372 -2.4348  2.2768
   49DOPE  H18S 6273   3.104   6.005  14.843 -0.4406 -1.0835 -0.3001
   49DOPE  H18T 6274   2.954   5.916  14.800 -0.0828 -0.2218  0.0970
   49DOPE   C33 6275   3.284   6.634  13.869  0.1936  0.5673 -0.0292
   49DOPE   H3X 6276   3.299   6.731  13.819 -4.0154  0.6073 -1.6336
   49DOPE   H3Y 6277   3.361   6.563  13.832  0.5795  0.6396  0.6161
   49DOPE   C34 6278   3.316   6.639  14.021 -0.5990 -0.4361  0.1436
   49DOPE   H4X 6279   3.278   6.547  14.070 -0.5808 -0.7637 -0.4479
   49DOPE   H4Y 6280   3.427   6.646  14.034 -0.3962  1.3209 -1.9243
   49DOPE   C35 6281   3.257   6.754  14.109 -0.1088  1.0194  0.0435
   49DOPE   H5X 6282   3.147   6.745  14.098 -0.1704  0.2365  1.0353
   49DOPE   H5Y 6283   3.283   6.855  14.072 -0.5962  0.9704 -0.4441
   49DOPE   C36 6284   3.298   6.737  14.255  0.1685  0.8175 -0.1065
   49DOPE   H6X 6285   3.293   6.629  14.283  2.0484  0.5928 -0.5372
   49DOPE   H6Y 6286   3.209   6.774  14.311  0.8842 -1.9913  3.2426
   49DOPE   C37 6287   3.431   6.804  14.293  0.4806 -0.2324  0.5794
   49DOPE   H7X 6288   3.510   6.771  14.222 -0.0161  0.1389 -0.1651
   49DOPE   H7Y 6289   3.402   6.903  14.252 -0.1135 -1.3560 -1.9523
   49DOPE   C38 6290   3.466   6.810  14.445 -0.3078  0.0803  0.7762
   49DOPE   H8X 6291   3.385   6.852  14.508 -0.4618 -1.4868  1.6797
   49DOPE   H8Y 6292   3.557   6.874  14.446 -0.0755 -0.2467  0.4658
   49DOPE   C39 6293   3.504   6.681  14.508  0.6524 -0.2077  0.2131
   49DOPE   H9X 6294   3.451   6.596  14.463  2.1902 -0.7475 -0.6385
   49DOPE  C310 6295   3.606   6.654  14.591 -0.4999 -0.5040  0.3859
   49DOPE  H10X 6296   3.623   6.550  14.624  1.2521 -0.8066 -1.2809
   49DOPE  C311 6297   3.715   6.740  14.654 -0.9170  0.0080  0.1700
   49DOPE  H11X 6298   3.812   6.690  14.636 -0.8654  0.1502  0.0511
   49DOPE  H11Y 6299   3.719   6.841  14.609 -1.0341 -0.7913 -1.7374
   49DOPE  C312 6300   3.706   6.768  14.807 -0.0763 -0.0265 -0.4625
   49DOPE  H12X 6301   3.803   6.804  14.847 -0.2141 -0.0096 -0.1455
   49DOPE  H12Y 6302   3.698   6.674  14.866 -3.3660  1.1876  1.2480
   49DOPE  C313 6303   3.592   6.859  14.859 -0.2525  0.4296 -0.2762
   49DOPE  H13X 6304   3.498   6.814  14.820 -0.7148 -0.0420  1.3412
   49DOPE  H13Y 6305   3.589   6.848  14.969  0.2209 -2.1520 -0.4647
   49DOPE  C314 6306   3.600   7.008  14.820  0.1975  0.3674  0.1173
   49DOPE  H14X 6307   3.528   7.066  14.881 -0.0004  2.0357 -1.6058
   49DOPE  H14Y 6308   3.561   7.011  14.716  1.4831 -2.5564 -0.5620
   49DOPE  C315 6309   3.741   7.078  14.827  0.2874  0.5827  0.0535
   49DOPE  H15X 6310   3.807   7.011  14.769 -0.2426  2.4438 -2.9188
   49DOPE  H15Y 6311   3.783   7.074  14.930  0.0554 -2.0944  0.1178
   49DOPE  C316 6312   3.739   7.221  14.763 -0.3543 -0.0061 -0.0655
   49DOPE  H16X 6313   3.718   7.227  14.654  1.1637  0.2746 -0.3634
   49DOPE  H16Y 6314   3.839   7.265  14.779 -0.1411 -0.8203  0.9563
   49DOPE  C317 6315   3.628   7.314  14.824 -0.1754  1.0126 -0.1821
   49DOPE  H17X 6316   3.529   7.288  14.780 -1.1222  0.0129  2.3858
   49DOPE  H17Y 6317   3.620   7.286  14.931 -0.0031 -2.3406 -0.9192
   49DOPE  C318 6318   3.659   7.461  14.808  0.4434  0.1613 -0.4042
   49DOPE  H18X 6319   3.724   7.501  14.888 -0.4166  0.2749  0.2445
   49DOPE  H18Y 6320   3.698   7.490  14.708  0.8911 -0.4416 -0.4104
   49DOPE  H18Z 6321   3.564   7.518  14.814 -0.3616 -0.7719 -3.0381
   50DOPE     N 6322   2.986   3.974  13.112  0.6216 -0.1321 -0.2219
   50DOPE   HN1 6323   3.022   3.946  13.205 -0.6152 -2.1210 -0.2870
   50DOPE   HN2 6324   3.004   4.069  13.073  0.1221 -1.2007 -3.3506
   50DOPE   HN3 6325   2.885   3.950  13.106  0.8681 -1.2293 -0.2225
   50DOPE   C12 6326   3.055   3.894  13.007  0.2053 -0.3671 -0.6865
   50DOPE  H12A 6327   3.165   3.897  13.013  0.2603 -3.0920  1.8929
   50DOPE  H12B 6328   3.022   3.941  12.911  0.4806  1.8200  0.2184
   50DOPE   C11 6329   3.033   3.742  13.019 -0.2214 -0.5581  0.0459
   50DOPE  H11A 6330   3.104   3.708  13.097  0.1509 -1.8358 -0.8097
   50DOPE  H11B 6331   3.067   3.702  12.921  0.8965  0.7482 -0.1230
   50DOPE     P 6332   2.859   3.561  13.051  0.1219  0.3582  0.2929
   50DOPE   O13 6333   2.937   3.482  12.961 -0.7500  0.0354 -0.2476
   50DOPE   O14 6334   2.714   3.556  13.043  0.4375 -0.1064  0.3833
   50DOPE   O11 6335   2.907   3.520  13.197  0.6046  0.1149  0.0004
   50DOPE   O12 6336   2.896   3.715  13.046 -0.1552  0.7532 -0.1725
   50DOPE    C1 6337   2.863   3.600  13.313  0.2184 -0.4288 -0.3496
   50DOPE    HA 6338   2.826   3.701  13.284  2.6633  1.1028  1.4471
   50DOPE    HB 6339   2.944   3.625  13.384 -1.1017  0.1758  0.9906
   50DOPE    C2 6340   2.753   3.530  13.411 -0.2201 -0.1176  0.3091
   50DOPE    HS 6341   2.738   3.590  13.503  0.2670 -0.9514  0.9422
   50DOPE   O21 6342   2.791   3.395  13.439  0.1908 -0.4407 -0.5458
   50DOPE   C21 6343   2.866   3.380  13.549  0.8591  0.1609  0.1410
   50DOPE   O22 6344   2.888   3.469  13.624 -0.6823  0.1827  0.5565
   50DOPE   C22 6345   2.874   3.232  13.585 -0.2725  0.1300  0.1808
   50DOPE   H2R 6346   2.975   3.191  13.602 -1.4864 -3.3547 -0.0992
   50DOPE   H2S 6347   2.844   3.164  13.502 -0.0975 -1.9665  1.7505
   50DOPE    C3 6348   2.609   3.519  13.353  0.5548  0.3802 -0.5516
   50DOPE    HX 6349   2.614   3.477  13.251  0.8624 -1.0479  0.0287
   50DOPE    HY 6350   2.588   3.628  13.353  4.2579  1.2369  0.2320
   50DOPE   O31 6351   2.513   3.437  13.434  0.0843  0.3637 -0.4632
   50DOPE   C31 6352   2.386   3.471  13.398  0.0277  0.5395 -0.3342
   50DOPE   O32 6353   2.356   3.549  13.312 -0.5513 -0.1673  0.3845
   50DOPE   C32 6354   2.292   3.396  13.495 -0.1382 -0.8611 -0.0187
   50DOPE   H2X 6355   2.289   3.288  13.469  0.9759 -0.7889 -0.5443
   50DOPE   H2Y 6356   2.335   3.416  13.595 -0.8300 -1.4694  0.4015
   50DOPE   C23 6357   2.792   3.193  13.709 -0.2650 -0.2472  0.1098
   50DOPE   H3R 6358   2.791   3.083  13.719 -0.6242 -0.0506  2.9655
   50DOPE   H3S 6359   2.686   3.226  13.706 -0.5395 -1.1058  0.2291
   50DOPE   C24 6360   2.856   3.239  13.838  0.2206 -0.0581 -0.0582
   50DOPE   H4R 6361   2.844   3.349  13.838 -0.2321 -0.0284  2.5712
   50DOPE   H4S 6362   2.963   3.209  13.831  0.0987 -0.0859 -2.6691
   50DOPE   C25 6363   2.802   3.185  13.979 -0.8287 -0.1613 -0.3803
   50DOPE   H5R 6364   2.855   3.249  14.053  0.8255 -0.1171 -1.5220
   50DOPE   H5S 6365   2.844   3.085  14.005  1.2724  0.8734  0.4996
   50DOPE   C26 6366   2.649   3.196  14.000  0.5854 -0.0230 -0.2078
   50DOPE   H6R 6367   2.631   3.165  14.105  0.9681 -0.1183 -0.1713
   50DOPE   H6S 6368   2.587   3.128  13.937 -1.7337  1.0392  0.7789
   50DOPE   C27 6369   2.601   3.335  13.986  0.9828  0.3089  0.4625
   50DOPE   H7R 6370   2.583   3.358  13.879 -2.6969 -0.5706  0.7825
   50DOPE   H7S 6371   2.680   3.405  14.020  0.3151  0.3898  1.9209
   50DOPE   C28 6372   2.472   3.362  14.067 -0.5133  0.0108 -0.6998
   50DOPE   H8R 6373   2.493   3.325  14.170 -1.0006 -0.4583 -0.7665
   50DOPE   H8S 6374   2.395   3.294  14.026 -2.4744  2.1400 -0.7503
   50DOPE   C29 6375   2.435   3.511  14.078 -0.1079  0.1194  0.6460
   50DOPE   H9R 6376   2.348   3.532  14.014  1.3152  1.6783 -0.8818
   50DOPE  C210 6377   2.485   3.609  14.153  0.2097  0.6209 -0.5790
   50DOPE  H10R 6378   2.431   3.704  14.147 -2.9053 -0.9050  0.7841
   50DOPE  C211 6379   2.596   3.586  14.254 -0.2257  0.3140 -0.1761
   50DOPE  H11R 6380   2.668   3.667  14.229 -0.8164  1.0246  0.3639
   50DOPE  H11S 6381   2.641   3.486  14.240 -0.3949  0.2479 -0.2517
   50DOPE  C212 6382   2.564   3.604  14.399  0.3659  0.2380 -0.4849
   50DOPE  H12R 6383   2.659   3.603  14.458 -0.1385  2.8957  0.5354
   50DOPE  H12S 6384   2.494   3.522  14.426 -0.8171  0.6335 -2.1918
   50DOPE  C213 6385   2.502   3.743  14.437 -0.4297  0.4196  0.0402
   50DOPE  H13R 6386   2.392   3.730  14.441 -0.5164  0.7855 -0.9252
   50DOPE  H13S 6387   2.525   3.813  14.354 -2.0924  1.8817  0.7492
   50DOPE  C214 6388   2.558   3.801  14.566 -0.4923  0.9962  0.0456
   50DOPE  H14R 6389   2.504   3.898  14.569 -2.8481 -0.1022 -2.5735
   50DOPE  H14S 6390   2.666   3.828  14.557  0.7376 -1.8465  3.8878
   50DOPE  C215 6391   2.512   3.707  14.683  0.0701  0.6668 -0.3538
   50DOPE  H15R 6392   2.545   3.605  14.657 -0.9511  0.0721  0.5955
   50DOPE  H15S 6393   2.401   3.707  14.695  0.1874 -3.0677  2.3040
   50DOPE  C216 6394   2.556   3.746  14.827  0.0959 -0.1723  0.5973
   50DOPE  H16R 6395   2.515   3.847  14.849  1.2849  0.6293 -0.7508
   50DOPE  H16S 6396   2.666   3.755  14.835  0.2122  1.5440 -1.8581
   50DOPE  C217 6397   2.516   3.656  14.940 -0.4643  0.1606  0.1860
   50DOPE  H17R 6398   2.529   3.711  15.035 -2.1506 -1.3836  1.3712
   50DOPE  H17S 6399   2.585   3.569  14.942 -0.2511  0.2304 -1.9955
   50DOPE  C218 6400   2.370   3.611  14.921 -0.7130 -0.3384 -0.2634
   50DOPE  H18R 6401   2.351   3.559  14.824 -1.0077 -1.1031  0.1941
   50DOPE  H18S 6402   2.300   3.695  14.938  2.2571  2.4122 -0.6291
   50DOPE  H18T 6403   2.361   3.537  15.004  3.0707 -0.2297  0.4527
   50DOPE   C33 6404   2.148   3.454  13.489 -0.3812  0.0325 -0.2603
   50DOPE   H3X 6405   2.075   3.378  13.523  0.2236  0.1067  1.2850
   50DOPE   H3Y 6406   2.125   3.488  13.385  0.1859  1.0259 -0.0769
   50DOPE   C34 6407   2.113   3.562  13.587  0.4366 -0.2298 -0.2334
   50DOPE   H4X 6408   2.011   3.591  13.555  0.8665 -1.1432 -2.5868
   50DOPE   H4Y 6409   2.100   3.523  13.691  0.7696  2.9704  1.1125
   50DOPE   C35 6410   2.217   3.677  13.596  0.3106 -0.9189 -0.2898
   50DOPE   H5X 6411   2.227   3.714  13.491 -2.7924 -0.2429 -0.4420
   50DOPE   H5Y 6412   2.312   3.642  13.641  0.2680  0.8781  1.3292
   50DOPE   C36 6413   2.166   3.797  13.671 -0.0495  0.3093 -0.4087
   50DOPE   H6X 6414   2.060   3.820  13.644 -0.4589 -1.7040 -0.6586
   50DOPE   H6Y 6415   2.233   3.883  13.653  1.4998 -0.3880  1.6645
   50DOPE   C37 6416   2.172   3.777  13.826  0.0918  0.5296  0.2250
   50DOPE   H7X 6417   2.120   3.685  13.860  0.5764  0.5827  1.1430
   50DOPE   H7Y 6418   2.278   3.758  13.852  0.6710  2.7203 -0.3014
   50DOPE   C38 6419   2.105   3.884  13.921  0.4932  0.4762  0.2449
   50DOPE   H8X 6420   2.101   3.849  14.026 -1.8527  1.1001  0.4123
   50DOPE   H8Y 6421   2.000   3.904  13.894  0.4837  1.5264  1.0205
   50DOPE   C39 6422   2.175   4.014  13.911  0.0818 -0.2475 -0.3770
   50DOPE   H9X 6423   2.164   4.063  13.813 -2.2371 -0.2436 -0.1644
   50DOPE  C310 6424   2.271   4.068  13.988 -0.1743 -0.5662 -0.4103
   50DOPE  H10X 6425   2.310   4.169  13.968 -3.7197  0.8219 -1.0283
   50DOPE  C311 6426   2.337   4.007  14.108  0.1102 -0.3785 -0.0354
   50DOPE  H11X 6427   2.268   4.007  14.195  0.3269  0.7916  0.1508
   50DOPE  H11Y 6428   2.355   3.900  14.086 -1.2232 -0.6943  0.3634
   50DOPE  C312 6429   2.463   4.079  14.154 -0.0892  0.3543 -0.7360
   50DOPE  H12X 6430   2.485   4.043  14.257  1.5862  1.2167 -0.7669
   50DOPE  H12Y 6431   2.466   4.190  14.154  2.3136  0.3428 -1.6400
   50DOPE  C313 6432   2.587   4.025  14.082  0.0015  0.2747 -0.2880
   50DOPE  H13X 6433   2.589   3.917  14.109  0.6711  0.2417 -0.4583
   50DOPE  H13Y 6434   2.580   4.031  13.971 -0.4486 -0.4690 -0.3068
   50DOPE  C314 6435   2.720   4.095  14.134 -0.1157  0.5105 -0.0997
   50DOPE  H14X 6436   2.730   4.102  14.244 -0.1337 -0.2124 -0.0466
   50DOPE  H14Y 6437   2.727   4.199  14.096  1.6386  0.3530 -0.2805
   50DOPE  C315 6438   2.847   4.026  14.074 -0.2923  0.0842  0.0244
   50DOPE  H15X 6439   2.867   4.061  13.971  0.4100  1.2523  0.5407
   50DOPE  H15Y 6440   2.818   3.919  14.061  0.6557 -0.0653 -1.0780
   50DOPE  C316 6441   2.977   4.038  14.152 -0.1006 -0.0744 -0.0959
   50DOPE  H16X 6442   2.962   4.018  14.260 -0.0243  0.5829  0.0391
   50DOPE  H16Y 6443   3.024   4.138  14.146 -1.2821  0.4037 -3.5973
   50DOPE  C317 6444   3.082   3.935  14.113 -0.1421  0.0437 -0.3538
   50DOPE  H17X 6445   3.069   3.838  14.166  3.8139 -0.9718 -0.8988
   50DOPE  H17Y 6446   3.058   3.913  14.007 -1.8500 -1.3928  0.2658
   50DOPE  C318 6447   3.226   3.988  14.115 -0.0860  0.0124  0.7509
   50DOPE  H18X 6448   3.270   4.002  14.216  0.3163  0.3953  0.5232
   50DOPE  H18Y 6449   3.287   3.915  14.058 -0.1018  1.3453 -1.0615
   50DOPE  H18Z 6450   3.241   4.079  14.053  0.3254 -0.0361  0.7766
   51DOPE     N 6451   3.190   7.130  13.176  0.2666 -0.3512 -0.7189
   51DOPE   HN1 6452   3.113   7.198  13.189  1.2601  0.3074  2.6871
   51DOPE   HN2 6453   3.263   7.152  13.247 -0.0182  0.5867 -0.7012
   51DOPE   HN3 6454   3.231   7.126  13.081 -0.6699 -1.7051 -1.0943
   51DOPE   C12 6455   3.149   6.988  13.211  0.0725  0.3573  1.3613
   51DOPE  H12A 6456   3.106   6.948  13.118  2.2774  0.5037  0.1974
   51DOPE  H12B 6457   3.070   6.989  13.289 -1.5868 -4.1288  0.0458
   51DOPE   C11 6458   3.277   6.912  13.258 -0.8925  0.2560  0.0848
   51DOPE  H11A 6459   3.244   6.809  13.284 -0.0415  0.3208  1.5066
   51DOPE  H11B 6460   3.312   6.966  13.349 -1.2853 -0.5231  0.7049
   51DOPE     P 6461   3.520   6.984  13.163  0.1700 -0.0463  0.3680
   51DOPE   O13 6462   3.489   7.129  13.160  0.2054 -0.1448 -0.4987
   51DOPE   O14 6463   3.605   6.924  13.062 -0.1478  0.6148  0.0390
   51DOPE   O11 6464   3.588   6.947  13.300 -0.0916  0.3280 -0.4575
   51DOPE   O12 6465   3.385   6.905  13.160  0.4539  0.2586 -0.0467
   51DOPE    C1 6466   3.582   6.816  13.355  0.1591 -0.3268  0.4590
   51DOPE    HA 6467   3.688   6.782  13.364  0.1003 -0.3277  1.2177
   51DOPE    HB 6468   3.534   6.742  13.287  1.3008 -0.7459  0.0683
   51DOPE    C2 6469   3.516   6.817  13.494  0.0821  0.4265  0.7223
   51DOPE    HS 6470   3.411   6.849  13.480 -0.7941 -1.8039  1.7012
   51DOPE   O21 6471   3.581   6.915  13.576 -0.5848  0.3429  0.0366
   51DOPE   C21 6472   3.514   6.954  13.681  0.0869 -0.3179  0.7633
   51DOPE   O22 6473   3.394   6.947  13.698 -0.1392  0.2109  0.4319
   51DOPE   C22 6474   3.610   7.018  13.784  0.2182  0.9522  0.3155
   51DOPE   H2R 6475   3.618   7.126  13.758 -0.3724  0.7638 -0.7139
   51DOPE   H2S 6476   3.711   6.976  13.766 -0.3370  0.1841 -1.1704
   51DOPE    C3 6477   3.519   6.671  13.549  0.6162  0.8678 -0.1330
   51DOPE    HX 6478   3.457   6.617  13.474  1.1429  1.6191 -1.1369
   51DOPE    HY 6479   3.471   6.678  13.649  1.6524  1.2883  0.3428
   51DOPE   O31 6480   3.648   6.615  13.549 -0.2099 -0.7646 -0.1730
   51DOPE   C31 6481   3.712   6.598  13.670 -0.4419  0.4024  0.1716
   51DOPE   O32 6482   3.662   6.602  13.783 -0.4676  0.2461  0.3321
   51DOPE   C32 6483   3.861   6.581  13.651  0.4847 -0.2046 -0.3034
   51DOPE   H2X 6484   3.909   6.594  13.750  0.8536  1.9257 -0.7215
   51DOPE   H2Y 6485   3.885   6.482  13.607  1.5632 -0.2865  0.4252
   51DOPE   C23 6486   3.567   6.984  13.927  0.5363  0.0161 -0.2301
   51DOPE   H3R 6487   3.556   6.875  13.945 -0.4751  0.2045  0.3861
   51DOPE   H3S 6488   3.465   7.026  13.935  1.2627  1.5355  1.8590
   51DOPE   C24 6489   3.652   7.048  14.037 -0.1968  0.4590 -0.0730
   51DOPE   H4R 6490   3.592   7.037  14.130 -0.2498 -1.4442 -0.2819
   51DOPE   H4S 6491   3.659   7.157  14.019 -0.3299  0.3595 -0.7357
   51DOPE   C25 6492   3.793   6.981  14.062 -0.5487 -0.4414 -0.0469
   51DOPE   H5R 6493   3.855   7.012  13.976 -0.7788  0.7555  0.1985
   51DOPE   H5S 6494   3.773   6.872  14.063  0.6983 -0.6792  0.6715
   51DOPE   C26 6495   3.862   7.024  14.191  0.6963 -0.5311  0.1535
   51DOPE   H6R 6496   3.872   7.135  14.185  0.2908 -0.2359  3.1356
   51DOPE   H6S 6497   3.967   6.991  14.181  0.3020 -1.3398 -1.6451
   51DOPE   C27 6498   3.787   6.978  14.315  0.2386  0.0520  0.1512
   51DOPE   H7R 6499   3.777   6.868  14.308  1.0862 -0.1084  1.1127
   51DOPE   H7S 6500   3.685   7.021  14.321 -0.4233 -1.3531 -0.5670
   51DOPE   C28 6501   3.868   7.022  14.441  0.9066  0.1925  0.2049
   51DOPE   H8R 6502   3.813   7.011  14.538  0.7747  1.9304  0.3657
   51DOPE   H8S 6503   3.877   7.132  14.425  0.9291  0.2120  0.3438
   51DOPE   C29 6504   3.994   6.952  14.458 -0.0793  0.6561  0.3382
   51DOPE   H9R 6505   4.012   6.865  14.394 -0.3022  1.4857 -0.8839
   51DOPE  C210 6506   4.090   6.972  14.548 -0.1623  0.8553  0.3084
   51DOPE  H10R 6507   4.188   6.930  14.521  0.2178  2.7560 -1.5390
   51DOPE  C211 6508   4.079   7.082  14.650 -0.3399 -0.1411  0.4310
   51DOPE  H11R 6509   3.981   7.133  14.658  0.1841  1.1014 -0.8238
   51DOPE  H11S 6510   4.152   7.159  14.619 -0.6897  0.3706  0.8675
   51DOPE  C212 6511   4.116   7.012  14.787 -0.1259  0.1049 -0.6999
   51DOPE  H12R 6512   4.212   6.955  14.787 -0.6479 -0.9799  2.3119
   51DOPE  H12S 6513   4.036   6.939  14.811  1.6392 -0.8024  3.4665
   51DOPE  C213 6514   4.117   7.127  14.896 -0.1690  0.1732 -0.2764
   51DOPE  H13R 6515   4.179   7.088  14.980  0.1344 -1.2111 -1.1003
   51DOPE  H13S 6516   4.016   7.138  14.940  0.1474  0.6859  0.3301
   51DOPE  C214 6517   4.168   7.273  14.851 -0.3654 -0.9260 -0.7472
   51DOPE  H14R 6518   4.101   7.302  14.768 -2.8332 -0.0992  1.3999
   51DOPE  H14S 6519   4.272   7.255  14.817 -0.2163 -3.6614  0.8232
   51DOPE  C215 6520   4.154   7.373  14.970 -0.1484  0.6300 -0.1214
   51DOPE  H15R 6521   4.228   7.343  15.047 -1.0858  1.9829  1.3692
   51DOPE  H15S 6522   4.053   7.377  15.017 -0.0533  0.3994  0.1009
   51DOPE  C216 6523   4.198   7.517  14.924  0.3779 -1.0661  0.0616
   51DOPE  H16R 6524   4.300   7.511  14.880  0.1991 -0.6603 -0.4176
   51DOPE  H16S 6525   4.205   7.589  15.008 -0.3886  0.7792 -1.3864
   51DOPE  C217 6526   4.098   7.575  14.822 -0.1094 -0.1789 -0.7573
   51DOPE  H17R 6527   3.998   7.533  14.844 -1.1189  1.1316 -2.5980
   51DOPE  H17S 6528   4.122   7.524  14.726 -1.1141 -0.1451 -1.0346
   51DOPE  C218 6529   4.106   7.726  14.817  0.5085  0.0010 -0.1887
   51DOPE  H18R 6530   4.067   7.756  14.917 -0.1514 -1.5905  0.0679
   51DOPE  H18S 6531   4.043   7.755  14.730  1.3092 -0.5003 -0.9461
   51DOPE  H18T 6532   4.205   7.773  14.802 -1.3021  4.0532 -0.8080
   51DOPE   C33 6533   3.938   6.683  13.563 -0.1027  1.4161  0.3675
   51DOPE   H3X 6534   3.886   6.696  13.466  0.5663  0.3096 -0.1494
   51DOPE   H3Y 6535   4.043   6.649  13.550  0.3651  2.8660  0.1455
   51DOPE   C34 6536   3.932   6.825  13.617 -0.5425  0.6854 -0.6502
   51DOPE   H4X 6537   4.003   6.886  13.558  0.0351 -0.0547 -0.7316
   51DOPE   H4Y 6538   3.835   6.877  13.598 -0.1254  1.9574  0.6013
   51DOPE   C35 6539   3.982   6.839  13.765  0.1033 -0.1023  0.0740
   51DOPE   H5X 6540   3.898   6.805  13.830 -1.4876  0.2965 -1.6970
   51DOPE   H5Y 6541   3.972   6.949  13.774 -0.1868  0.1251 -2.4595
   51DOPE   C36 6542   4.124   6.794  13.802 -0.2808  0.1497  0.1115
   51DOPE   H6X 6543   4.209   6.845  13.753  1.1635 -1.5558  0.7359
   51DOPE   H6Y 6544   4.134   6.686  13.778 -0.3307  0.2643 -0.4393
   51DOPE   C37 6545   4.145   6.813  13.957 -0.4875  0.2341  0.5515
   51DOPE   H7X 6546   4.164   6.921  13.976 -0.4138  0.0938  1.2930
   51DOPE   H7Y 6547   4.054   6.789  14.015 -0.7105 -1.1275 -0.3142
   51DOPE   C38 6548   4.257   6.732  14.018  0.1627 -0.0194 -0.2019
   51DOPE   H8X 6549   4.340   6.762  13.950 -0.9402 -1.2852 -2.2143
   51DOPE   H8Y 6550   4.238   6.623  14.010  1.3478 -0.5651  2.9447
   51DOPE   C39 6551   4.293   6.776  14.155  0.0547  0.5772 -0.0131
   51DOPE   H9X 6552   4.257   6.709  14.235  1.3212  0.2631  0.3320
   51DOPE  C310 6553   4.361   6.886  14.191  0.7291 -0.9330 -0.7259
   51DOPE  H10X 6554   4.379   6.906  14.298  2.8086  1.0005 -1.3600
   51DOPE  C311 6555   4.406   6.992  14.096  0.0875 -0.5451 -0.5993
   51DOPE  H11X 6556   4.513   7.020  14.106 -0.3478  0.7171  1.0802
   51DOPE  H11Y 6557   4.397   6.958  13.991 -0.6488  0.8251 -1.0151
   51DOPE  C312 6558   4.330   7.127  14.111 -0.3305 -0.1058 -0.4387
   51DOPE  H12X 6559   4.380   7.176  14.198 -1.5747  1.6697 -0.6602
   51DOPE  H12Y 6560   4.229   7.089  14.139 -0.7846 -1.0550 -3.1119
   51DOPE  C313 6561   4.342   7.231  14.003  0.0220  0.9778 -0.2720
   51DOPE  H13X 6562   4.278   7.318  14.030 -1.3842  0.9645 -3.2680
   51DOPE  H13Y 6563   4.446   7.270  13.990 -0.0256  0.6707 -1.6931
   51DOPE  C314 6564   4.272   7.191  13.870 -0.3909  0.1006  0.0346
   51DOPE  H14X 6565   4.179   7.138  13.899 -0.7116 -0.4695 -1.8859
   51DOPE  H14Y 6566   4.342   7.119  13.822  1.2935  1.1869  0.7770
   51DOPE  C315 6567   4.233   7.304  13.775  0.7175 -0.2807  0.3034
   51DOPE  H15X 6568   4.189   7.265  13.681  2.6141 -0.2899 -0.6353
   51DOPE  H15Y 6569   4.328   7.357  13.751 -0.2418  1.1633 -0.4259
   51DOPE  C316 6570   4.137   7.402  13.836  0.3900  0.5106  0.0050
   51DOPE  H16X 6571   4.109   7.469  13.752  0.8207  0.2155 -0.3806
   51DOPE  H16Y 6572   4.185   7.460  13.918 -0.9157  0.5849  0.7384
   51DOPE  C317 6573   4.014   7.336  13.888  0.5483  0.5278  0.1531
   51DOPE  H17X 6574   4.039   7.267  13.971 -0.1717  1.9915  1.6526
   51DOPE  H17Y 6575   3.947   7.404  13.944  2.2669  1.1007  1.6177
   51DOPE  C318 6576   3.924   7.273  13.775 -0.2590 -0.3363  0.6402
   51DOPE  H18X 6577   3.980   7.210  13.704 -0.3009  0.1255  0.1949
   51DOPE  H18Y 6578   3.824   7.237  13.808 -4.3967  4.8541 -4.2052
   51DOPE  H18Z 6579   3.894   7.358  13.710 -0.1526 -1.3016 -0.7022
   52DOPE     N 6580   2.287   4.179  12.846  0.3021 -0.1827  0.4797
   52DOPE   HN1 6581   2.328   4.099  12.794 -1.4130 -0.6085 -0.2923
   52DOPE   HN2 6582   2.190   4.169  12.808  1.5430 -0.8558 -2.7893
   52DOPE   HN3 6583   2.332   4.262  12.803 -0.7402  1.3375  2.1736
   52DOPE   C12 6584   2.299   4.166  12.991 -0.0760 -0.1202  0.8683
   52DOPE  H12A 6585   2.336   4.063  13.010 -0.6947 -0.5231 -0.0663
   52DOPE  H12B 6586   2.196   4.185  13.026 -0.7415  0.4187 -1.2386
   52DOPE   C11 6587   2.400   4.271  13.043 -0.1312  0.1661  0.3402
   52DOPE  H11A 6588   2.501   4.240  13.010  0.4772  1.0725  1.2942
   52DOPE  H11B 6589   2.391   4.273  13.154  1.6981 -0.3065  0.5233
   52DOPE     P 6590   2.289   4.507  13.048  0.4399  0.2084  0.2138
   52DOPE   O13 6591   2.224   4.600  12.946 -0.4195 -0.0329  0.0541
   52DOPE   O14 6592   2.360   4.566  13.161  0.0387  0.3445  0.1377
   52DOPE   O11 6593   2.183   4.414  13.110 -0.5558 -0.6312 -0.0252
   52DOPE   O12 6594   2.378   4.396  12.972 -0.4630  0.3286  0.3177
   52DOPE    C1 6595   2.041   4.441  13.116  0.4009  1.1521 -0.4112
   52DOPE    HA 6596   1.989   4.355  13.069  1.2818  0.5789 -0.3789
   52DOPE    HB 6597   2.010   4.532  13.061  0.4652 -0.1980 -2.8305
   52DOPE    C2 6598   1.992   4.445  13.263  0.1965  0.4231 -0.2385
   52DOPE    HS 6599   1.894   4.496  13.273 -0.7305 -0.7173 -2.5687
   52DOPE   O21 6600   2.088   4.510  13.347 -0.4880 -0.7888  0.4752
   52DOPE   C21 6601   2.095   4.645  13.330  0.9043 -0.1272 -0.2146
   52DOPE   O22 6602   2.027   4.712  13.253  0.3487  0.4261  0.4434
   52DOPE   C22 6603   2.202   4.704  13.426  0.4050  0.1905 -0.0680
   52DOPE   H2R 6604   2.261   4.772  13.362  0.1702 -0.2355 -0.7534
   52DOPE   H2S 6605   2.262   4.617  13.461  0.6529  0.0204 -0.8930
   52DOPE    C3 6606   1.969   4.301  13.315  0.5037 -0.3508 -0.9992
   52DOPE    HX 6607   2.051   4.226  13.308 -0.6252 -1.9758  1.5856
   52DOPE    HY 6608   1.900   4.263  13.238  1.0215  0.2394 -1.7755
   52DOPE   O31 6609   1.912   4.299  13.446 -0.0119  0.0978  0.0929
   52DOPE   C31 6610   1.997   4.258  13.544  0.5480  0.3923  0.6662
   52DOPE   O32 6611   2.120   4.230  13.525  0.0068  0.9549 -0.3266
   52DOPE   C32 6612   1.923   4.259  13.678  0.4336 -0.0299 -0.7856
   52DOPE   H2X 6613   2.002   4.238  13.753  0.7004  0.9927 -0.7691
   52DOPE   H2Y 6614   1.877   4.358  13.695 -0.1451 -0.3912 -0.1797
   52DOPE   C23 6615   2.141   4.798  13.535  0.3859  0.0633  0.0201
   52DOPE   H3R 6616   2.079   4.876  13.487  1.5412  2.4706  2.1776
   52DOPE   H3S 6617   2.219   4.863  13.580 -1.7991  1.3886  2.1954
   52DOPE   C24 6618   2.072   4.728  13.653  0.0815  0.7198 -0.5585
   52DOPE   H4R 6619   2.043   4.794  13.738  2.0795  0.7746  0.1251
   52DOPE   H4S 6620   2.148   4.657  13.692  1.3750  3.3102  2.0271
   52DOPE   C25 6621   1.952   4.639  13.620 -0.3742  0.1544 -0.1829
   52DOPE   H5R 6622   1.922   4.585  13.712  0.8288 -0.3333 -0.0617
   52DOPE   H5S 6623   1.972   4.565  13.539 -0.4291  0.1242 -0.1686
   52DOPE   C26 6624   1.824   4.715  13.575  0.2191 -0.4189  0.1472
   52DOPE   H6R 6625   1.848   4.755  13.474  0.5681 -0.0886  0.3564
   52DOPE   H6S 6626   1.819   4.807  13.637  2.3473  0.2503 -0.5688
   52DOPE   C27 6627   1.699   4.625  13.561 -0.0198 -0.1202  0.2521
   52DOPE   H7R 6628   1.733   4.522  13.534  0.9501  0.0007  0.9603
   52DOPE   H7S 6629   1.632   4.666  13.483 -0.6385 -1.3804  0.0828
   52DOPE   C28 6630   1.621   4.605  13.694 -0.0142 -0.6615 -0.0716
   52DOPE   H8R 6631   1.701   4.586  13.769 -0.0570  2.0586  0.7719
   52DOPE   H8S 6632   1.562   4.511  13.688  0.1256 -0.8082  0.7568
   52DOPE   C29 6633   1.536   4.721  13.741  0.0720 -0.5417 -0.4935
   52DOPE   H9R 6634   1.447   4.742  13.681  1.7605  1.4954 -2.4694
   52DOPE  C210 6635   1.553   4.801  13.845  0.3698  0.1908 -0.7464
   52DOPE  H10R 6636   1.470   4.868  13.875 -1.9806 -1.8485 -2.2927
   52DOPE  C211 6637   1.669   4.791  13.945  0.5604 -0.1387  0.1066
   52DOPE  H11R 6638   1.692   4.897  13.970 -1.0125  0.7789 -2.0145
   52DOPE  H11S 6639   1.761   4.760  13.891  1.7846  3.5887 -0.2366
   52DOPE  C212 6640   1.613   4.739  14.078 -0.6740 -0.2436 -0.1315
   52DOPE  H12R 6641   1.562   4.641  14.085 -2.1732  0.5064 -0.2410
   52DOPE  H12S 6642   1.534   4.811  14.109  0.5941  1.2248 -0.1774
   52DOPE  C213 6643   1.722   4.745  14.184 -0.1729  0.5568  0.6795
   52DOPE  H13R 6644   1.665   4.746  14.279  0.2180 -1.2488  0.9769
   52DOPE  H13S 6645   1.782   4.838  14.176  1.5704 -0.6111 -0.6302
   52DOPE  C214 6646   1.812   4.623  14.173  0.7231  0.0681  0.1996
   52DOPE  H14R 6647   1.867   4.642  14.078 -0.5103  0.9510 -0.3828
   52DOPE  H14S 6648   1.747   4.533  14.164  1.0186 -0.4958  2.9975
   52DOPE  C215 6649   1.898   4.593  14.292 -0.4925 -0.3533 -0.4431
   52DOPE  H15R 6650   1.825   4.584  14.375 -1.0212  0.2226 -0.8381
   52DOPE  H15S 6651   1.966   4.681  14.301 -2.2612  1.2354 -1.7864
   52DOPE  C216 6652   1.970   4.451  14.273  0.0802 -0.3019  1.0340
   52DOPE  H16R 6653   2.013   4.445  14.170  1.0398 -1.7509  1.4838
   52DOPE  H16S 6654   1.893   4.370  14.266  0.9533 -1.2723  2.3671
   52DOPE  C217 6655   2.073   4.426  14.382  0.4912 -0.0667 -0.0429
   52DOPE  H17R 6656   2.031   4.417  14.485  2.0509 -0.1646  0.6203
   52DOPE  H17S 6657   2.147   4.508  14.374  0.3722  0.1098  0.6220
   52DOPE  C218 6658   2.155   4.289  14.360  0.2764  0.4533  1.0814
   52DOPE  H18R 6659   2.186   4.277  14.254 -2.1021  0.5018  0.3352
   52DOPE  H18S 6660   2.234   4.277  14.437  1.9832  2.9526 -0.1337
   52DOPE  H18T 6661   2.084   4.206  14.377  0.5398 -0.0000  0.0023
   52DOPE   C33 6662   1.818   4.150  13.672 -0.0882  0.1921 -0.6835
   52DOPE   H3X 6663   1.870   4.054  13.653  1.1332  0.3979  1.2757
   52DOPE   H3Y 6664   1.738   4.164  13.596 -0.4015  1.2464 -0.1784
   52DOPE   C34 6665   1.740   4.131  13.802  0.4392 -0.1754  0.1515
   52DOPE   H4X 6666   1.665   4.054  13.775  0.1185  0.0438  0.4037
   52DOPE   H4Y 6667   1.811   4.074  13.864  1.0737  1.0434  0.5718
   52DOPE   C35 6668   1.700   4.260  13.874  0.4791 -0.5313 -0.2472
   52DOPE   H5X 6669   1.646   4.331  13.808  2.0909 -0.2085 -1.2627
   52DOPE   H5Y 6670   1.786   4.328  13.895  0.7000 -1.1341  0.8885
   52DOPE   C36 6671   1.635   4.250  14.012 -0.0122 -0.1334 -0.5056
   52DOPE   H6X 6672   1.537   4.199  13.999 -0.0949 -0.4356  1.0869
   52DOPE   H6Y 6673   1.600   4.347  14.053 -1.1931 -1.1072  0.8957
   52DOPE   C37 6674   1.714   4.176  14.114  0.0989  0.2138 -0.4379
   52DOPE   H7X 6675   1.711   4.068  14.087 -1.0087  0.7426 -2.6912
   52DOPE   H7Y 6676   1.822   4.195  14.095  0.4099  0.1894  1.1796
   52DOPE   C38 6677   1.669   4.216  14.246 -0.3684 -0.7572  0.1841
   52DOPE   H8X 6678   1.560   4.196  14.255 -0.6130 -0.2649 -1.2900
   52DOPE   H8Y 6679   1.679   4.325  14.267  1.6286 -0.3637 -2.3323
   52DOPE   C39 6680   1.729   4.135  14.359  0.3307  0.1670 -0.4976
   52DOPE   H9X 6681   1.810   4.063  14.341 -1.8756 -3.5590  2.7520
   52DOPE  C310 6682   1.692   4.150  14.483 -0.0760 -0.0940  0.0094
   52DOPE  H10X 6683   1.735   4.093  14.566 -0.9146  0.9274  1.1916
   52DOPE  C311 6684   1.583   4.247  14.530  0.3139 -0.2325 -0.3497
   52DOPE  H11X 6685   1.638   4.336  14.567 -0.2422 -0.2102  0.4329
   52DOPE  H11Y 6686   1.509   4.288  14.457 -2.0328 -1.6420  1.1179
   52DOPE  C312 6687   1.501   4.186  14.643  0.1617 -0.6876 -0.2516
   52DOPE  H12X 6688   1.553   4.190  14.742 -1.5815  0.1309  0.6728
   52DOPE  H12Y 6689   1.492   4.075  14.633 -1.4882 -0.6162  0.1890
   52DOPE  C313 6690   1.360   4.236  14.649 -0.2715 -0.4120  0.4741
   52DOPE  H13X 6691   1.366   4.347  14.652 -0.1879 -0.4033  0.0912
   52DOPE  H13Y 6692   1.291   4.205  14.567  1.9647  0.2457 -1.7953
   52DOPE  C314 6693   1.295   4.190  14.787 -0.2777  0.6408  0.3715
   52DOPE  H14X 6694   1.353   4.233  14.871 -0.7348 -0.1349  1.0960
   52DOPE  H14Y 6695   1.304   4.080  14.795  0.3525  0.6957  0.4421
   52DOPE  C315 6696   1.152   4.234  14.784  0.1064  0.4038 -0.5467
   52DOPE  H15X 6697   1.100   4.237  14.686 -1.1151  0.2167  0.0749
   52DOPE  H15Y 6698   1.156   4.342  14.809 -0.0676  0.4659 -0.7801
   52DOPE  C316 6699   1.065   4.165  14.891 -0.4540 -0.2195  0.1592
   52DOPE  H16X 6700   1.134   4.162  14.978  0.4914  2.2212 -0.4270
   52DOPE  H16Y 6701   1.027   4.070  14.848 -2.8323  0.9164 -0.4360
   52DOPE  C317 6702   0.939   4.244  14.918 -0.1781 -0.4981  0.3748
   52DOPE  H17X 6703   0.952   4.354  14.915 -1.3623 -0.3617 -2.1319
   52DOPE  H17Y 6704   0.861   4.227  14.841  0.0681 -1.4212  0.3262
   52DOPE  C318 6705   0.886   4.210  15.053  0.2922 -0.0005  0.2150
   52DOPE  H18X 6706   0.876   4.100  15.064 -0.7592  0.1148  0.4897
   52DOPE  H18Y 6707   0.956   4.241  15.134  0.4449  1.5696 -0.4755
   52DOPE  H18Z 6708   0.789   4.263  15.064  0.5696  0.1820  2.0882
   53DOPE     N 6709   6.995   5.981  12.842 -0.3434  0.4398 -0.6041
   53DOPE   HN1 6710   7.043   6.060  12.889  0.9717  0.6540 -2.2103
   53DOPE   HN2 6711   7.063   5.942  12.773 -0.9201 -4.1360  1.0384
   53DOPE   HN3 6712   6.909   6.021  12.800 -1.4566 -1.0418  0.1567
   53DOPE   C12 6713   6.958   5.876  12.938 -0.6618 -0.4592 -0.2483
   53DOPE  H12A 6714   7.031   5.891  13.021 -0.8146  1.6988 -0.4706
   53DOPE  H12B 6715   6.971   5.775  12.893  0.2450 -1.7158  2.5548
   53DOPE   C11 6716   6.813   5.886  12.997 -0.1154 -0.7955 -0.1473
   53DOPE  H11A 6717   6.800   5.805  13.073  2.1311  0.4266  1.6400
   53DOPE  H11B 6718   6.735   5.879  12.918 -1.0442  1.1224  0.5346
   53DOPE     P 6719   6.692   6.063  13.158 -0.0868 -0.0442 -0.4704
   53DOPE   O13 6720   6.589   5.959  13.169 -0.2743 -0.4786 -0.4046
   53DOPE   O14 6721   6.660   6.197  13.113  0.2141  0.3502  0.1126
   53DOPE   O11 6722   6.755   6.075  13.298 -0.1420 -0.3460  0.6816
   53DOPE   O12 6723   6.812   6.010  13.065  0.4047  0.1215 -0.1495
   53DOPE    C1 6724   6.832   5.980  13.370 -0.4613 -0.1369  0.1546
   53DOPE    HA 6725   6.856   5.884  13.319  1.1152 -0.5832  1.6121
   53DOPE    HB 6726   6.774   5.955  13.461  1.2430  0.2088  1.3999
   53DOPE    C2 6727   6.968   6.041  13.406 -0.3089 -0.1334 -0.1141
   53DOPE    HS 6728   7.034   5.957  13.438  0.9244 -0.0289 -2.2083
   53DOPE   O21 6729   6.950   6.142  13.509  0.0830 -0.2677  0.0294
   53DOPE   C21 6730   6.952   6.109  13.634 -0.5822  0.8382 -0.1872
   53DOPE   O22 6731   6.975   5.997  13.679  0.7886  0.0612 -0.1548
   53DOPE   C22 6732   6.900   6.228  13.724 -0.0527  0.1725  1.0323
   53DOPE   H2R 6733   6.796   6.246  13.691  0.4314 -1.3135 -1.5832
   53DOPE   H2S 6734   6.948   6.320  13.683 -1.7157  1.1687  1.2252
   53DOPE    C3 6735   7.045   6.101  13.285 -0.1435 -0.5118  0.6086
   53DOPE    HX 6736   6.986   6.170  13.222  3.1934 -0.4415 -2.8051
   53DOPE    HY 6737   7.059   6.016  13.215 -0.7336 -1.1693  1.2700
   53DOPE   O31 6738   7.176   6.146  13.319 -0.1956  0.6835 -0.0654
   53DOPE   C31 6739   7.195   6.272  13.324  0.0514  0.1134 -0.2718
   53DOPE   O32 6740   7.108   6.356  13.309  0.0328  0.4227 -0.2315
   53DOPE   C32 6741   7.342   6.295  13.354  0.6665  0.0051 -0.7441
   53DOPE   H2X 6742   7.409   6.207  13.340  1.6132  0.9366 -2.4380
   53DOPE   H2Y 6743   7.370   6.383  13.292  1.5924 -0.4302 -0.9655
   53DOPE   C23 6744   6.912   6.209  13.872 -0.0912 -0.3202  0.1980
   53DOPE   H3R 6745   6.848   6.124  13.905  0.5452 -1.4732 -1.4535
   53DOPE   H3S 6746   6.860   6.295  13.920  1.8005  1.9842 -1.6829
   53DOPE   C24 6747   7.050   6.214  13.928 -0.0127 -0.4732  0.3864
   53DOPE   H4R 6748   7.116   6.286  13.876 -0.6076 -1.0647 -1.2473
   53DOPE   H4S 6749   7.097   6.117  13.904 -1.1921 -0.9283 -0.1912
   53DOPE   C25 6750   7.063   6.233  14.082 -0.4243 -0.3024 -0.2947
   53DOPE   H5R 6751   7.007   6.149  14.126  0.8132 -0.0378  1.9200
   53DOPE   H5S 6752   7.019   6.327  14.123  1.2687  0.0970  0.7127
   53DOPE   C26 6753   7.208   6.209  14.127 -0.7136  0.0970 -0.1177
   53DOPE   H6R 6754   7.266   6.289  14.078  0.7384  0.0965  1.5048
   53DOPE   H6S 6755   7.229   6.107  14.087  0.0954 -0.0840  0.7285
   53DOPE   C27 6756   7.231   6.222  14.277  0.3239  0.7650 -0.3717
   53DOPE   H7R 6757   7.187   6.135  14.329 -1.4946  1.8507 -0.0141
   53DOPE   H7S 6758   7.193   6.319  14.316 -0.2464  0.2583  0.3622
   53DOPE   C28 6759   7.376   6.211  14.324 -0.3811  0.9063 -0.1159
   53DOPE   H8R 6760   7.379   6.253  14.427 -1.4792 -1.1719  0.8175
   53DOPE   H8S 6761   7.435   6.284  14.264  0.7074  1.7285  1.8520
   53DOPE   C29 6762   7.434   6.075  14.310  0.3476 -0.0669  0.0892
   53DOPE   H9R 6763   7.400   6.015  14.224 -0.7759 -0.4477  0.7741
   53DOPE  C210 6764   7.537   6.023  14.378 -0.1141  0.0316 -0.5976
   53DOPE  H10R 6765   7.565   5.917  14.363  0.2672  0.0851 -0.2770
   53DOPE  C211 6766   7.608   6.089  14.490 -0.6559 -1.1956  0.3419
   53DOPE  H11R 6767   7.537   6.109  14.573  0.0205  1.7912  0.3265
   53DOPE  H11S 6768   7.632   6.194  14.460  0.2985 -1.7157 -0.7862
   53DOPE  C212 6769   7.743   6.017  14.526 -0.3764 -0.4533  0.1961
   53DOPE  H12R 6770   7.785   6.078  14.608  3.2063 -2.9454  0.4194
   53DOPE  H12S 6771   7.801   6.028  14.432  1.1667 -1.4834  1.0036
   53DOPE  C213 6772   7.726   5.872  14.580  0.8150  0.1315  0.3520
   53DOPE  H13R 6773   7.687   5.804  14.502 -2.0882  0.8008  1.1049
   53DOPE  H13S 6774   7.648   5.876  14.659 -1.1990 -1.3488 -1.4796
   53DOPE  C214 6775   7.856   5.808  14.647 -0.0481  0.3237 -0.4070
   53DOPE  H14R 6776   7.870   5.866  14.741 -0.1453  0.8807 -0.7382
   53DOPE  H14S 6777   7.949   5.816  14.588  0.3268  1.2042  0.2792
   53DOPE  C215 6778   7.828   5.662  14.692 -0.3654 -0.3473  0.0339
   53DOPE  H15R 6779   7.832   5.600  14.599  1.6521  1.9996 -1.5752
   53DOPE  H15S 6780   7.728   5.652  14.740 -0.1492 -2.4567  0.1652
   53DOPE  C216 6781   7.939   5.603  14.778  0.0306  0.8891  0.4862
   53DOPE  H16R 6782   8.037   5.605  14.727 -1.3322  1.6891 -2.3019
   53DOPE  H16S 6783   7.908   5.498  14.798  0.8586  0.7518  1.1294
   53DOPE  C217 6784   7.966   5.670  14.912 -0.3153 -0.0784 -0.0066
   53DOPE  H17R 6785   8.007   5.773  14.898  0.8663 -0.4057  0.8461
   53DOPE  H17S 6786   8.049   5.621  14.967  0.3176 -0.1446 -0.9993
   53DOPE  C218 6787   7.845   5.678  15.015  0.3374 -0.3301  0.0084
   53DOPE  H18R 6788   7.872   5.740  15.103 -0.2535  1.2701 -0.8838
   53DOPE  H18S 6789   7.826   5.576  15.054  0.3542 -0.8656 -1.3379
   53DOPE  H18T 6790   7.753   5.712  14.963  0.1956  0.0454  0.4936
   53DOPE   C33 6791   7.362   6.327  13.509 -0.5293 -0.4267 -0.2187
   53DOPE   H3X 6792   7.285   6.397  13.549 -0.1442  0.3326 -0.7715
   53DOPE   H3Y 6793   7.463   6.372  13.503  0.4727 -2.6848 -1.6938
   53DOPE   C34 6794   7.351   6.198  13.602  0.1204 -0.0736  0.1709
   53DOPE   H4X 6795   7.249   6.154  13.609  0.8174 -1.8486 -0.1910
   53DOPE   H4Y 6796   7.417   6.125  13.550  1.7453  0.6706  1.0876
   53DOPE   C35 6797   7.413   6.214  13.742 -0.7531 -0.1108 -0.3817
   53DOPE   H5X 6798   7.428   6.122  13.803 -0.0330  0.0133 -0.3660
   53DOPE   H5Y 6799   7.346   6.284  13.797 -2.7004 -3.5949  2.0939
   53DOPE   C36 6800   7.554   6.274  13.750 -0.1828  0.5845 -0.5097
   53DOPE   H6X 6801   7.563   6.370  13.694  0.1253  2.1493  2.0686
   53DOPE   H6Y 6802   7.627   6.200  13.712 -0.2331 -0.9163  2.0776
   53DOPE   C37 6803   7.585   6.320  13.892 -0.0405 -1.3029 -0.2593
   53DOPE   H7X 6804   7.516   6.405  13.912  0.7144 -0.1640 -2.2705
   53DOPE   H7Y 6805   7.584   6.239  13.969 -1.1970 -0.9898  0.0677
   53DOPE   C38 6806   7.724   6.382  13.909  0.2645  0.2518 -0.4037
   53DOPE   H8X 6807   7.728   6.443  14.001 -0.3030  1.1407 -0.9483
   53DOPE   H8Y 6808   7.738   6.459  13.830  1.6779  0.3465 -0.0832
   53DOPE   C39 6809   7.841   6.283  13.902 -0.3008  0.3387  0.3259
   53DOPE   H9X 6810   7.873   6.254  13.801 -0.6439  1.1112 -0.0114
   53DOPE  C310 6811   7.910   6.224  14.007  0.6367  0.3038  0.0236
   53DOPE  H10X 6812   7.982   6.144  13.986 -1.6685 -1.8118 -0.3788
   53DOPE  C311 6813   7.875   6.247  14.153  0.5698  0.0745  0.2779
   53DOPE  H11X 6814   7.834   6.349  14.170 -1.0353 -0.2605 -1.3562
   53DOPE  H11Y 6815   7.793   6.178  14.183 -0.9856  1.7163 -0.0494
   53DOPE  C312 6816   7.997   6.240  14.245  0.5512 -0.0760  0.5998
   53DOPE  H12X 6817   8.074   6.303  14.196 -0.1698 -0.2635 -0.8078
   53DOPE  H12Y 6818   8.019   6.134  14.273 -0.0722  0.2605  2.4982
   53DOPE  C313 6819   7.974   6.302  14.378  0.0235 -0.9078  0.0247
   53DOPE  H13X 6820   7.933   6.405  14.375  2.7691  0.2676  0.0603
   53DOPE  H13Y 6821   7.899   6.245  14.438  0.1064 -1.2494 -0.1958
   53DOPE  C314 6822   8.107   6.313  14.462 -0.2821  0.7324  0.1227
   53DOPE  H14X 6823   8.170   6.390  14.411  1.1013 -1.2455 -1.3157
   53DOPE  H14Y 6824   8.166   6.219  14.463 -1.4909 -0.0441  1.8028
   53DOPE  C315 6825   8.092   6.345  14.616  0.2645  0.5826  0.4118
   53DOPE  H15X 6826   8.044   6.445  14.626 -1.7159 -0.2751  0.0026
   53DOPE  H15Y 6827   8.200   6.342  14.644  1.2142 -2.9300 -2.7683
   53DOPE  C316 6828   8.001   6.254  14.697  0.0167  1.0496 -0.4191
   53DOPE  H16X 6829   8.019   6.150  14.662  2.9878  1.7801 -1.3094
   53DOPE  H16Y 6830   7.893   6.275  14.680 -0.2867  0.8821  1.1880
   53DOPE  C317 6831   8.033   6.248  14.852  0.3589  0.6356  0.5809
   53DOPE  H17X 6832   7.978   6.169  14.907  0.6474  0.0899  0.1007
   53DOPE  H17Y 6833   8.143   6.239  14.864  0.7575  1.9756 -1.5672
   53DOPE  C318 6834   7.999   6.379  14.919 -0.7843  0.1243 -0.0873
   53DOPE  H18X 6835   8.019   6.378  15.028  1.0365 -1.4429 -0.3844
   53DOPE  H18Y 6836   8.054   6.467  14.878 -2.0668  1.3595  0.7186
   53DOPE  H18Z 6837   7.893   6.405  14.900 -0.8239  1.8630  2.0906
   54DOPE     N 6838   2.782   2.993  13.151 -0.4288 -0.3058  0.2009
   54DOPE   HN1 6839   2.859   3.060  13.133  2.3110 -3.3193 -0.3997
   54DOPE   HN2 6840   2.702   3.037  13.200 -0.8211 -1.8296  0.9953
   54DOPE   HN3 6841   2.822   2.920  13.214 -0.0101 -0.1990  0.0625
   54DOPE   C12 6842   2.737   2.921  13.025 -0.0261  0.1455  0.3413
   54DOPE  H12A 6843   2.824   2.860  12.993  0.4344  1.2483 -0.5550
   54DOPE  H12B 6844   2.711   2.989  12.942 -0.9155 -0.9366 -0.3047
   54DOPE   C11 6845   2.614   2.843  13.067  0.2442 -0.0127  0.0206
   54DOPE  H11A 6846   2.634   2.776  13.153  0.4336 -0.1519 -0.1305
   54DOPE  H11B 6847   2.592   2.778  12.979  0.4367  0.0485 -0.0711
   54DOPE     P 6848   2.363   2.926  13.024  0.1340  0.4685  0.3737
   54DOPE   O13 6849   2.384   2.936  12.878  0.3446 -0.0695 -0.0040
   54DOPE   O14 6850   2.275   3.023  13.089  0.2562 -0.4218 -0.4210
   54DOPE   O11 6851   2.319   2.787  13.064 -0.3029  0.0041  0.4285
   54DOPE   O12 6852   2.502   2.926  13.100  0.1601 -0.2500 -0.1264
   54DOPE    C1 6853   2.210   2.749  13.157  0.1089  1.1467  0.5342
   54DOPE    HA 6854   2.215   2.638  13.151 -1.7906  1.1011 -1.8001
   54DOPE    HB 6855   2.108   2.778  13.122 -0.3817 -0.0103  0.9463
   54DOPE    C2 6856   2.207   2.811  13.298 -0.3160  0.3317  0.2103
   54DOPE    HS 6857   2.172   2.915  13.290  1.5387  1.0520  0.8834
   54DOPE   O21 6858   2.337   2.809  13.360  0.0046  0.6423 -0.2410
   54DOPE   C21 6859   2.371   2.914  13.423  0.8351 -0.4899 -0.4896
   54DOPE   O22 6860   2.301   3.012  13.445  0.0061  0.4749  0.2885
   54DOPE   C22 6861   2.516   2.900  13.477 -0.3348  0.1476 -0.4531
   54DOPE   H2R 6862   2.550   3.004  13.497 -0.0118  0.4059 -2.1567
   54DOPE   H2S 6863   2.580   2.871  13.391 -0.7936  3.1180 -1.9034
   54DOPE    C3 6864   2.110   2.735  13.392  0.0937 -0.4384  0.1569
   54DOPE    HX 6865   2.150   2.631  13.395  1.4827  0.0816  2.3015
   54DOPE    HY 6866   2.006   2.732  13.354 -1.2737  0.3411  3.4791
   54DOPE   O31 6867   2.109   2.789  13.525  0.0007 -0.0087  0.3071
   54DOPE   C31 6868   2.041   2.899  13.554 -0.5190 -0.1036  0.5611
   54DOPE   O32 6869   1.964   2.960  13.483 -0.1815 -0.3291 -0.2844
   54DOPE   C32 6870   2.088   2.943  13.692  0.2298 -0.0284 -0.5032
   54DOPE   H2X 6871   2.008   2.922  13.766  0.8533  0.8739  0.4732
   54DOPE   H2Y 6872   2.177   2.884  13.722  1.1113  1.3368 -0.3448
   54DOPE   C23 6873   2.545   2.809  13.593 -0.7459 -0.0806 -0.3891
   54DOPE   H3R 6874   2.654   2.793  13.604 -1.0937 -1.4288  1.6629
   54DOPE   H3S 6875   2.496   2.710  13.580  0.6337 -0.9448  0.6741
   54DOPE   C24 6876   2.501   2.874  13.730 -0.1690 -0.5057 -0.1530
   54DOPE   H4R 6877   2.396   2.897  13.704 -0.3760  0.1266  1.1736
   54DOPE   H4S 6878   2.544   2.976  13.733 -0.7015 -0.2997  1.0161
   54DOPE   C25 6879   2.509   2.778  13.851 -0.8240 -0.0329 -0.0679
   54DOPE   H5R 6880   2.614   2.744  13.860 -0.6505 -0.3976 -2.7305
   54DOPE   H5S 6881   2.451   2.685  13.837 -0.8829 -0.4089  2.2250
   54DOPE   C26 6882   2.462   2.855  13.979 -0.6190  0.5967 -0.1942
   54DOPE   H6R 6883   2.366   2.907  13.958 -1.8535 -1.2626  0.5226
   54DOPE   H6S 6884   2.543   2.925  14.006  1.5722  0.4952 -5.3624
   54DOPE   C27 6885   2.434   2.762  14.103 -0.2907  0.1466  0.5895
   54DOPE   H7R 6886   2.527   2.706  14.130 -0.4549 -1.2208 -1.4451
   54DOPE   H7S 6887   2.358   2.689  14.069  0.7075 -0.7359  0.2022
   54DOPE   C28 6888   2.377   2.828  14.228  0.0580 -0.1202  0.1704
   54DOPE   H8R 6889   2.384   2.760  14.315 -0.8968  0.2850  0.5838
   54DOPE   H8S 6890   2.270   2.840  14.201  0.5165 -0.7536 -2.1719
   54DOPE   C29 6891   2.438   2.968  14.247 -0.0414 -0.1003 -0.2334
   54DOPE   H9R 6892   2.425   3.040  14.165 -1.6375  0.9956  0.9263
   54DOPE  C210 6893   2.480   3.016  14.360 -0.2620 -0.0873  0.2862
   54DOPE  H10R 6894   2.510   3.122  14.364 -0.8512  0.1970 -1.7112
   54DOPE  C211 6895   2.485   2.949  14.497  0.0564 -0.6095 -0.3882
   54DOPE  H11R 6896   2.590   2.926  14.522  0.1472 -1.0948 -1.1811
   54DOPE  H11S 6897   2.433   2.852  14.512  0.1131 -0.4239  1.1491
   54DOPE  C212 6898   2.416   3.035  14.614 -0.0429  0.0169  0.3421
   54DOPE  H12R 6899   2.311   3.063  14.591 -0.1059  0.6823  1.3984
   54DOPE  H12S 6900   2.479   3.127  14.616 -0.7338  0.5016  0.5270
   54DOPE  C213 6901   2.434   2.972  14.751 -0.1566 -0.0312  0.3288
   54DOPE  H13R 6902   2.357   2.893  14.767  0.8980 -1.0712  0.3586
   54DOPE  H13S 6903   2.415   3.056  14.821 -1.2945  0.8241 -0.9559
   54DOPE  C214 6904   2.575   2.927  14.787  0.3095  0.5747 -0.2519
   54DOPE  H14R 6905   2.642   3.013  14.767  0.9249  0.9467  2.7921
   54DOPE  H14S 6906   2.617   2.847  14.723 -0.9324 -0.2653 -0.0447
   54DOPE  C215 6907   2.592   2.886  14.933 -0.1366  0.1968  0.2738
   54DOPE  H15R 6908   2.517   2.808  14.958  0.0267 -0.5838 -1.5510
   54DOPE  H15S 6909   2.559   2.975  14.991 -0.7882  0.2691 -0.1990
   54DOPE  C216 6910   2.739   2.845  14.975 -0.3858 -0.3771  0.0596
   54DOPE  H16R 6911   2.755   2.872  15.082  3.3328  0.5197 -0.5774
   54DOPE  H16S 6912   2.800   2.915  14.914  1.7648 -1.5845  0.6923
   54DOPE  C217 6913   2.779   2.700  14.951 -0.8418 -0.2433 -0.2914
   54DOPE  H17R 6914   2.760   2.678  14.844 -0.6549 -1.5184 -0.0812
   54DOPE  H17S 6915   2.708   2.645  15.017 -0.5899  0.6125  0.7329
   54DOPE  C218 6916   2.929   2.669  14.978 -0.3441 -0.1170  0.0271
   54DOPE  H18R 6917   2.996   2.747  14.934  0.1424  1.9976  4.0228
   54DOPE  H18S 6918   2.955   2.569  14.936  0.1725  0.9872 -2.4811
   54DOPE  H18T 6919   2.960   2.667  15.085  0.5860  0.0066 -0.2240
   54DOPE   C33 6920   2.114   3.098  13.702 -1.3142  0.2582  0.4091
   54DOPE   H3X 6921   2.012   3.140  13.706 -1.2045  1.0201 -2.6349
   54DOPE   H3Y 6922   2.140   3.140  13.602 -2.7629 -1.8705 -0.9375
   54DOPE   C34 6923   2.189   3.129  13.830 -0.3870 -0.3277  0.0662
   54DOPE   H4X 6924   2.282   3.074  13.856  0.2559  1.0890  0.8939
   54DOPE   H4Y 6925   2.208   3.238  13.838 -3.1179  0.2015  0.6066
   54DOPE   C35 6926   2.091   3.115  13.950 -0.5144 -0.1207  0.1298
   54DOPE   H5X 6927   2.064   3.009  13.970 -1.6170 -0.1583 -1.3229
   54DOPE   H5Y 6928   2.004   3.182  13.935  0.7306  1.3005 -0.9833
   54DOPE   C36 6929   2.161   3.171  14.079  0.2982 -0.0713  0.2275
   54DOPE   H6X 6930   2.193   3.275  14.057  3.4407 -1.2573 -1.3581
   54DOPE   H6Y 6931   2.248   3.114  14.119  0.0908 -0.4389  0.1589
   54DOPE   C37 6932   2.077   3.175  14.211  0.0594 -0.0061 -0.0221
   54DOPE   H7X 6933   1.996   3.252  14.212 -0.0680 -0.0681  2.4348
   54DOPE   H7Y 6934   2.022   3.079  14.222 -3.1748  1.5993 -0.7862
   54DOPE   C38 6935   2.151   3.194  14.347  0.2100  0.0297  0.1088
   54DOPE   H8X 6936   2.216   3.106  14.368  0.5921  0.6925  1.8748
   54DOPE   H8Y 6937   2.079   3.190  14.432  0.5786 -1.0627  0.3904
   54DOPE   C39 6938   2.231   3.325  14.348  0.3933 -0.2831 -0.2127
   54DOPE   H9X 6939   2.309   3.326  14.271  1.7831 -0.8253  1.1314
   54DOPE  C310 6940   2.215   3.434  14.420 -0.3196  0.1340  0.7749
   54DOPE  H10X 6941   2.275   3.524  14.401  1.4077 -0.9955  0.6607
   54DOPE  C311 6942   2.113   3.460  14.528 -0.0224 -0.1441 -0.3661
   54DOPE  H11X 6943   2.028   3.389  14.534 -0.2523  0.2093  3.3837
   54DOPE  H11Y 6944   2.172   3.460  14.622  0.2448 -0.1613 -0.5336
   54DOPE  C312 6945   2.045   3.601  14.516 -0.6616  0.1515 -0.0552
   54DOPE  H12X 6946   1.982   3.600  14.608 -0.0256 -1.1177  0.4001
   54DOPE  H12Y 6947   1.967   3.596  14.437  0.3148  0.2015 -1.0433
   54DOPE  C313 6948   2.128   3.730  14.531  0.1065  0.3712 -0.8993
   54DOPE  H13X 6949   2.194   3.715  14.620 -1.0421  0.8768  0.0639
   54DOPE  H13Y 6950   2.192   3.735  14.441 -2.4749 -0.7581 -2.9244
   54DOPE  C314 6951   2.033   3.856  14.555 -0.2798  0.3445 -0.0083
   54DOPE  H14X 6952   1.961   3.832  14.636 -0.8331 -0.5817 -0.7532
   54DOPE  H14Y 6953   1.973   3.879  14.464  1.0543  1.9109 -0.5349
   54DOPE  C315 6954   2.122   3.970  14.588 -0.0038  0.5833 -0.1989
   54DOPE  H15X 6955   2.184   4.008  14.505 -0.5669 -0.0545 -0.9233
   54DOPE  H15Y 6956   2.190   3.943  14.672  0.1649  2.1550  0.1882
   54DOPE  C316 6957   2.048   4.085  14.655  0.2009 -0.0699  1.0603
   54DOPE  H16X 6958   1.964   4.065  14.724 -1.0996  0.8003 -0.2302
   54DOPE  H16Y 6959   2.004   4.150  14.577 -3.4942 -2.1111  1.2026
   54DOPE  C317 6960   2.148   4.173  14.731 -0.5143  0.2808  0.4754
   54DOPE  H17X 6961   2.203   4.115  14.808 -0.7528 -0.9036 -0.2216
   54DOPE  H17Y 6962   2.224   4.203  14.655  0.7684  0.1995  1.6890
   54DOPE  C318 6963   2.076   4.285  14.804 -0.4941 -1.1447 -0.2233
   54DOPE  H18X 6964   2.029   4.249  14.898 -1.1158 -0.2861 -0.1930
   54DOPE  H18Y 6965   2.144   4.368  14.835 -0.4630 -1.5081  0.7057
   54DOPE  H18Z 6966   2.000   4.329  14.736  0.3863  2.5833  0.9365
   55DOPE     N 6967   1.905   6.088  12.713  0.0858 -0.0773 -0.5580
   55DOPE   HN1 6968   1.994   6.034  12.716  0.0135 -0.1570  0.7576
   55DOPE   HN2 6969   1.827   6.022  12.692  1.0135 -1.7403  0.9753
   55DOPE   HN3 6970   1.919   6.151  12.631 -2.2222  1.5288  0.1882
   55DOPE   C12 6971   1.869   6.161  12.845 -0.5124  0.2486  0.0637
   55DOPE  H12A 6972   1.758   6.158  12.855 -0.6310  1.0786 -0.8611
   55DOPE  H12B 6973   1.910   6.263  12.834 -1.4223  0.5028 -1.2747
   55DOPE   C11 6974   1.939   6.079  12.958 -0.8594  0.5669 -0.5871
   55DOPE  H11A 6975   1.916   5.972  12.941  1.9239  0.0877 -1.7962
   55DOPE  H11B 6976   1.896   6.107  13.057  1.4534  1.1723  0.3235
   55DOPE     P 6977   2.177   6.025  13.065 -0.4237  0.2005 -0.1887
   55DOPE   O13 6978   2.294   6.114  13.087  0.0634 -0.2681  0.4347
   55DOPE   O14 6979   2.206   5.881  13.041  0.4393  0.1790 -0.2188
   55DOPE   O11 6980   2.091   6.042  13.194 -0.2532  0.1969  0.0637
   55DOPE   O12 6981   2.082   6.094  12.959 -0.1699 -0.0650 -0.3523
   55DOPE    C1 6982   2.005   5.947  13.249  0.2371  0.0083 -0.6631
   55DOPE    HA 6983   1.983   5.866  13.177 -1.0018  0.7658 -1.1590
   55DOPE    HB 6984   1.907   5.998  13.255 -0.2990 -1.0947  0.6414
   55DOPE    C2 6985   2.048   5.907  13.397 -0.2493  0.4466  0.6290
   55DOPE    HS 6986   1.978   5.828  13.432  0.8520 -1.2597 -0.8582
   55DOPE   O21 6987   2.044   6.023  13.482  0.6254 -0.0778  0.0716
   55DOPE   C21 6988   1.923   6.049  13.536  0.1763  0.5955  0.6497
   55DOPE   O22 6989   1.827   5.974  13.526 -0.3647 -0.1040 -0.0999
   55DOPE   C22 6990   1.930   6.182  13.610 -0.3022  0.5957  0.2354
   55DOPE   H2R 6991   1.828   6.227  13.606 -0.0281  1.2809  0.8651
   55DOPE   H2S 6992   2.002   6.251  13.562 -1.0097  0.2865 -1.3485
   55DOPE    C3 6993   2.186   5.838  13.412 -0.1857 -0.1227  0.6073
   55DOPE    HX 6994   2.258   5.914  13.372 -1.0024 -0.8837 -2.6237
   55DOPE    HY 6995   2.183   5.750  13.344  3.7596  0.2656 -0.3012
   55DOPE   O31 6996   2.213   5.794  13.543 -0.1137  0.0438  0.0734
   55DOPE   C31 6997   2.345   5.778  13.564 -0.2631  0.8725  0.2034
   55DOPE   O32 6998   2.437   5.789  13.483 -0.0499 -0.1420 -0.2482
   55DOPE   C32 6999   2.357   5.741  13.709  0.0387  0.5700 -0.4232
   55DOPE   H2X 7000   2.315   5.824  13.769  0.4104  1.3078 -1.1655
   55DOPE   H2Y 7001   2.286   5.657  13.723  0.2212  0.0694 -2.1714
   55DOPE   C23 7002   1.964   6.158  13.759 -0.0336  0.0714 -0.7157
   55DOPE   H3R 7003   1.881   6.116  13.819 -0.2030  0.4978 -0.6507
   55DOPE   H3S 7004   1.973   6.261  13.801  2.0807 -0.7498  1.1092
   55DOPE   C24 7005   2.097   6.107  13.811 -0.4943  0.2180  0.2218
   55DOPE   H4R 7006   2.177   6.154  13.750 -2.3637  2.7409 -0.4534
   55DOPE   H4S 7007   2.105   5.997  13.798 -1.3640  0.1674  0.0551
   55DOPE   C25 7008   2.122   6.134  13.965 -0.4557  0.7483 -0.2535
   55DOPE   H5R 7009   2.036   6.110  14.031  0.6884  1.4208  1.5354
   55DOPE   H5S 7010   2.141   6.243  13.967  0.8203  0.5212  0.7223
   55DOPE   C26 7011   2.255   6.077  14.019  0.2229 -0.0387 -0.0197
   55DOPE   H6R 7012   2.338   6.143  13.985  0.4452 -0.9627 -1.3593
   55DOPE   H6S 7013   2.272   5.979  13.969  0.0738 -0.9485  1.6501
   55DOPE   C27 7014   2.252   6.035  14.172  0.2274 -0.4203 -0.2186
   55DOPE   H7R 7015   2.350   5.993  14.202  0.3809 -0.1361 -0.3179
   55DOPE   H7S 7016   2.187   5.946  14.188  1.9755 -1.7165 -0.0662
   55DOPE   C28 7017   2.222   6.151  14.259 -0.0641 -0.1187 -0.2082
   55DOPE   H8R 7018   2.139   6.205  14.209  1.0029  1.0231 -0.8268
   55DOPE   H8S 7019   2.302   6.228  14.248 -1.4225  1.4083  0.0724
   55DOPE   C29 7020   2.205   6.104  14.401  0.5281 -0.8078  0.1886
   55DOPE   H9R 7021   2.298   6.077  14.454  1.5064 -0.6512 -1.3579
   55DOPE  C210 7022   2.088   6.103  14.465  0.6303 -0.1279  0.0505
   55DOPE  H10R 7023   2.081   6.062  14.567  1.4426  2.0741  1.0615
   55DOPE  C211 7024   1.948   6.145  14.414  0.3518  0.0277 -0.2681
   55DOPE  H11R 7025   1.916   6.055  14.358  1.4873  0.2127 -1.2513
   55DOPE  H11S 7026   1.945   6.223  14.335  0.1998 -0.7104 -1.0110
   55DOPE  C212 7027   1.848   6.186  14.525  0.6947  0.3173 -0.1870
   55DOPE  H12R 7028   1.814   6.102  14.589  0.6278 -0.2611 -0.9626
   55DOPE  H12S 7029   1.757   6.224  14.474  2.1836  0.2296 -3.0935
   55DOPE  C213 7030   1.897   6.315  14.595  0.4984 -0.2452  0.1350
   55DOPE  H13R 7031   1.907   6.390  14.514 -1.6647 -3.1250 -3.0727
   55DOPE  H13S 7032   1.993   6.282  14.641  0.9210  2.3233  1.2612
   55DOPE  C214 7033   1.794   6.377  14.695  0.1143 -0.2150 -0.5289
   55DOPE  H14R 7034   1.707   6.409  14.635  0.0581  1.8275  0.5393
   55DOPE  H14S 7035   1.823   6.481  14.722 -1.8410  0.0575  0.7542
   55DOPE  C215 7036   1.752   6.297  14.814  0.0497  0.4317 -0.5300
   55DOPE  H15R 7037   1.838   6.292  14.885 -0.1146 -1.2149 -0.4063
   55DOPE  H15S 7038   1.734   6.193  14.781  0.6192 -0.4056  1.5727
   55DOPE  C216 7039   1.628   6.347  14.894  0.3636 -0.4704 -1.0604
   55DOPE  H16R 7040   1.536   6.327  14.835  0.4240 -3.6966 -0.2687
   55DOPE  H16S 7041   1.639   6.457  14.907 -0.9898 -0.6078  2.7893
   55DOPE  C217 7042   1.610   6.288  15.036  0.5896 -0.0282  0.0959
   55DOPE  H17R 7043   1.584   6.370  15.106 -1.9464 -0.7156  0.0620
   55DOPE  H17S 7044   1.706   6.239  15.059  0.6225  0.1730  0.3814
   55DOPE  C218 7045   1.499   6.176  15.031  0.4152  0.3979 -0.0468
   55DOPE  H18R 7046   1.519   6.111  14.944  0.0165  0.6884 -0.3574
   55DOPE  H18S 7047   1.398   6.220  15.016  0.2064  0.1668  0.6431
   55DOPE  H18T 7048   1.495   6.119  15.126  0.3351 -1.6376 -1.2252
   55DOPE   C33 7049   2.496   5.685  13.746  0.6492 -0.1290 -0.0731
   55DOPE   H3X 7050   2.570   5.764  13.720  0.1573  0.5891  0.6587
   55DOPE   H3Y 7051   2.529   5.590  13.699  1.0726 -0.0544  0.0675
   55DOPE   C34 7052   2.500   5.668  13.899  0.1467 -0.8687 -0.1842
   55DOPE   H4X 7053   2.606   5.637  13.911  0.0102 -1.4349 -0.3974
   55DOPE   H4Y 7054   2.488   5.758  13.962 -0.2969 -0.5864 -0.6694
   55DOPE   C35 7055   2.426   5.544  13.950 -0.3722  0.7493 -0.2306
   55DOPE   H5X 7056   2.445   5.460  13.881 -0.8445  0.1602  0.3443
   55DOPE   H5Y 7057   2.318   5.569  13.945 -0.9049 -1.4022 -0.4129
   55DOPE   C36 7058   2.455   5.496  14.095 -1.5942  0.2047  0.5495
   55DOPE   H6X 7059   2.565   5.504  14.108 -1.2852 -0.0259 -1.5276
   55DOPE   H6Y 7060   2.427   5.389  14.106 -0.8242 -0.0085  0.4424
   55DOPE   C37 7061   2.390   5.586  14.196 -0.0084  0.2006  0.6569
   55DOPE   H7X 7062   2.423   5.687  14.164 -1.1301  0.1348 -0.7990
   55DOPE   H7Y 7063   2.281   5.571  14.179  0.2309 -1.7589  0.6247
   55DOPE   C38 7064   2.417   5.549  14.340 -0.0143 -0.5696  0.2615
   55DOPE   H8X 7065   2.410   5.438  14.350 -1.9410 -0.9303 -3.3115
   55DOPE   H8Y 7066   2.331   5.588  14.399 -1.9667 -1.2610 -1.9589
   55DOPE   C39 7067   2.548   5.610  14.379 -0.0329  0.4523 -0.0415
   55DOPE   H9X 7068   2.635   5.549  14.349 -1.5347 -1.7604 -0.1645
   55DOPE  C310 7069   2.567   5.722  14.451  0.0418  0.7142 -0.7103
   55DOPE  H10X 7070   2.664   5.770  14.466  0.3233  0.2877 -1.1566
   55DOPE  C311 7071   2.453   5.808  14.509  0.1041  0.5215 -0.1132
   55DOPE  H11X 7072   2.481   5.912  14.479 -1.0692  0.3558 -1.9599
   55DOPE  H11Y 7073   2.353   5.786  14.465  0.5093  1.0240 -1.3320
   55DOPE  C312 7074   2.438   5.798  14.661 -0.1616  0.1642  0.4938
   55DOPE  H12X 7075   2.376   5.885  14.691 -1.3754 -1.0675  1.6986
   55DOPE  H12Y 7076   2.529   5.806  14.723 -0.0402  2.1845  0.1309
   55DOPE  C313 7077   2.359   5.673  14.699  0.4170  1.0727 -0.2720
   55DOPE  H13X 7078   2.419   5.588  14.659  2.1950  0.5152  3.1779
   55DOPE  H13Y 7079   2.382   5.664  14.807  0.5541  5.2773  0.2283
   55DOPE  C314 7080   2.211   5.661  14.660 -0.4830 -0.3010 -0.2126
   55DOPE  H14X 7081   2.178   5.562  14.697 -0.3829  0.4764  2.1555
   55DOPE  H14Y 7082   2.196   5.679  14.551 -0.0127  1.8944  0.0240
   55DOPE  C315 7083   2.130   5.766  14.748 -0.5667 -0.0997 -1.1678
   55DOPE  H15X 7084   2.154   5.869  14.716  2.2871 -0.5211 -0.6968
   55DOPE  H15Y 7085   2.145   5.762  14.858 -2.8637  3.0835 -0.6186
   55DOPE  C316 7086   1.972   5.739  14.750  0.4121  0.2749 -0.2003
   55DOPE  H16X 7087   1.953   5.651  14.815  1.3223  1.5728  1.9193
   55DOPE  H16Y 7088   1.930   5.724  14.648 -2.1272  0.6080  0.7112
   55DOPE  C317 7089   1.904   5.855  14.819 -0.3740 -0.1995 -0.6100
   55DOPE  H17X 7090   1.943   5.864  14.923  0.0168 -2.3968 -0.5187
   55DOPE  H17Y 7091   1.947   5.948  14.775  0.6323  0.5479  1.7434
   55DOPE  C318 7092   1.749   5.854  14.816 -0.3753 -0.6403 -0.0453
   55DOPE  H18X 7093   1.704   5.763  14.862  0.9010 -1.2505  0.0432
   55DOPE  H18Y 7094   1.706   5.948  14.857 -0.7187  0.2337 -2.3011
   55DOPE  H18Z 7095   1.722   5.844  14.709  1.0318  2.3301 -0.7743
   56DOPE     N 7096   1.444   6.050  13.276 -0.2969 -0.1021  0.3836
   56DOPE   HN1 7097   1.347   6.031  13.244 -0.1933  1.1070 -0.7277
   56DOPE   HN2 7098   1.464   6.013  13.372  1.8501 -2.4510 -0.8252
   56DOPE   HN3 7099   1.472   6.150  13.277  0.3111 -0.2129 -1.7374
   56DOPE   C12 7100   1.551   5.972  13.198  0.7204 -0.6823 -0.4370
   56DOPE  H12A 7101   1.515   5.867  13.186  0.9345 -0.8044 -0.0211
   56DOPE  H12B 7102   1.647   5.967  13.253  0.9925  0.5606 -0.7867
   56DOPE   C11 7103   1.570   6.042  13.056  1.3765  0.2787  1.0494
   56DOPE  H11A 7104   1.467   6.046  13.013  1.0034 -1.7093  1.6158
   56DOPE  H11B 7105   1.630   5.973  12.993 -1.4167 -0.6379 -0.8233
   56DOPE     P 7106   1.547   6.297  13.060  0.1857  0.3447  0.0984
   56DOPE   O13 7107   1.460   6.299  13.177  0.2933 -1.0603  0.3716
   56DOPE   O14 7108   1.485   6.303  12.925 -0.4701  0.4401  0.2989
   56DOPE   O11 7109   1.645   6.418  13.066 -0.1453 -0.1921  0.2139
   56DOPE   O12 7110   1.633   6.165  13.077  0.3006 -0.1254 -0.2705
   56DOPE    C1 7111   1.764   6.449  13.140 -0.0565 -0.2029  0.5826
   56DOPE    HA 7112   1.800   6.552  13.116  1.0988 -0.2258  2.0161
   56DOPE    HB 7113   1.845   6.376  13.120 -0.7005 -0.7590 -0.0261
   56DOPE    C2 7114   1.732   6.450  13.286 -0.8393  0.3389 -0.5489
   56DOPE    HS 7115   1.702   6.348  13.317  0.4415  0.6362  1.9917
   56DOPE   O21 7116   1.626   6.548  13.317 -0.3070  0.2336 -0.0033
   56DOPE   C21 7117   1.527   6.493  13.400 -0.8425  0.1289 -0.5016
   56DOPE   O22 7118   1.526   6.378  13.442  0.2803  0.0710  0.5925
   56DOPE   C22 7119   1.427   6.605  13.442 -0.2873  0.7767 -0.9387
   56DOPE   H2R 7120   1.422   6.664  13.349  1.8207 -1.1944 -2.4032
   56DOPE   H2S 7121   1.478   6.663  13.522 -1.1360 -1.2381  1.2060
   56DOPE    C3 7122   1.864   6.491  13.361  0.8018 -0.0922 -0.5327
   56DOPE    HX 7123   1.911   6.582  13.317 -0.3755 -0.7271 -3.3589
   56DOPE    HY 7124   1.936   6.406  13.357  1.5378  0.5235 -0.6901
   56DOPE   O31 7125   1.847   6.510  13.499  0.5540 -0.3567 -0.1971
   56DOPE   C31 7126   1.864   6.620  13.564 -0.5654  0.2128 -0.2858
   56DOPE   O32 7127   1.883   6.732  13.514 -0.1061 -0.0146  0.0124
   56DOPE   C32 7128   1.860   6.588  13.714  0.5960 -0.2778  0.1629
   56DOPE   H2X 7129   1.757   6.620  13.743 -0.7289 -1.9164 -2.3375
   56DOPE   H2Y 7130   1.872   6.478  13.721 -0.0462 -0.4350 -0.9112
   56DOPE   C23 7131   1.295   6.566  13.496  0.1725  0.3654  0.2768
   56DOPE   H3R 7132   1.304   6.474  13.559  1.5910  0.2215 -0.0958
   56DOPE   H3S 7133   1.234   6.530  13.411  0.2096  0.0266  0.3908
   56DOPE   C24 7134   1.201   6.677  13.554 -0.0274 -0.0616 -0.7280
   56DOPE   H4R 7135   1.197   6.753  13.473  2.6305  2.6946  1.4665
   56DOPE   H4S 7136   1.241   6.734  13.641 -0.2340  0.6762 -1.1058
   56DOPE   C25 7137   1.057   6.632  13.588  0.0946  0.7259 -0.7077
   56DOPE   H5R 7138   1.054   6.546  13.658 -0.0362  0.6382 -0.8216
   56DOPE   H5S 7139   1.030   6.593  13.487  0.7480 -3.1770  0.4518
   56DOPE   C26 7140   0.959   6.741  13.615 -1.2037  0.2624 -0.3103
   56DOPE   H6R 7141   0.860   6.714  13.572 -0.4193  0.2959 -2.2443
   56DOPE   H6S 7142   0.990   6.837  13.568  0.6195 -0.2163 -0.1416
   56DOPE   C27 7143   0.943   6.776  13.763 -0.7314  0.0041 -0.4192
   56DOPE   H7R 7144   0.863   6.852  13.773 -1.8490 -1.4179  3.4955
   56DOPE   H7S 7145   1.041   6.803  13.806 -0.3796  1.3958 -1.9949
   56DOPE   C28 7146   0.881   6.656  13.849  0.1321  0.8459 -0.2996
   56DOPE   H8R 7147   0.963   6.582  13.853  0.5391  1.3315  1.8218
   56DOPE   H8S 7148   0.789   6.613  13.806 -0.8742  0.7506  1.8054
   56DOPE   C29 7149   0.856   6.708  13.990 -0.0044 -0.2837 -0.1535
   56DOPE   H9R 7150   0.780   6.788  13.993  0.5693  0.2866 -0.6563
   56DOPE  C210 7151   0.919   6.677  14.107  0.2946 -0.2474 -0.1676
   56DOPE  H10R 7152   0.892   6.736  14.196  1.5928  0.6403 -0.3313
   56DOPE  C211 7153   1.038   6.587  14.135 -0.8618 -0.5441  0.8240
   56DOPE  H11R 7154   1.058   6.513  14.055 -0.1553  1.1888 -0.7036
   56DOPE  H11S 7155   1.046   6.542  14.236  2.2367 -2.8145 -0.3022
   56DOPE  C212 7156   1.160   6.677  14.110  0.1612  0.2534 -0.4373
   56DOPE  H12R 7157   1.172   6.755  14.189 -1.2453 -1.7265  1.8893
   56DOPE  H12S 7158   1.153   6.735  14.016 -1.4074  1.6906  0.5106
   56DOPE  C213 7159   1.296   6.605  14.102  0.4505  0.1829  1.1502
   56DOPE  H13R 7160   1.309   6.537  14.190  1.1527 -1.2356 -0.0011
   56DOPE  H13S 7161   1.373   6.685  14.114 -1.3750  2.0857  0.6610
   56DOPE  C214 7162   1.329   6.538  13.970  0.6440  0.1227 -0.2673
   56DOPE  H14R 7163   1.331   6.600  13.877  2.6321 -2.3373 -2.0029
   56DOPE  H14S 7164   1.248   6.465  13.950  0.7046  0.0546 -0.2624
   56DOPE  C215 7165   1.470   6.481  13.976 -0.1317  0.0112 -0.3039
   56DOPE  H15R 7166   1.482   6.438  14.078 -2.4723  0.6803  0.3104
   56DOPE  H15S 7167   1.533   6.573  13.977  2.6975 -1.7792 -0.5148
   56DOPE  C216 7168   1.519   6.401  13.853  0.2815 -0.2131 -0.1386
   56DOPE  H16R 7169   1.630   6.395  13.846  0.4401 -0.3371  1.9364
   56DOPE  H16S 7170   1.497   6.454  13.758 -1.7185 -2.0675 -0.7784
   56DOPE  C217 7171   1.480   6.256  13.848 -0.3288  0.9872  0.4862
   56DOPE  H17R 7172   1.472   6.223  13.742 -2.6355 -0.8654  1.1377
   56DOPE  H17S 7173   1.377   6.236  13.886 -0.6780  1.8375  0.0085
   56DOPE  C218 7174   1.577   6.156  13.918  0.3008 -0.0547 -0.3757
   56DOPE  H18R 7175   1.584   6.193  14.023  1.5403 -0.8454 -0.1518
   56DOPE  H18S 7176   1.675   6.154  13.865 -0.0682  2.9926 -1.3260
   56DOPE  H18T 7177   1.539   6.053  13.900 -0.3867  0.3584 -1.3145
   56DOPE   C33 7178   1.973   6.659  13.790  0.3825 -0.7444 -0.0240
   56DOPE   H3X 7179   1.967   6.766  13.761  1.3466 -1.4297 -3.1640
   56DOPE   H3Y 7180   2.078   6.630  13.768  0.7600 -0.4508  1.3084
   56DOPE   C34 7181   1.974   6.642  13.946 -0.1314 -0.7058  0.0325
   56DOPE   H4X 7182   2.068   6.682  13.988 -0.2003 -0.7442  0.2259
   56DOPE   H4Y 7183   1.887   6.697  13.987 -0.1842  0.2454 -1.2937
   56DOPE   C35 7184   1.972   6.491  13.995  0.3272  0.0981 -0.3104
   56DOPE   H5X 7185   2.056   6.452  13.934  0.2904  1.9287 -1.6147
   56DOPE   H5Y 7186   1.880   6.448  13.951  0.2310  0.0836 -0.0918
   56DOPE   C36 7187   1.981   6.459  14.146  0.0878  0.4709 -0.2520
   56DOPE   H6X 7188   2.038   6.542  14.193  2.6315 -0.0063 -2.2281
   56DOPE   H6Y 7189   2.033   6.363  14.164 -0.6740  0.2738  0.9843
   56DOPE   C37 7190   1.845   6.452  14.210  0.1570  0.0158  0.1009
   56DOPE   H7X 7191   1.769   6.399  14.149 -0.7418  0.7120  0.5887
   56DOPE   H7Y 7192   1.851   6.394  14.305 -0.9102  1.3459  1.0252
   56DOPE   C38 7193   1.779   6.589  14.233  0.3452 -0.1258 -0.1731
   56DOPE   H8X 7194   1.692   6.604  14.165 -0.5794 -2.8986  0.2680
   56DOPE   H8Y 7195   1.848   6.673  14.211  1.6205 -0.9659  0.5567
   56DOPE   C39 7196   1.722   6.603  14.374 -0.0128  0.2891 -0.1222
   56DOPE   H9X 7197   1.645   6.527  14.394  1.1458 -0.5963  1.1185
   56DOPE  C310 7198   1.759   6.680  14.471 -0.0382 -0.0473  0.5165
   56DOPE  H10X 7199   1.693   6.680  14.559  0.4949  1.1440  0.9403
   56DOPE  C311 7200   1.875   6.786  14.477 -0.0365  0.2527 -0.7746
   56DOPE  H11X 7201   1.945   6.772  14.391 -0.5826  0.5933 -1.2854
   56DOPE  H11Y 7202   1.832   6.889  14.477 -1.4341 -0.2955  0.1780
   56DOPE  C312 7203   1.959   6.778  14.610 -0.0842 -0.1573  0.6008
   56DOPE  H12X 7204   2.017   6.683  14.605 -0.2044 -0.1578 -1.7963
   56DOPE  H12Y 7205   1.889   6.761  14.694 -0.4110 -3.1661 -0.1560
   56DOPE  C313 7206   2.056   6.903  14.614  0.3389 -0.3697  0.6839
   56DOPE  H13X 7207   2.141   6.887  14.684  1.6066 -3.3755 -1.3696
   56DOPE  H13Y 7208   2.102   6.915  14.514  2.3172  2.1813  1.7688
   56DOPE  C314 7209   1.992   7.037  14.647  0.4000  0.2974 -0.2899
   56DOPE  H14X 7210   1.919   7.065  14.569 -0.2271  3.2735  1.1993
   56DOPE  H14Y 7211   2.068   7.118  14.649 -1.0122  1.6644 -0.4750
   56DOPE  C315 7212   1.920   7.033  14.784  0.1293  0.2341 -1.1154
   56DOPE  H15X 7213   2.001   7.014  14.857 -1.4868  0.2794  0.7803
   56DOPE  H15Y 7214   1.838   6.958  14.791 -1.9320  2.5135  0.6277
   56DOPE  C316 7215   1.862   7.170  14.822  0.0377 -0.2698  0.1937
   56DOPE  H16X 7216   1.786   7.201  14.748 -0.2131 -0.1823  0.4845
   56DOPE  H16Y 7217   1.945   7.243  14.809 -0.1015  0.0599  1.0815
   56DOPE  C317 7218   1.783   7.187  14.959  0.1193  0.1767 -0.5467
   56DOPE  H17X 7219   1.855   7.176  15.043  0.2076 -1.0696 -0.7552
   56DOPE  H17Y 7220   1.738   7.288  14.954  0.5386  0.3233 -1.6612
   56DOPE  C318 7221   1.669   7.088  14.994  0.3267  0.4216 -0.1795
   56DOPE  H18X 7222   1.632   7.107  15.097  2.0455 -1.0832  0.7780
   56DOPE  H18Y 7223   1.585   7.114  14.927 -1.4851  1.3364  2.2852
   56DOPE  H18Z 7224   1.706   6.983  14.988 -1.3106 -0.1989  0.2978
   57DOPE     N 7225   1.811   1.119  12.837 -0.2256  0.1518 -0.0721
   57DOPE   HN1 7226   1.895   1.071  12.798  1.4716  1.1502  2.1753
   57DOPE   HN2 7227   1.783   1.087  12.932 -0.9550  2.3371  0.5000
   57DOPE   HN3 7228   1.731   1.088  12.777  0.0920 -1.2059  0.1642
   57DOPE   C12 7229   1.833   1.269  12.836 -0.0207  0.3845  0.6056
   57DOPE  H12A 7230   1.730   1.309  12.855 -0.7303 -1.3681  0.6164
   57DOPE  H12B 7231   1.857   1.292  12.730  0.5228 -1.5152  0.2857
   57DOPE   C11 7232   1.936   1.300  12.935  0.4227 -0.0751 -0.4745
   57DOPE  H11A 7233   1.901   1.268  13.035 -0.9102  0.9236 -0.5900
   57DOPE  H11B 7234   1.954   1.407  12.960 -1.6824 -0.5001  3.7438
   57DOPE     P 7235   2.136   1.130  12.978  0.3654  0.3799 -0.2391
   57DOPE   O13 7236   2.267   1.099  12.920  0.0946 -0.7992 -0.0221
   57DOPE   O14 7237   2.044   1.016  13.004  0.1877 -0.0659  0.0245
   57DOPE   O11 7238   2.160   1.209  13.107  1.0745  0.1809 -0.0862
   57DOPE   O12 7239   2.058   1.229  12.890 -0.3608 -0.1560 -0.3029
   57DOPE    C1 7240   2.227   1.331  13.109  0.2117 -1.1941  0.2264
   57DOPE    HA 7241   2.167   1.396  13.177  0.0561 -0.5074 -0.5531
   57DOPE    HB 7242   2.222   1.386  13.013  0.0089 -0.3104  0.7295
   57DOPE    C2 7243   2.379   1.317  13.152 -0.3727 -0.1706  0.8461
   57DOPE    HS 7244   2.431   1.278  13.062 -2.1431  2.6879 -1.5813
   57DOPE   O21 7245   2.389   1.226  13.266  0.4534  0.3758 -0.7414
   57DOPE   C21 7246   2.501   1.172  13.279 -0.1698 -0.0151 -0.1636
   57DOPE   O22 7247   2.600   1.176  13.208 -0.5314  0.7388  0.5442
   57DOPE   C22 7248   2.507   1.104  13.415  0.0247  0.8769 -0.0126
   57DOPE   H2R 7249   2.511   0.994  13.402  1.2748  1.0121 -1.0284
   57DOPE   H2S 7250   2.422   1.135  13.480  0.5721  3.2388 -0.3147
   57DOPE    C3 7251   2.452   1.454  13.181  0.6092 -0.1117 -0.3533
   57DOPE    HX 7252   2.429   1.513  13.089 -1.9451 -1.9243 -0.9909
   57DOPE    HY 7253   2.560   1.430  13.175  0.9267  1.2310 -0.4579
   57DOPE   O31 7254   2.415   1.514  13.305 -0.7237 -0.1891 -0.4667
   57DOPE   C31 7255   2.466   1.634  13.336 -0.1856  0.1892 -0.2065
   57DOPE   O32 7256   2.532   1.709  13.264  1.2845 -0.4237  0.1129
   57DOPE   C32 7257   2.409   1.670  13.474 -0.3671 -0.8145 -0.4274
   57DOPE   H2X 7258   2.298   1.660  13.470 -0.5290  0.7982 -0.4008
   57DOPE   H2Y 7259   2.451   1.599  13.548  0.9898  0.9993  0.6122
   57DOPE   C23 7260   2.625   1.153  13.498  0.4653  0.5565  0.6956
   57DOPE   H3R 7261   2.718   1.107  13.460  1.3968  1.2154  2.0703
   57DOPE   H3S 7262   2.609   1.125  13.605 -1.1212  2.2328  0.9591
   57DOPE   C24 7263   2.634   1.309  13.491  0.2672 -0.0846 -0.3739
   57DOPE   H4R 7264   2.544   1.364  13.525  0.8272  0.4326  0.2893
   57DOPE   H4S 7265   2.675   1.349  13.395  0.7732  0.3739  0.0280
   57DOPE   C25 7266   2.743   1.358  13.592  0.1238  0.0477  0.0673
   57DOPE   H5R 7267   2.824   1.283  13.584  0.8589  0.9684 -1.7003
   57DOPE   H5S 7268   2.699   1.357  13.694 -0.6866 -0.5906 -0.2693
   57DOPE   C26 7269   2.802   1.494  13.553  0.7188  0.1683 -0.7254
   57DOPE   H6R 7270   2.717   1.564  13.537  1.0044 -0.1592 -4.5013
   57DOPE   H6S 7271   2.847   1.491  13.452 -1.1655 -3.1482 -1.5873
   57DOPE   C27 7272   2.889   1.561  13.661  0.0601 -0.5266 -0.0248
   57DOPE   H7R 7273   2.972   1.492  13.685  0.6317  0.7954  2.0543
   57DOPE   H7S 7274   2.830   1.572  13.754  0.5849  1.8878  0.0964
   57DOPE   C28 7275   2.943   1.694  13.608  0.2800  0.1498  0.1425
   57DOPE   H8R 7276   2.864   1.749  13.554 -0.9118  1.5308  3.0551
   57DOPE   H8S 7277   3.026   1.680  13.536  2.6241  2.2339  2.2367
   57DOPE   C29 7278   2.988   1.782  13.725 -0.0888  0.7623  0.2968
   57DOPE   H9R 7279   3.095   1.808  13.721  0.5330 -1.6636 -1.6466
   57DOPE  C210 7280   2.904   1.834  13.817 -0.3556 -0.5024  0.2171
   57DOPE  H10R 7281   2.948   1.907  13.887 -0.6059  1.5414 -1.6621
   57DOPE  C211 7282   2.761   1.824  13.837 -0.0050 -0.0973  0.2756
   57DOPE  H11R 7283   2.715   1.744  13.775 -0.1492  0.4586 -0.3599
   57DOPE  H11S 7284   2.709   1.919  13.812  0.0621 -0.6424 -2.1906
   57DOPE  C212 7285   2.730   1.783  13.984  0.4750 -0.4650 -0.1347
   57DOPE  H12R 7286   2.790   1.846  14.053  1.9521 -1.1375 -0.7590
   57DOPE  H12S 7287   2.782   1.687  14.003  1.4981  0.2283  0.6749
   57DOPE  C213 7288   2.578   1.794  14.011 -0.1423  0.4244 -0.1234
   57DOPE  H13R 7289   2.527   1.710  13.959 -0.1435  0.1924  0.2458
   57DOPE  H13S 7290   2.544   1.889  13.967 -0.1599 -0.2228 -1.5821
   57DOPE  C214 7291   2.547   1.779  14.166  0.1964 -0.2115  0.1779
   57DOPE  H14R 7292   2.621   1.846  14.214 -0.2267  1.6725 -1.6694
   57DOPE  H14S 7293   2.559   1.673  14.198  0.6148 -0.0121  0.6992
   57DOPE  C215 7294   2.402   1.809  14.203 -0.3357 -0.4251  0.1682
   57DOPE  H15R 7295   2.336   1.729  14.164  0.5231 -0.6362 -0.8983
   57DOPE  H15S 7296   2.377   1.912  14.167  0.9782 -0.4421 -0.8812
   57DOPE  C216 7297   2.386   1.799  14.353  0.5436 -0.3400 -0.0259
   57DOPE  H16R 7298   2.476   1.841  14.403  0.4300 -2.3587  2.0375
   57DOPE  H16S 7299   2.386   1.691  14.381 -1.2187 -0.2649  0.3922
   57DOPE  C217 7300   2.255   1.862  14.400 -0.4285 -0.4385  0.4486
   57DOPE  H17R 7301   2.167   1.802  14.366  0.2404 -1.1881 -0.0112
   57DOPE  H17S 7302   2.257   1.959  14.347 -0.6382 -0.3404  0.6230
   57DOPE  C218 7303   2.239   1.875  14.550  0.4460  0.0412 -0.7789
   57DOPE  H18R 7304   2.132   1.898  14.570  0.6141 -0.0873  0.3430
   57DOPE  H18S 7305   2.310   1.954  14.585  0.7919 -1.1051  1.2627
   57DOPE  H18T 7306   2.273   1.784  14.603 -0.6915 -0.9238 -1.6670
   57DOPE   C33 7307   2.468   1.803  13.532 -0.0990  0.3833 -0.6225
   57DOPE   H3X 7308   2.435   1.895  13.479  1.5883  1.4388  0.0730
   57DOPE   H3Y 7309   2.579   1.804  13.534 -0.0804 -1.0125 -0.0349
   57DOPE   C34 7310   2.409   1.834  13.671 -0.0771 -0.0544  0.6860
   57DOPE   H4X 7311   2.412   1.746  13.739 -0.6370 -0.4070  0.2661
   57DOPE   H4Y 7312   2.479   1.908  13.714 -0.4060 -0.3909  1.8210
   57DOPE   C35 7313   2.267   1.901  13.666  0.1693 -0.4048 -0.2346
   57DOPE   H5X 7314   2.188   1.827  13.641 -2.0455  2.1513 -1.3117
   57DOPE   H5Y 7315   2.268   1.981  13.589 -1.4020 -0.7425 -0.6404
   57DOPE   C36 7316   2.228   1.963  13.796 -0.7989 -0.2676  0.0708
   57DOPE   H6X 7317   2.143   2.032  13.777 -0.8429  0.0838  1.4621
   57DOPE   H6Y 7318   2.314   2.021  13.836 -1.4028  0.5212  0.2360
   57DOPE   C37 7319   2.180   1.863  13.904 -0.4001  0.1350  0.0917
   57DOPE   H7X 7320   2.103   1.795  13.863  0.2071 -1.0474  0.8286
   57DOPE   H7Y 7321   2.262   1.800  13.946  0.7673  1.5411 -0.0012
   57DOPE   C38 7322   2.127   1.934  14.028  0.7170 -0.3383  0.1255
   57DOPE   H8X 7323   2.204   2.011  14.052  1.4789  0.1595 -3.3763
   57DOPE   H8Y 7324   2.136   1.858  14.109  1.6736 -1.5895 -1.0975
   57DOPE   C39 7325   1.996   2.007  14.003  0.2639  0.5705 -0.1368
   57DOPE   H9X 7326   1.955   1.992  13.902 -0.8115 -0.1728  0.3944
   57DOPE  C310 7327   1.931   2.083  14.093  0.5897  0.0270  0.6942
   57DOPE  H10X 7328   1.843   2.136  14.055  0.0289 -1.0745  0.4139
   57DOPE  C311 7329   1.971   2.109  14.236  0.0278 -0.6593 -0.8499
   57DOPE  H11X 7330   1.957   2.031  14.314  0.2263 -0.0117 -0.1414
   57DOPE  H11Y 7331   2.077   2.143  14.242 -0.5471  1.0652  1.4568
   57DOPE  C312 7332   1.892   2.237  14.286  0.5091 -0.8775 -0.1508
   57DOPE  H12X 7333   1.790   2.199  14.310  0.8316 -0.6224  1.8203
   57DOPE  H12Y 7334   1.877   2.313  14.207 -0.3194 -1.7401 -0.8535
   57DOPE  C313 7335   1.936   2.305  14.416 -0.2770  1.0718  0.0513
   57DOPE  H13X 7336   2.039   2.345  14.407  0.0914  1.6194  4.5167
   57DOPE  H13Y 7337   1.859   2.383  14.439 -1.1866 -0.1163  1.2203
   57DOPE  C314 7338   1.954   2.215  14.537  0.1722 -0.2880 -0.8139
   57DOPE  H14X 7339   2.024   2.138  14.500  3.6940  2.4414 -0.3702
   57DOPE  H14Y 7340   1.858   2.172  14.573  0.7781 -0.1192  1.1232
   57DOPE  C315 7341   2.031   2.288  14.645  0.3410 -0.5317 -0.5314
   57DOPE  H15X 7342   1.988   2.390  14.651  0.7659 -0.3372 -0.8098
   57DOPE  H15Y 7343   2.138   2.292  14.617  0.1798  0.0987 -1.0731
   57DOPE  C316 7344   2.011   2.205  14.774  0.8768 -0.2255 -0.1445
   57DOPE  H16X 7345   2.004   2.096  14.758 -0.0994 -0.1625 -0.1945
   57DOPE  H16Y 7346   1.909   2.226  14.812  1.0769  0.1703  0.1907
   57DOPE  C317 7347   2.110   2.243  14.887 -0.3755 -0.4053 -0.3155
   57DOPE  H17X 7348   2.133   2.351  14.874 -1.9858  0.0830  0.6572
   57DOPE  H17Y 7349   2.056   2.227  14.983 -0.4479 -2.5421 -0.6670
   57DOPE  C318 7350   2.231   2.146  14.878  0.2314 -0.6545 -0.4185
   57DOPE  H18X 7351   2.325   2.182  14.926  2.1834 -2.8513 -2.3192
   57DOPE  H18Y 7352   2.201   2.046  14.915 -1.5403  0.4501  1.3045
   57DOPE  H18Z 7353   2.259   2.129  14.771  0.8247 -0.4737 -0.2995
   58DOPE     N 7354   1.081   6.142  13.048 -0.2602  0.4038  0.0944
   58DOPE   HN1 7355   1.044   6.233  13.084  1.3660  0.6082  1.3855
   58DOPE   HN2 7356   1.116   6.104  13.139 -1.7462 -0.8295  0.1915
   58DOPE   HN3 7357   1.155   6.145  12.975 -0.8283  0.2980 -0.4952
   58DOPE   C12 7358   0.965   6.048  13.011 -0.0808  0.0067  0.7416
   58DOPE  H12A 7359   0.897   6.083  12.931  0.5131  0.7026  0.5262
   58DOPE  H12B 7360   0.901   6.042  13.101 -1.2184 -2.5097 -0.1586
   58DOPE   C11 7361   1.013   5.899  12.988 -0.3252 -1.4615 -0.1315
   58DOPE  H11A 7362   1.101   5.901  12.921  0.5963 -1.4673  1.0469
   58DOPE  H11B 7363   0.938   5.839  12.931 -1.8456  0.3376 -0.1294
   58DOPE     P 7364   1.170   5.831  13.187 -0.3342  0.1688 -0.2964
   58DOPE   O13 7365   1.199   5.968  13.223 -0.3305 -0.2045 -0.3402
   58DOPE   O14 7366   1.272   5.765  13.101  0.9585 -0.6324 -0.3011
   58DOPE   O11 7367   1.145   5.746  13.309 -0.3753  0.1515 -0.1536
   58DOPE   O12 7368   1.029   5.834  13.118  0.2697  0.0173  0.0413
   58DOPE    C1 7369   1.051   5.798  13.402  0.1748 -0.6693 -0.0468
   58DOPE    HA 7370   0.951   5.759  13.372  0.4774 -0.1621 -1.8499
   58DOPE    HB 7371   1.032   5.907  13.392 -0.3829 -0.9339 -2.9141
   58DOPE    C2 7372   1.084   5.766  13.553 -1.0327 -0.0382  0.0383
   58DOPE    HS 7373   1.108   5.657  13.560  0.0079  0.2137  0.6649
   58DOPE   O21 7374   0.974   5.784  13.637 -0.0682 -0.1240  0.1898
   58DOPE   C21 7375   0.872   5.698  13.625  0.1188  0.1834  0.5903
   58DOPE   O22 7376   0.868   5.607  13.545  0.3700 -0.2061  0.2015
   58DOPE   C22 7377   0.769   5.717  13.739  0.5702  0.3331 -0.4044
   58DOPE   H2R 7378   0.669   5.688  13.700  0.7601 -0.0992 -0.5806
   58DOPE   H2S 7379   0.764   5.823  13.772 -0.1346  0.3193 -0.4488
   58DOPE    C3 7380   1.209   5.838  13.616  0.8137 -0.4131 -0.1878
   58DOPE    HX 7381   1.177   5.944  13.632  1.7447  0.6694 -4.2486
   58DOPE    HY 7382   1.284   5.850  13.535  0.3477 -1.6449 -0.8389
   58DOPE   O31 7383   1.246   5.756  13.729 -0.5586  0.3632  0.4735
   58DOPE   C31 7384   1.372   5.755  13.767  0.5639 -0.4144 -0.5951
   58DOPE   O32 7385   1.467   5.814  13.712 -0.7587  0.6094 -0.6550
   58DOPE   C32 7386   1.380   5.684  13.902 -0.3773 -0.2590  0.0194
   58DOPE   H2X 7387   1.288   5.685  13.963  0.9324 -1.5049  2.1244
   58DOPE   H2Y 7388   1.399   5.576  13.882  1.7284 -0.1052  0.9243
   58DOPE   C23 7389   0.809   5.628  13.860 -0.2739 -0.5526  0.5789
   58DOPE   H3R 7390   0.848   5.530  13.826 -1.4164 -0.5931 -0.7170
   58DOPE   H3S 7391   0.718   5.602  13.918  0.4165 -1.5226  1.2485
   58DOPE   C24 7392   0.899   5.711  13.955  0.3587 -0.1283  0.6418
   58DOPE   H4R 7393   0.832   5.762  14.027 -0.7347  1.1120 -1.1736
   58DOPE   H4S 7394   0.948   5.796  13.902 -0.9848 -0.4007 -1.1282
   58DOPE   C25 7395   1.005   5.628  14.033  0.1218 -0.5115 -0.0309
   58DOPE   H5R 7396   1.070   5.696  14.092 -2.0812  0.9568  0.8479
   58DOPE   H5S 7397   1.066   5.573  13.958 -2.0504 -1.8362 -0.9089
   58DOPE   C26 7398   0.925   5.528  14.117  0.1968 -0.5197  0.0909
   58DOPE   H6R 7399   0.863   5.463  14.052 -1.3590  2.3389 -1.4876
   58DOPE   H6S 7400   0.850   5.595  14.165 -0.6927 -0.6475 -1.0861
   58DOPE   C27 7401   1.010   5.458  14.226  0.5117  0.5675  0.2935
   58DOPE   H7R 7402   0.937   5.419  14.301 -0.8772  2.4396 -0.0040
   58DOPE   H7S 7403   1.073   5.523  14.291 -0.3427 -0.5052  2.2830
   58DOPE   C28 7404   1.087   5.342  14.149 -0.1475  0.1300 -0.3264
   58DOPE   H8R 7405   1.144   5.372  14.058  0.2449 -1.8839 -0.7975
   58DOPE   H8S 7406   1.010   5.272  14.109  1.1558 -1.1846 -0.6457
   58DOPE   C29 7407   1.186   5.266  14.235  0.9273 -0.4718  0.4956
   58DOPE   H9R 7408   1.264   5.327  14.283  0.3715  0.2936  0.4388
   58DOPE  C210 7409   1.176   5.135  14.273 -0.7539 -0.5645 -0.0702
   58DOPE  H10R 7410   1.258   5.093  14.333  0.1587  0.2171 -0.7503
   58DOPE  C211 7411   1.072   5.037  14.241 -0.1793  0.2988  0.1374
   58DOPE  H11R 7412   1.006   5.070  14.158  0.4755  1.7064  0.1443
   58DOPE  H11S 7413   0.997   5.020  14.321 -0.8186  0.0117 -0.5118
   58DOPE  C212 7414   1.124   4.900  14.196  0.3297 -0.3623  0.5487
   58DOPE  H12R 7415   1.037   4.831  14.198 -0.1571  0.0761 -2.0278
   58DOPE  H12S 7416   1.202   4.860  14.264  2.7875 -1.0120 -2.4314
   58DOPE  C213 7417   1.179   4.884  14.057  0.2922  0.1046 -0.0287
   58DOPE  H13R 7418   1.182   4.774  14.045  0.7290  0.0862  0.2303
   58DOPE  H13S 7419   1.280   4.929  14.050 -0.0172  0.9841  0.9691
   58DOPE  C214 7420   1.101   4.921  13.930 -0.3093 -0.0208  0.4716
   58DOPE  H14R 7421   1.089   5.031  13.919 -3.1139 -0.4081 -1.2984
   58DOPE  H14S 7422   0.999   4.878  13.928 -0.0682 -0.8345  2.6801
   58DOPE  C215 7423   1.173   4.859  13.808 -0.3473  0.0130 -0.6048
   58DOPE  H15R 7424   1.175   4.749  13.817  1.9490 -0.1009 -1.6785
   58DOPE  H15S 7425   1.276   4.900  13.800 -0.1177 -0.8517 -2.6432
   58DOPE  C216 7426   1.108   4.902  13.679 -0.2020 -0.3953  0.1071
   58DOPE  H16R 7427   1.099   5.013  13.673 -2.6611 -0.5692 -0.5677
   58DOPE  H16S 7428   1.010   4.849  13.674  0.2302 -1.0902 -2.3098
   58DOPE  C217 7429   1.181   4.854  13.551  0.4305  0.5963 -0.2273
   58DOPE  H17R 7430   1.102   4.855  13.473  0.6408  1.2327 -0.4338
   58DOPE  H17S 7431   1.217   4.749  13.558 -1.4730 -0.0113  1.3764
   58DOPE  C218 7432   1.295   4.936  13.512 -0.9707  0.0787  0.8172
   58DOPE  H18R 7433   1.337   4.910  13.412 -0.4055  0.8779  0.8445
   58DOPE  H18S 7434   1.381   4.943  13.582 -0.2739 -0.9343  0.0944
   58DOPE  H18T 7435   1.251   5.036  13.494 -0.9668 -0.1041 -0.3239
   58DOPE   C33 7436   1.497   5.759  13.981  0.7433 -0.1076  0.2537
   58DOPE   H3X 7437   1.481   5.869  13.989 -0.3970  0.1491 -3.5635
   58DOPE   H3Y 7438   1.594   5.747  13.928  1.6113 -0.0307  1.7751
   58DOPE   C34 7439   1.521   5.692  14.121  0.3213 -0.2118  0.4744
   58DOPE   H4X 7440   1.535   5.583  14.105 -0.5290 -0.2044 -0.3695
   58DOPE   H4Y 7441   1.618   5.733  14.158  0.1147  2.0956 -1.2865
   58DOPE   C35 7442   1.392   5.701  14.205 -0.3193 -0.7617 -0.3090
   58DOPE   H5X 7443   1.333   5.610  14.179 -0.5162 -0.6568 -0.2354
   58DOPE   H5Y 7444   1.336   5.795  14.184 -2.9947 -1.8105  1.5043
   58DOPE   C36 7445   1.410   5.688  14.360  0.1079  0.0185 -0.8397
   58DOPE   H6X 7446   1.487   5.611  14.381  0.7205  0.8917  0.2560
   58DOPE   H6Y 7447   1.312   5.666  14.409  0.7259 -0.2971  0.2862
   58DOPE   C37 7448   1.456   5.823  14.432  0.0306  0.2768 -0.1532
   58DOPE   H7X 7449   1.478   5.796  14.537  1.4511  2.8629  0.2992
   58DOPE   H7Y 7450   1.554   5.851  14.389  1.9145  0.1104  3.5917
   58DOPE   C38 7451   1.359   5.940  14.437  0.1856  0.7929  0.2737
   58DOPE   H8X 7452   1.380   6.002  14.527 -0.2195  0.7367  0.4097
   58DOPE   H8Y 7453   1.256   5.904  14.460 -0.0845 -0.2327 -2.2157
   58DOPE   C39 7454   1.352   6.028  14.307 -0.8634  0.2382  0.0236
   58DOPE   H9X 7455   1.316   5.972  14.220  0.8696 -1.7457  0.4895
   58DOPE  C310 7456   1.413   6.146  14.294 -0.6819 -0.1777 -0.0921
   58DOPE  H10X 7457   1.394   6.205  14.203 -0.6983  1.7013  1.0716
   58DOPE  C311 7458   1.497   6.222  14.400 -0.3598 -0.0413 -0.2058
   58DOPE  H11X 7459   1.534   6.153  14.479 -0.0978  1.0859  0.6759
   58DOPE  H11Y 7460   1.594   6.262  14.366  0.1440  0.7151  1.9310
   58DOPE  C312 7461   1.421   6.333  14.472 -0.2218  0.5859  0.6614
   58DOPE  H12X 7462   1.377   6.390  14.386  1.9450 -0.9041 -1.5817
   58DOPE  H12Y 7463   1.474   6.403  14.540  1.0300  1.4922 -1.1291
   58DOPE  C313 7464   1.308   6.281  14.569  0.0731  0.4135  0.4374
   58DOPE  H13X 7465   1.256   6.205  14.507  0.9592 -0.1714  0.3931
   58DOPE  H13Y 7466   1.352   6.220  14.650  1.1564 -0.8060 -1.0035
   58DOPE  C314 7467   1.223   6.401  14.619  0.9433 -0.1104 -0.2367
   58DOPE  H14X 7468   1.153   6.436  14.541  1.9068  0.0613 -1.0503
   58DOPE  H14Y 7469   1.294   6.486  14.620 -1.9046  2.4366 -0.4823
   58DOPE  C315 7470   1.134   6.367  14.738  0.0155  0.0782  0.2249
   58DOPE  H15X 7471   1.078   6.459  14.764 -2.7982 -1.9444  1.8954
   58DOPE  H15Y 7472   1.201   6.344  14.824  0.0312  1.8076  0.6978
   58DOPE  C316 7473   1.038   6.252  14.715  0.3019  0.1509 -0.1949
   58DOPE  H16X 7474   1.093   6.171  14.661 -1.4419 -2.1441  1.2995
   58DOPE  H16Y 7475   0.957   6.288  14.647 -0.4810  1.6195  1.4517
   58DOPE  C317 7476   0.960   6.204  14.844 -0.6656 -0.3314 -0.0746
   58DOPE  H17X 7477   0.894   6.121  14.811  1.7408 -1.1589 -3.3229
   58DOPE  H17Y 7478   1.034   6.163  14.916 -1.7239 -0.9036  0.7093
   58DOPE  C318 7479   0.891   6.327  14.909  0.2885  0.4306 -0.4194
   58DOPE  H18X 7480   0.826   6.290  14.991  0.6745  0.6051 -0.0329
   58DOPE  H18Y 7481   0.975   6.385  14.954  1.0821  0.8005 -2.2883
   58DOPE  H18Z 7482   0.831   6.389  14.839 -1.2976  0.1409  0.6215
   59DOPE     N 7483   1.109   2.014  13.095 -0.4098  0.1283 -0.3634
   59DOPE   HN1 7484   1.131   2.045  12.998  0.4160 -0.8956 -0.5297
   59DOPE   HN2 7485   1.112   1.910  13.102  1.8956  0.1219 -0.5245
   59DOPE   HN3 7486   1.017   2.056  13.119 -0.8479  0.0856 -1.8677
   59DOPE   C12 7487   1.224   2.052  13.184  0.3493 -0.5495 -0.8474
   59DOPE  H12A 7488   1.196   2.032  13.289 -1.5182 -1.7764 -1.5104
   59DOPE  H12B 7489   1.235   2.162  13.175 -0.5955 -0.2292  1.3618
   59DOPE   C11 7490   1.350   1.975  13.153 -0.4533  0.6932 -0.1978
   59DOPE  H11A 7491   1.423   1.995  13.234 -0.1159 -1.1214 -0.0119
   59DOPE  H11B 7492   1.398   2.008  13.059  0.2866 -2.6473 -1.1197
   59DOPE     P 7493   1.438   1.726  13.169 -0.2438  0.2617 -0.1719
   59DOPE   O13 7494   1.571   1.789  13.162 -0.2648  0.7496 -0.0009
   59DOPE   O14 7495   1.407   1.617  13.075 -0.2125 -0.2849 -0.2008
   59DOPE   O11 7496   1.414   1.661  13.316  0.4674  0.2373  0.2670
   59DOPE   O12 7497   1.319   1.838  13.158  0.2029  0.2340 -0.1408
   59DOPE    C1 7498   1.445   1.743  13.432  0.2658 -0.4068 -0.0068
   59DOPE    HA 7499   1.380   1.832  13.445  1.1327  0.3212 -0.5461
   59DOPE    HB 7500   1.546   1.788  13.430  0.5418 -0.6619  3.1741
   59DOPE    C2 7501   1.414   1.661  13.565 -0.5280 -0.1967  0.0540
   59DOPE    HS 7502   1.394   1.724  13.654  1.3638 -1.5806  1.5428
   59DOPE   O21 7503   1.526   1.568  13.581 -0.3755 -0.3996 -0.1759
   59DOPE   C21 7504   1.616   1.624  13.653  0.0589  0.7716 -0.7568
   59DOPE   O22 7505   1.616   1.743  13.684 -0.4557  0.9581  0.1647
   59DOPE   C22 7506   1.728   1.525  13.684 -0.3224  0.1484  0.1730
   59DOPE   H2R 7507   1.746   1.463  13.594 -2.8297  0.6579 -0.7436
   59DOPE   H2S 7508   1.695   1.466  13.773 -1.3775  4.0790  2.6250
   59DOPE    C3 7509   1.276   1.584  13.544  0.2867 -0.1380  0.1402
   59DOPE    HX 7510   1.268   1.529  13.448  0.8881 -0.9054  0.5135
   59DOPE    HY 7511   1.196   1.661  13.545  1.2952  0.9440  0.1491
   59DOPE   O31 7512   1.256   1.495  13.656  0.2733 -0.3716 -0.4803
   59DOPE   C31 7513   1.291   1.372  13.659  0.4563  0.4520 -0.1662
   59DOPE   O32 7514   1.359   1.312  13.577 -0.0927  0.1724  0.3791
   59DOPE   C32 7515   1.219   1.300  13.771  0.3812 -0.3095  0.0199
   59DOPE   H2X 7516   1.112   1.329  13.778  0.1897 -1.3478  2.6220
   59DOPE   H2Y 7517   1.246   1.193  13.756 -1.4185 -1.1232  1.9277
   59DOPE   C23 7518   1.866   1.586  13.717  0.1163 -0.3186  0.2609
   59DOPE   H3R 7519   1.864   1.655  13.805 -0.8227  0.4252 -0.3280
   59DOPE   H3S 7520   1.902   1.637  13.626 -0.3036  0.7813  0.6924
   59DOPE   C24 7521   1.962   1.468  13.741  0.1315 -0.8535 -1.0454
   59DOPE   H4R 7522   1.959   1.410  13.646  0.0921  0.5166 -1.9202
   59DOPE   H4S 7523   1.926   1.396  13.817  1.2359  0.8939  1.2605
   59DOPE   C25 7524   2.099   1.519  13.779 -0.2476  0.8217  0.4822
   59DOPE   H5R 7525   2.081   1.586  13.865  1.4984  0.6579  1.0160
   59DOPE   H5S 7526   2.146   1.562  13.688 -0.6246 -2.0557 -1.2170
   59DOPE   C26 7527   2.182   1.392  13.817 -0.2973  0.0876  0.1357
   59DOPE   H6R 7528   2.152   1.307  13.752 -2.0993  0.7816  0.0022
   59DOPE   H6S 7529   2.165   1.376  13.925  4.2839  2.4948  1.5000
   59DOPE   C27 7530   2.330   1.420  13.800  0.4875 -0.2562 -0.8633
   59DOPE   H7R 7531   2.347   1.514  13.855 -0.8285 -0.6710  0.2962
   59DOPE   H7S 7532   2.344   1.441  13.692 -2.4649  3.1453 -0.7707
   59DOPE   C28 7533   2.414   1.303  13.854  0.1436 -0.4505 -0.3389
   59DOPE   H8R 7534   2.411   1.312  13.964  0.7177 -1.4349 -0.2274
   59DOPE   H8S 7535   2.516   1.317  13.814  0.4924  1.6437  1.1643
   59DOPE   C29 7536   2.366   1.169  13.809 -0.5030  0.5453 -0.4956
   59DOPE   H9R 7537   2.372   1.162  13.699  1.8247 -1.3249 -0.3429
   59DOPE  C210 7538   2.316   1.066  13.879  0.0190 -0.6578 -0.0487
   59DOPE  H10R 7539   2.300   0.969  13.829  1.0856 -1.1355  0.5090
   59DOPE  C211 7540   2.285   1.053  14.025 -0.3342 -0.8020  0.4236
   59DOPE  H11R 7541   2.318   1.147  14.074  0.0401 -2.1234  2.8437
   59DOPE  H11S 7542   2.348   0.969  14.060  0.4406  0.2457  1.6656
   59DOPE  C212 7543   2.141   1.023  14.062 -0.2017  0.2519 -0.0995
   59DOPE  H12R 7544   2.066   1.098  14.028 -0.1173  1.1363  1.5787
   59DOPE  H12S 7545   2.138   1.023  14.173 -0.9123 -0.8459 -0.0959
   59DOPE  C213 7546   2.099   0.875  14.014 -0.2665 -0.4521  0.3175
   59DOPE  H13R 7547   2.167   0.790  14.036 -0.7959 -0.7412  0.8974
   59DOPE  H13S 7548   2.086   0.890  13.905  0.5662  0.8944  0.3737
   59DOPE  C214 7549   1.961   0.835  14.061  0.2618  0.6267  0.1608
   59DOPE  H14R 7550   1.915   0.766  13.987  2.9071  0.1190 -1.1205
   59DOPE  H14S 7551   1.892   0.921  14.051 -0.4476 -0.0781 -1.4821
   59DOPE  C215 7552   1.969   0.774  14.204  1.2064 -0.5488 -0.6932
   59DOPE  H15R 7553   2.022   0.846  14.271 -2.7047  1.1946  0.8196
   59DOPE  H15S 7554   2.028   0.680  14.203  1.7274 -0.2487 -2.7188
   59DOPE  C216 7555   1.824   0.757  14.247 -0.2339  0.2158 -0.1133
   59DOPE  H16R 7556   1.784   0.680  14.178  0.0146 -0.0169  0.0035
   59DOPE  H16S 7557   1.762   0.850  14.238 -0.8351  0.1810  2.6599
   59DOPE  C217 7558   1.828   0.695  14.388  0.3345 -0.0536  0.2021
   59DOPE  H17R 7559   1.903   0.738  14.458  1.4100 -2.3224  0.5578
   59DOPE  H17S 7560   1.853   0.588  14.376  0.2820 -0.1646  1.0064
   59DOPE  C218 7561   1.690   0.711  14.456 -0.8765  0.0237  0.1849
   59DOPE  H18R 7562   1.614   0.637  14.422 -0.8096  1.1341 -2.7052
   59DOPE  H18S 7563   1.664   0.818  14.441  0.7647  0.2034 -1.9054
   59DOPE  H18T 7564   1.712   0.690  14.563  1.2278 -2.5987 -0.6118
   59DOPE   C33 7565   1.279   1.345  13.910  0.0112  0.0148 -0.0326
   59DOPE   H3X 7566   1.390   1.352  13.915 -0.1179  2.0843  1.9517
   59DOPE   H3Y 7567   1.246   1.263  13.976  0.8419 -1.2070 -1.0779
   59DOPE   C34 7568   1.204   1.466  13.982  0.0201  0.3919  1.0340
   59DOPE   H4X 7569   1.241   1.554  13.926  1.0208 -0.9124 -0.4535
   59DOPE   H4Y 7570   1.093   1.453  13.977  0.1829 -0.9311  0.3006
   59DOPE   C35 7571   1.268   1.487  14.124  0.2181 -0.6021  0.2840
   59DOPE   H5X 7572   1.372   1.524  14.114 -1.1645  3.1954 -1.5338
   59DOPE   H5Y 7573   1.276   1.386  14.171  0.1020 -0.2981  0.9749
   59DOPE   C36 7574   1.194   1.585  14.217 -0.0094 -0.1367 -1.1662
   59DOPE   H6X 7575   1.093   1.546  14.239  1.3502 -2.5088  1.6138
   59DOPE   H6Y 7576   1.187   1.683  14.164 -0.3730  0.9174  0.7398
   59DOPE   C37 7577   1.274   1.592  14.349 -0.5083  0.2302 -0.0332
   59DOPE   H7X 7578   1.296   1.490  14.389 -0.3696 -0.0095 -0.7114
   59DOPE   H7Y 7579   1.365   1.652  14.328 -1.4997  1.1000 -2.0371
   59DOPE   C38 7580   1.178   1.652  14.456 -0.2354  0.3533  0.4911
   59DOPE   H8X 7581   1.090   1.587  14.476 -0.0081 -0.4958 -1.1001
   59DOPE   H8Y 7582   1.141   1.746  14.409  0.8036 -0.5134 -2.2786
   59DOPE   C39 7583   1.249   1.685  14.580 -0.7823  0.2050 -0.2517
   59DOPE   H9X 7584   1.314   1.774  14.574  2.3790 -1.8721  0.9224
   59DOPE  C310 7585   1.249   1.625  14.702 -0.7691  0.3116 -0.1497
   59DOPE  H10X 7586   1.309   1.674  14.780  0.4027  2.6627 -2.4252
   59DOPE  C311 7587   1.173   1.503  14.755 -0.0431 -0.0119 -0.4738
   59DOPE  H11X 7588   1.163   1.430  14.672  0.0920  0.0175 -0.5150
   59DOPE  H11Y 7589   1.236   1.452  14.831 -0.4700 -1.0294 -0.7902
   59DOPE  C312 7590   1.024   1.528  14.792 -0.3233 -0.0126 -0.0832
   59DOPE  H12X 7591   0.972   1.550  14.697  0.8803 -1.3282 -1.0850
   59DOPE  H12Y 7592   1.010   1.612  14.863 -0.5898 -1.3002  1.4482
   59DOPE  C313 7593   0.966   1.395  14.844  0.2483  0.6848 -0.2468
   59DOPE  H13X 7594   1.012   1.311  14.788  0.1639  1.4063 -1.4170
   59DOPE  H13Y 7595   0.997   1.382  14.950 -0.9057  3.9724  0.5985
   59DOPE  C314 7596   0.813   1.385  14.832  1.2362 -0.2579  0.3673
   59DOPE  H14X 7597   0.771   1.470  14.890  0.8702 -0.4144  0.3308
   59DOPE  H14Y 7598   0.770   1.290  14.871  2.1068 -0.8828 -0.1410
   59DOPE  C315 7599   0.775   1.383  14.688  0.6242 -0.0474  0.1104
   59DOPE  H15X 7600   0.857   1.338  14.628  0.0486  0.5666 -1.1618
   59DOPE  H15Y 7601   0.769   1.488  14.652  0.6497  0.0611  0.4193
   59DOPE  C316 7602   0.641   1.312  14.664  0.8908 -0.4319  0.3304
   59DOPE  H16X 7603   0.643   1.205  14.693  1.8394 -0.2246  1.1183
   59DOPE  H16Y 7604   0.611   1.290  14.560 -2.8091 -0.7657  1.3315
   59DOPE  C317 7605   0.519   1.375  14.739  0.5637 -0.0617 -0.4450
   59DOPE  H17X 7606   0.428   1.318  14.710 -1.1069  1.4032  1.5482
   59DOPE  H17Y 7607   0.521   1.385  14.850 -1.4833  0.1012 -0.3702
   59DOPE  C318 7608   0.495   1.521  14.697 -0.0028  0.4637 -0.2457
   59DOPE  H18X 7609   0.537   1.549  14.598  0.5972  1.9048  0.3924
   59DOPE  H18Y 7610   0.387   1.542  14.685 -0.2748 -1.1196 -0.7542
   59DOPE  H18Z 7611   0.542   1.581  14.777 -1.5597  1.6815 -0.2020
   60DOPE     N 7612   1.569   6.672  12.968 -0.9701  0.1970 -0.5347
   60DOPE   HN1 7613   1.629   6.751  12.935  1.5631 -1.3921  0.0438
   60DOPE   HN2 7614   1.635   6.595  12.986  1.1432  2.3219  1.6145
   60DOPE   HN3 7615   1.506   6.648  12.888 -2.3351 -0.2398  0.6385
   60DOPE   C12 7616   1.498   6.720  13.099 -0.3253 -0.2309 -0.1873
   60DOPE  H12A 7617   1.573   6.737  13.179  0.6772  1.2258 -1.3820
   60DOPE  H12B 7618   1.434   6.635  13.132  0.3340 -0.4787  0.4698
   60DOPE   C11 7619   1.403   6.837  13.075 -0.3793  0.5190  0.0327
   60DOPE  H11A 7620   1.462   6.924  13.037  2.0964 -0.6917  0.9081
   60DOPE  H11B 7621   1.358   6.871  13.171  3.2176  2.4607  1.2448
   60DOPE     P 7622   1.166   6.745  12.997  0.3832  0.0449  0.2998
   60DOPE   O13 7623   1.184   6.601  12.989 -0.1069  0.7815  0.3139
   60DOPE   O14 7624   1.076   6.795  12.888 -0.1024  0.1074 -0.4289
   60DOPE   O11 7625   1.114   6.797  13.139 -0.5127 -0.0678  0.2937
   60DOPE   O12 7626   1.307   6.810  12.971  0.2758 -0.0192 -0.4401
   60DOPE    C1 7627   0.980   6.798  13.178 -1.3740  0.0587 -0.9368
   60DOPE    HA 7628   0.979   6.754  13.280 -0.1955  1.6198 -0.2133
   60DOPE    HB 7629   0.917   6.734  13.113 -3.3218  0.2143  0.7267
   60DOPE    C2 7630   0.907   6.938  13.174 -0.0913 -0.2017  0.8011
   60DOPE    HS 7631   0.943   6.965  13.073  0.6834 -2.6563  0.3615
   60DOPE   O21 7632   0.971   7.029  13.264  0.2764 -0.1034  0.4195
   60DOPE   C21 7633   0.939   7.157  13.240 -0.3619  0.3589 -0.9216
   60DOPE   O22 7634   0.889   7.197  13.137 -0.1621 -0.2333  0.3730
   60DOPE   C22 7635   0.960   7.243  13.367 -0.4814  0.2054 -0.3871
   60DOPE   H2R 7636   0.981   7.349  13.341  0.7657  0.2542  0.7394
   60DOPE   H2S 7637   1.048   7.206  13.424 -1.1082  0.7812  0.9890
   60DOPE    C3 7638   0.754   6.919  13.188  0.8295 -0.4745  0.1320
   60DOPE    HX 7639   0.726   6.854  13.102  0.7162  1.6916 -1.5397
   60DOPE    HY 7640   0.706   7.018  13.172  0.3963 -0.6837  0.1139
   60DOPE   O31 7641   0.713   6.870  13.320  0.0725  0.5427 -0.2141
   60DOPE   C31 7642   0.647   6.753  13.324  0.8428 -0.3659  0.1208
   60DOPE   O32 7643   0.625   6.681  13.226 -0.1281 -0.7217 -0.1234
   60DOPE   C32 7644   0.600   6.711  13.462 -0.0427  0.5248 -0.2313
   60DOPE   H2X 7645   0.679   6.648  13.508 -0.1015 -0.9351 -2.0170
   60DOPE   H2Y 7646   0.571   6.800  13.522 -1.6209  0.5889 -1.0249
   60DOPE   C23 7647   0.835   7.234  13.445  1.0777  0.6894  0.2743
   60DOPE   H3R 7648   0.750   7.262  13.379  0.5640 -1.7067 -0.1768
   60DOPE   H3S 7649   0.863   7.313  13.518  2.7885 -0.0618  0.4775
   60DOPE   C24 7650   0.811   7.109  13.529  0.8666  0.1441  0.2700
   60DOPE   H4R 7651   0.884   7.103  13.612 -0.2952  0.9240  1.3873
   60DOPE   H4S 7652   0.825   7.018  13.467 -0.4011 -1.5538  2.3183
   60DOPE   C25 7653   0.684   7.095  13.611  0.1794 -0.4128  0.2717
   60DOPE   H5R 7654   0.683   6.993  13.655  1.1371 -0.4795  0.1473
   60DOPE   H5S 7655   0.590   7.103  13.551  2.1060 -2.7790 -3.4797
   60DOPE   C26 7656   0.681   7.177  13.742  0.5173 -0.8625 -0.0997
   60DOPE   H6R 7657   0.675   7.285  13.717  0.0879 -0.2705  2.2639
   60DOPE   H6S 7658   0.774   7.153  13.797 -0.5281  0.5220  2.4155
   60DOPE   C27 7659   0.588   7.118  13.843 -0.7461  0.6500 -0.1876
   60DOPE   H7R 7660   0.601   7.009  13.858 -2.3836  0.4211 -0.3245
   60DOPE   H7S 7661   0.487   7.130  13.798  0.1013  0.4701 -2.2692
   60DOPE   C28 7662   0.577   7.195  13.972  0.1546  0.4746  0.1283
   60DOPE   H8R 7663   0.546   7.301  13.956 -0.8735  0.1681  0.0603
   60DOPE   H8S 7664   0.676   7.199  14.024  0.8929  0.2370 -1.2023
   60DOPE   C29 7665   0.477   7.123  14.062 -0.6554  0.1098 -0.0933
   60DOPE   H9R 7666   0.524   7.058  14.137 -1.6485  0.4506  0.8633
   60DOPE  C210 7667   0.342   7.147  14.079  0.0203 -0.2086 -0.6850
   60DOPE  H10R 7668   0.279   7.097  14.153  2.4424  0.2930  1.8748
   60DOPE  C211 7669   0.272   7.258  14.005 -0.3807 -0.5349 -0.0935
   60DOPE  H11R 7670   0.176   7.213  13.973 -0.4741 -1.0277  0.8412
   60DOPE  H11S 7671   0.328   7.292  13.915 -0.0170 -0.3965  0.1795
   60DOPE  C212 7672   0.250   7.363  14.108  0.3588 -0.1348 -0.1046
   60DOPE  H12R 7673   0.232   7.462  14.060  1.0200  0.8676  1.6168
   60DOPE  H12S 7674   0.336   7.387  14.174 -0.1853 -0.2677  0.6722
   60DOPE  C213 7675   0.140   7.331  14.212  0.2270 -0.1542 -0.8337
   60DOPE  H13R 7676   0.153   7.247  14.284 -2.9022 -0.7998 -0.8630
   60DOPE  H13S 7677   0.057   7.301  14.144  0.8280  2.7253 -2.9850
   60DOPE  C214 7678   0.103   7.463  14.285 -0.2404 -0.3935 -0.3392
   60DOPE  H14R 7679   0.073   7.542  14.212 -0.4637 -0.4249 -0.2823
   60DOPE  H14S 7680   0.198   7.498  14.329 -0.6461  1.2613 -0.6971
   60DOPE  C215 7681  -0.016   7.456  14.379 -0.0148 -0.2338  0.1699
   60DOPE  H15R 7682  -0.010   7.364  14.441  0.2080  2.2563  4.1673
   60DOPE  H15S 7683  -0.114   7.454  14.327  0.2711 -1.2956 -0.3552
   60DOPE  C216 7684  -0.024   7.579  14.467 -0.6404  0.3712  0.2520
   60DOPE  H16R 7685  -0.066   7.660  14.404 -0.3760  0.4751  0.2080
   60DOPE  H16S 7686   0.080   7.605  14.496 -0.0360 -2.3699  0.8257
   60DOPE  C217 7687  -0.114   7.562  14.588  0.1152  0.4507  0.2802
   60DOPE  H17R 7688  -0.104   7.460  14.630  1.9122  0.1714 -0.7205
   60DOPE  H17S 7689  -0.216   7.575  14.546 -0.3209  3.8520  2.0439
   60DOPE  C218 7690  -0.078   7.664  14.698 -0.5714  0.3624  0.4675
   60DOPE  H18R 7691  -0.166   7.672  14.767 -1.6859 -0.3319 -0.8396
   60DOPE  H18S 7692  -0.058   7.769  14.665  0.5865  0.4683  1.4496
   60DOPE  H18T 7693   0.008   7.626  14.757  1.5797  0.6184 -2.3295
   60DOPE   C33 7694   0.475   6.625  13.446 -0.2658  0.9928 -0.5010
   60DOPE   H3X 7695   0.491   6.522  13.409 -2.4023  0.3853  0.1375
   60DOPE   H3Y 7696   0.402   6.669  13.375  1.6514  2.6264 -1.5407
   60DOPE   C34 7697   0.399   6.607  13.580 -0.3023  0.1134 -1.2393
   60DOPE   H4X 7698   0.352   6.704  13.606  1.6970  0.8256  0.0298
   60DOPE   H4Y 7699   0.322   6.527  13.578 -1.2625  0.7937  2.0524
   60DOPE   C35 7700   0.497   6.588  13.696 -0.2550  0.2923  0.1529
   60DOPE   H5X 7701   0.551   6.682  13.719 -0.4873  0.4975 -0.1403
   60DOPE   H5Y 7702   0.579   6.520  13.664 -0.1947 -0.0887  1.0817
   60DOPE   C36 7703   0.436   6.522  13.824  0.5906  0.4157  0.2738
   60DOPE   H6X 7704   0.521   6.479  13.881  0.4382 -1.4727 -0.8265
   60DOPE   H6Y 7705   0.368   6.438  13.797  0.9506 -0.1864  1.2175
   60DOPE   C37 7706   0.371   6.626  13.915  0.4833 -0.1541 -0.2049
   60DOPE   H7X 7707   0.317   6.702  13.854  1.7218 -0.4777 -1.7703
   60DOPE   H7Y 7708   0.297   6.578  13.983  1.1033 -0.9966 -0.1105
   60DOPE   C38 7709   0.472   6.702  14.005  0.0261  0.6324  0.3999
   60DOPE   H8X 7710   0.428   6.802  14.022  1.9000  1.6881 -0.5560
   60DOPE   H8Y 7711   0.567   6.717  13.950  0.9522  0.2065  1.8064
   60DOPE   C39 7712   0.512   6.625  14.126 -0.6068  0.3522  0.2470
   60DOPE   H9X 7713   0.564   6.531  14.106  1.7236  1.5977  0.0323
   60DOPE  C310 7714   0.497   6.655  14.259  0.1515  0.3918  0.4022
   60DOPE  H10X 7715   0.537   6.603  14.347 -2.6354  2.3756  3.0517
   60DOPE  C311 7716   0.425   6.782  14.298 -0.3038 -1.2931 -0.0560
   60DOPE  H11X 7717   0.486   6.867  14.263  0.8207 -2.3718 -0.7964
   60DOPE  H11Y 7718   0.328   6.788  14.244 -0.9237 -0.6046  1.0999
   60DOPE  C312 7719   0.406   6.790  14.442  0.2418  0.2130 -0.0798
   60DOPE  H12X 7720   0.393   6.898  14.465  4.8205  1.1612 -0.9170
   60DOPE  H12Y 7721   0.506   6.785  14.492 -0.8789  0.2169  2.3361
   60DOPE  C313 7722   0.318   6.682  14.508  0.1405  0.1141  0.0413
   60DOPE  H13X 7723   0.365   6.582  14.493  0.1067 -0.0694  1.0658
   60DOPE  H13Y 7724   0.308   6.716  14.613  0.1900 -0.0709  0.1069
   60DOPE  C314 7725   0.180   6.665  14.440  0.3530 -0.4924 -0.4358
   60DOPE  H14X 7726   0.187   6.620  14.339 -1.9660  0.9655 -1.3465
   60DOPE  H14Y 7727   0.138   6.766  14.420 -1.2956 -1.0554  0.0033
   60DOPE  C315 7728   0.078   6.578  14.514 -0.5359 -0.2713 -0.6346
   60DOPE  H15X 7729   0.139   6.494  14.554  1.9049  1.2474 -0.9292
   60DOPE  H15Y 7730   0.004   6.539  14.441 -2.5678 -0.0861  1.2168
   60DOPE  C316 7731   0.015   6.660  14.627 -0.1875 -0.1285  0.1368
   60DOPE  H16X 7732  -0.066   6.721  14.583 -0.5855 -0.8688 -0.1774
   60DOPE  H16Y 7733   0.088   6.723  14.682  0.8319  0.6517 -2.0062
   60DOPE  C317 7734  -0.046   6.567  14.729 -1.1376  0.4214 -0.5618
   60DOPE  H17X 7735  -0.138   6.514  14.694 -1.0385  0.2829 -0.6142
   60DOPE  H17Y 7736   0.036   6.497  14.756  0.8954  2.0757 -2.1530
   60DOPE  C318 7737  -0.075   6.633  14.863  0.7724 -0.3775  0.1631
   60DOPE  H18X 7738   0.004   6.706  14.893  0.2705  0.2810 -0.0978
   60DOPE  H18Y 7739  -0.160   6.701  14.841  1.5350  1.3534  2.2072
   60DOPE  H18Z 7740  -0.093   6.560  14.944 -0.2986 -2.4869 -1.8841
   6123SM     N 7741   5.791   4.095  17.374  0.7942 -0.0892 -1.1400
   6123SM   C15 7742   5.765   4.116  17.236  0.1888  0.5030  0.8995
   6123SM  H15A 7743   5.840   4.176  17.187 -0.3446 -0.9670 -1.9732
   6123SM  H15B 7744   5.673   4.171  17.225  0.1469  0.1298 -1.0661
   6123SM  H15C 7745   5.762   4.022  17.183 -0.3694  1.4541 -0.8351
   6123SM   C14 7746   5.677   4.010  17.436  0.1041  0.2273  0.2629
   6123SM  H14A 7747   5.677   4.014  17.544  1.4883  0.2541  0.2902
   6123SM  H14B 7748   5.677   3.909  17.399 -1.8727 -0.1821  1.2786
   6123SM  H14C 7749   5.584   4.057  17.406 -0.5433 -0.1535  1.6270
   6123SM   C13 7750   5.917   4.012  17.394 -0.0917 -0.1954 -0.8274
   6123SM  H13A 7751   5.926   3.936  17.318  0.0421 -1.0532  0.0286
   6123SM  H13B 7752   5.912   3.957  17.486 -2.6459 -0.9349 -1.3461
   6123SM  H13C 7753   6.003   4.078  17.392 -0.5565  0.4305 -0.6189
   6123SM   C12 7754   5.797   4.226  17.447 -0.8636  0.2089  0.1637
   6123SM  H12A 7755   5.852   4.300  17.393  0.8639 -1.6954 -0.7979
   6123SM  H12B 7756   5.843   4.201  17.542  0.3054 -1.4225 -0.7791
   6123SM   C11 7757   5.663   4.309  17.463  0.3846 -0.7684  0.4667
   6123SM  H11A 7758   5.628   4.328  17.359 -0.3466 -0.9913  0.6673
   6123SM  H11B 7759   5.683   4.407  17.512  1.2970 -1.6885  2.0096
   6123SM     P 7760   5.418   4.230  17.489 -0.1050 -0.1441  0.2772
   6123SM   O13 7761   5.357   4.101  17.526 -0.2610 -0.5955 -0.1687
   6123SM   O14 7762   5.340   4.350  17.524 -0.3316  0.1653  0.0491
   6123SM   O11 7763   5.431   4.224  17.328  0.0393 -0.1039  0.2195
   6123SM   O12 7764   5.566   4.250  17.548 -0.3307 -0.0310 -0.0175
   6123SM   C1S 7765   5.347   4.301  17.244  0.0938 -0.0789 -0.2231
   6123SM   H1S 7766   5.383   4.407  17.249  0.2486 -0.1648  0.5418
   6123SM   H1T 7767   5.248   4.310  17.293  0.3380 -0.7635  0.3991
   6123SM    NF 7768   5.250   4.360  17.025  0.2493 -0.1420  0.5030
   6123SM   HNF 7769   5.159   4.330  16.998  0.7910 -1.7891  0.3935
   6123SM   C2S 7770   5.324   4.258  17.096 -0.3668  0.3466  0.8294
   6123SM   H2S 7771   5.426   4.249  17.053 -0.6347  0.4558  0.1465
   6123SM   C3S 7772   5.255   4.116  17.080  0.0110  0.0912 -1.1909
   6123SM   H3S 7773   5.146   4.122  17.100 -0.1267 -1.4920 -1.3466
   6123SM    O3 7774   5.306   4.029  17.174 -0.6352 -0.2076 -0.3190
   6123SM   HO3 7775   5.343   4.089  17.238  0.0146 -0.9328 -0.0025
   6123SM   C4S 7776   5.272   4.062  16.944 -0.5152 -0.2360  0.6797
   6123SM   H4S 7777   5.377   4.039  16.920 -0.3634 -2.1643  2.8636
   6123SM   C5S 7778   5.178   4.037  16.848  0.1056  0.3143  0.4932
   6123SM   H5S 7779   5.073   4.048  16.877  0.5855 -1.1735  3.0996
   6123SM   C6S 7780   5.206   3.977  16.712  0.1660 -0.0694  0.6291
   6123SM   H6S 7781   5.142   3.891  16.683  2.4785 -2.4021  2.0056
   6123SM   H6T 7782   5.309   3.935  16.700  0.8436  1.9989 -1.9432
   6123SM   C7S 7783   5.214   4.086  16.602  0.0910 -0.3619  0.2155
   6123SM   H7S 7784   5.299   4.156  16.616  1.2556 -1.3540 -1.6137
   6123SM   H7T 7785   5.122   4.148  16.595 -1.0618 -2.1527 -1.1284
   6123SM   C8S 7786   5.231   4.036  16.454 -0.2527 -0.4932 -0.2168
   6123SM   H8S 7787   5.147   3.968  16.429  0.1100 -1.4425  1.0299
   6123SM   H8T 7788   5.322   3.972  16.456 -0.0713 -0.3190 -1.6732
   6123SM   C9S 7789   5.261   4.148  16.354  0.0315 -0.0140  0.1764
   6123SM   H9S 7790   5.343   4.217  16.385  0.0216 -1.1718  3.1494
   6123SM   H9T 7791   5.172   4.212  16.333 -1.8065 -2.5900 -0.2881
   6123SM  C10S 7792   5.304   4.081  16.224 -0.8097  0.3505  0.2098
   6123SM  H10S 7793   5.219   4.015  16.197 -1.0508  0.0740  1.5646
   6123SM  H10T 7794   5.391   4.016  16.248 -0.7868 -0.3269 -1.5794
   6123SM  C11S 7795   5.345   4.167  16.111 -0.4125  0.6107 -0.4685
   6123SM  H11S 7796   5.425   4.236  16.143 -0.1555  0.8338 -1.5471
   6123SM  H11T 7797   5.253   4.221  16.080 -1.7957 -1.2572  0.1721
   6123SM  C12S 7798   5.387   4.083  15.988  0.2348  0.3409  0.9996
   6123SM  H12S 7799   5.303   4.019  15.952  1.4623 -0.1409 -1.2543
   6123SM  H12T 7800   5.481   4.035  16.025  0.1336 -0.0778  0.7237
   6123SM  C13S 7801   5.419   4.182  15.870 -0.4909 -0.4006  0.7412
   6123SM  H13S 7802   5.325   4.241  15.859  0.6676  1.5623  0.9025
   6123SM  H13T 7803   5.431   4.128  15.774  2.2331  1.6987 -0.2294
   6123SM  C14S 7804   5.543   4.276  15.897 -0.3332 -0.1179  0.3215
   6123SM  H14S 7805   5.633   4.215  15.921 -0.5489 -0.9501 -0.9115
   6123SM  H14T 7806   5.514   4.337  15.985  0.4350 -1.3173  1.4569
   6123SM  C15S 7807   5.593   4.349  15.776 -1.2192  0.1894 -0.2089
   6123SM  H15S 7808   5.580   4.274  15.695 -0.4142 -2.3722  1.9025
   6123SM  H15T 7809   5.703   4.368  15.782 -1.2180  0.0785  0.0993
   6123SM  C16S 7810   5.510   4.476  15.748 -0.0053 -0.0540 -0.4210
   6123SM  H16S 7811   5.517   4.546  15.833 -0.1965 -0.5748  0.0290
   6123SM  H16T 7812   5.403   4.449  15.728  0.1764 -3.1944  2.0571
   6123SM  C17S 7813   5.562   4.547  15.628 -0.3674 -0.2356  0.3858
   6123SM  H17S 7814   5.570   4.493  15.531 -1.9235  0.4303 -0.1404
   6123SM  H17T 7815   5.662   4.592  15.645 -0.8827  0.3449  1.9957
   6123SM  C18S 7816   5.468   4.661  15.589 -0.0811 -0.2250 -0.3414
   6123SM  H18S 7817   5.369   4.611  15.582 -0.4364  0.6612 -2.2181
   6123SM  H18T 7818   5.477   4.711  15.490 -0.4771 -0.3301 -0.4310
   6123SM  H18U 7819   5.475   4.735  15.673  2.4574 -1.4697  0.6424
   6123SM   C1F 7820   5.281   4.483  16.996 -0.3290 -0.0720 -0.8622
   6123SM    OF 7821   5.379   4.539  17.045  0.6770  0.7922 -0.3856
   6123SM   C2F 7822   5.184   4.560  16.913 -0.4980 -0.3085 -0.4673
   6123SM   H2F 7823   5.219   4.665  16.922 -1.2217 -0.1808  1.0135
   6123SM   H2G 7824   5.077   4.553  16.939  0.1929  3.5731  5.3536
   6123SM   C3F 7825   5.208   4.521  16.763  0.4738 -0.6241 -0.1174
   6123SM   H3F 7826   5.187   4.413  16.747  0.5438 -0.8301  1.1056
   6123SM   H3G 7827   5.314   4.542  16.740  0.3487  0.5519  0.2914
   6123SM   C4F 7828   5.111   4.602  16.667  0.3606 -0.9557 -0.0185
   6123SM   H4F 7829   5.137   4.710  16.669 -1.1911 -0.5590  0.2115
   6123SM   H4G 7830   5.011   4.595  16.714 -0.4255 -0.1542 -1.5164
   6123SM   C5F 7831   5.090   4.560  16.517 -0.3021  0.0899 -0.4853
   6123SM   H5F 7832   5.011   4.618  16.464 -0.7216 -0.7384 -0.7871
   6123SM   H5G 7833   5.065   4.452  16.524  0.9815 -0.2130 -0.3265
   6123SM   C6F 7834   5.216   4.561  16.433 -0.0273  0.0971  0.2952
   6123SM   H6F 7835   5.290   4.502  16.490 -0.5988  0.9616  2.0155
   6123SM   H6G 7836   5.260   4.663  16.428  0.1184  0.1981  2.5842
   6123SM   C7F 7837   5.189   4.510  16.286 -0.0724  0.1933  0.1566
   6123SM   H7F 7838   5.124   4.420  16.289  0.7158 -0.4055 -0.2323
   6123SM   H7G 7839   5.283   4.479  16.236 -0.0185 -0.7867  0.8365
   6123SM   C8F 7840   5.114   4.612  16.200  0.9868  0.4426  0.2530
   6123SM   H8F 7841   5.153   4.714  16.222  1.6914  0.5499 -1.3837
   6123SM   H8G 7842   5.005   4.612  16.223  0.5067 -3.2904 -1.2689
   6123SM   C9F 7843   5.137   4.578  16.049  0.2772 -0.0179  0.5342
   6123SM   H9F 7844   5.141   4.468  16.043 -0.5452 -0.0155 -0.3401
   6123SM   H9G 7845   5.238   4.611  16.017 -1.7794  2.6774 -4.3814
   6123SM  C10F 7846   5.034   4.635  15.949  0.3342  0.0536 -0.1532
   6123SM  H10F 7847   5.041   4.745  15.963  0.4834 -0.1961  2.1278
   6123SM  H10G 7848   4.929   4.608  15.976  0.0694  0.9715 -0.2395
   6123SM  C11F 7849   5.069   4.599  15.799 -0.2778 -0.2583 -0.8348
   6123SM  H11F 7850   5.050   4.491  15.784 -0.7369 -0.9066  3.1332
   6123SM  H11G 7851   5.174   4.625  15.776 -0.3444 -0.8762 -1.8960
   6123SM  C12F 7852   4.976   4.678  15.708 -0.6514  0.4708 -0.7345
   6123SM  H12F 7853   5.002   4.786  15.702 -0.8289  0.4333 -3.1664
   6123SM  H12G 7854   4.877   4.675  15.756 -0.6462  1.6273 -0.6213
   6123SM  C13F 7855   4.973   4.622  15.569 -0.2343  0.2120  1.1407
   6123SM  H13F 7856   4.945   4.514  15.575  2.2571 -0.6541 -0.9203
   6123SM  H13G 7857   5.071   4.621  15.517 -0.4818 -0.7492  0.6607
   6123SM  C14F 7858   4.867   4.689  15.483 -0.3678 -0.2259 -0.3098
   6123SM  H14F 7859   4.887   4.797  15.469 -0.4496 -0.0400  0.8914
   6123SM  H14G 7860   4.769   4.672  15.531  0.0212 -2.2979 -0.1300
   6123SM  C15F 7861   4.867   4.640  15.334  0.0288  0.6702  0.0597
   6123SM  H15F 7862   4.971   4.649  15.296  0.3089  0.5741  0.7680
   6123SM  H15G 7863   4.795   4.703  15.279 -1.3243  0.0521  1.0638
   6123SM  C16F 7864   4.825   4.493  15.320  0.9545 -0.3952 -0.2163
   6123SM  H16F 7865   4.715   4.491  15.335  0.8912  0.9887 -0.3750
   6123SM  H16G 7866   4.877   4.435  15.399  0.2087  0.5723  1.0149
   6123SM  C17F 7867   4.852   4.435  15.180 -0.1671 -0.0723 -0.0308
   6123SM  H17F 7868   4.949   4.477  15.148  1.7497 -2.6883  1.8509
   6123SM  H17G 7869   4.773   4.474  15.113 -0.6346  0.9139  1.0506
   6123SM  C18F 7870   4.853   4.286  15.169  0.4560 -0.3095 -0.8125
   6123SM  H18F 7871   4.761   4.240  15.211  0.5841  1.4574  1.5924
   6123SM  H18G 7872   4.938   4.265  15.238 -0.7331  1.7943  1.4236
   6123SM  C19F 7873   4.893   4.229  15.037 -0.3105  0.5043  0.4302
   6123SM  H19F 7874   4.999   4.262  15.023 -1.3921  3.8614 -0.7469
   6123SM  H19G 7875   4.826   4.261  14.954  0.1610 -0.6362 -0.4256
   6123SM  C20F 7876   4.883   4.074  15.045  0.3754  0.0591 -0.5965
   6123SM  H20F 7877   4.777   4.043  15.044  0.6695 -0.9620 -0.7600
   6123SM  H20G 7878   4.921   4.055  15.147  1.4627  0.9114 -0.8140
   6123SM  C21F 7879   4.958   4.008  14.933  0.0117 -0.2980 -0.8447
   6123SM  H21F 7880   5.054   4.064  14.938 -0.5982  0.7403 -0.2349
   6123SM  H21G 7881   4.899   4.020  14.840  0.0410 -1.7308 -1.0678
   6123SM  C22F 7882   4.971   3.858  14.958  0.0168 -0.4299 -0.3533
   6123SM  H22F 7883   4.868   3.817  14.952  0.6601 -2.3818  0.9878
   6123SM  H22G 7884   5.007   3.830  15.059  0.4146  2.1301  0.3064
   6123SM  C23F 7885   5.069   3.795  14.856 -0.4755  0.7259  0.6407
   6123SM  H23F 7886   5.072   3.864  14.769 -3.3917  0.1714 -0.0084
   6123SM  H23G 7887   5.037   3.694  14.824 -0.4622  0.3814  1.6819
   6123SM  H23H 7888   5.170   3.773  14.897 -1.4766 -1.4937  2.0725
   6223SM     N 7889   4.739   3.269  17.529 -0.9555 -0.0669 -0.1932
   6223SM   C15 7890   4.801   3.261  17.666  0.0459  0.4861 -0.4699
   6223SM  H15A 7891   4.893   3.317  17.675  0.1122  0.5216 -1.2915
   6223SM  H15B 7892   4.813   3.156  17.687  0.8570  0.2744 -1.8446
   6223SM  H15C 7893   4.721   3.294  17.731  0.7590  0.5267  0.4099
   6223SM   C14 7894   4.813   3.171  17.440  0.0150 -0.4738 -0.7596
   6223SM  H14A 7895   4.913   3.211  17.441 -0.0218 -0.2153  2.2613
   6223SM  H14B 7896   4.787   3.168  17.335  1.1444 -0.3264 -1.0614
   6223SM  H14C 7897   4.799   3.073  17.483 -1.0198 -0.0801 -0.1563
   6223SM   C13 7898   4.597   3.221  17.534  0.8254  0.2641  0.6769
   6223SM  H13A 7899   4.563   3.222  17.431  0.9647 -0.2651  0.6237
   6223SM  H13B 7900   4.534   3.289  17.589 -1.1022 -1.3053  0.5473
   6223SM  H13C 7901   4.586   3.121  17.572  0.1465 -0.7094 -1.8362
   6223SM   C12 7902   4.745   3.408  17.477  0.0520  0.1678  0.0013
   6223SM  H12A 7903   4.710   3.467  17.560 -1.4860 -0.8054  0.0875
   6223SM  H12B 7904   4.676   3.418  17.395  0.7809  1.5660 -0.4770
   6223SM   C11 7905   4.884   3.460  17.419 -0.6053 -0.6753  0.5191
   6223SM  H11A 7906   4.888   3.571  17.410 -1.3697 -0.7601 -1.3149
   6223SM  H11B 7907   4.891   3.415  17.318 -2.1115  1.5807 -0.6956
   6223SM     P 7908   5.137   3.372  17.457  0.5841 -0.1254  0.0741
   6223SM   O13 7909   5.233   3.419  17.553  0.1109 -0.6218 -0.2988
   6223SM   O14 7910   5.133   3.231  17.416 -0.4138 -0.4686 -0.4667
   6223SM   O11 7911   5.155   3.460  17.322  0.0657 -0.1105 -0.7103
   6223SM   O12 7912   4.995   3.419  17.498 -0.1110 -0.7504 -1.0903
   6223SM   C1S 7913   5.265   3.424  17.233  0.6555 -0.8275 -0.8413
   6223SM   H1S 7914   5.317   3.331  17.264  0.5719 -1.3937 -2.3222
   6223SM   H1T 7915   5.340   3.505  17.241 -2.5524  2.4978 -1.8500
   6223SM    NF 7916   5.341   3.368  17.012  0.4548  0.8278 -0.3801
   6223SM   HNF 7917   5.393   3.433  16.957  1.5355 -0.7843 -1.3359
   6223SM   C2S 7918   5.220   3.407  17.085  0.3929 -0.2506  0.2994
   6223SM   H2S 7919   5.149   3.322  17.087  0.4329 -0.2762  1.0352
   6223SM   C3S 7920   5.165   3.539  17.025 -0.1723  0.4152 -0.4523
   6223SM   H3S 7921   5.244   3.615  17.045  0.4017 -0.2632 -0.0979
   6223SM    O3 7922   5.057   3.595  17.092 -0.7285  0.5952  0.3647
   6223SM   HO3 7923   5.056   3.540  17.170 -0.2062 -0.7070 -0.5007
   6223SM   C4S 7924   5.120   3.528  16.887  0.1640  0.2200  0.1784
   6223SM   H4S 7925   5.028   3.468  16.892  0.2213  0.2289  3.3921
   6223SM   C5S 7926   5.175   3.584  16.778  0.2731  0.1261 -0.3553
   6223SM   H5S 7927   5.261   3.650  16.795 -0.3951  1.4314 -1.8350
   6223SM   C6S 7928   5.129   3.580  16.632 -0.0596  0.0939  0.0597
   6223SM   H6S 7929   5.085   3.678  16.603  0.4543  0.7639  1.4461
   6223SM   H6T 7930   5.060   3.496  16.610 -0.5716  1.2291 -3.2052
   6223SM   C7S 7931   5.245   3.565  16.527 -0.0811 -0.4332  0.3833
   6223SM   H7S 7932   5.289   3.463  16.522  0.8787  0.0393 -2.7767
   6223SM   H7T 7933   5.331   3.633  16.544 -0.1612  0.1293 -1.2855
   6223SM   C8S 7934   5.190   3.608  16.391 -0.3510  0.8432  0.3730
   6223SM   H8S 7935   5.151   3.707  16.422 -0.6170  0.0735  2.6936
   6223SM   H8T 7936   5.101   3.545  16.366 -1.1581  1.2945  1.9292
   6223SM   C9S 7937   5.296   3.621  16.285 -0.4324  0.2939  0.1428
   6223SM   H9S 7938   5.335   3.518  16.267  1.1337  0.9963 -0.6748
   6223SM   H9T 7939   5.380   3.680  16.327 -0.2242 -1.2893  2.1179
   6223SM  C10S 7940   5.250   3.667  16.145  0.0125 -0.3086  0.3294
   6223SM  H10S 7941   5.203   3.768  16.152  1.6778  0.4751  0.7852
   6223SM  H10T 7942   5.171   3.594  16.121  0.0137 -0.6529  1.3408
   6223SM  C11S 7943   5.364   3.677  16.043  0.0061 -0.0973  0.0323
   6223SM  H11S 7944   5.409   3.579  16.017  0.1865  0.2988 -1.2183
   6223SM  H11T 7945   5.441   3.745  16.085  0.7604  0.0693 -1.5279
   6223SM  C12S 7946   5.322   3.734  15.906 -0.3911  0.2000 -0.0270
   6223SM  H12S 7947   5.246   3.815  15.912 -1.2222 -0.5212 -0.6444
   6223SM  H12T 7948   5.265   3.656  15.852 -2.8759  0.0204  2.6099
   6223SM  C13S 7949   5.448   3.774  15.820  0.1998 -0.4157 -0.9586
   6223SM  H13S 7950   5.511   3.686  15.793  0.0150 -0.9269  0.2243
   6223SM  H13T 7951   5.494   3.857  15.879 -2.5788  0.0859  0.6621
   6223SM  C14S 7952   5.414   3.842  15.684  0.0700 -0.4517  0.0217
   6223SM  H14S 7953   5.464   3.940  15.669 -0.7823  0.2173  1.3376
   6223SM  H14T 7954   5.307   3.873  15.678 -0.3629 -1.7337  0.7403
   6223SM  C15S 7955   5.458   3.766  15.555  0.5849  0.0585 -0.5655
   6223SM  H15S 7956   5.408   3.668  15.566  1.8781 -0.4783  0.7434
   6223SM  H15T 7957   5.569   3.764  15.557  0.5841  0.1608  1.1219
   6223SM  C16S 7958   5.412   3.841  15.430  0.2244  0.1959  0.2380
   6223SM  H16S 7959   5.456   3.942  15.417  0.9949 -0.2666 -0.8819
   6223SM  H16T 7960   5.301   3.849  15.434  0.3694  1.9215  1.7092
   6223SM  C17S 7961   5.450   3.764  15.308 -0.4605  1.1318  0.2641
   6223SM  H17S 7962   5.405   3.663  15.315  0.8517  0.6431  2.6357
   6223SM  H17T 7963   5.558   3.746  15.324 -0.8370 -0.7620  0.9600
   6223SM  C18S 7964   5.423   3.844  15.177  0.4570 -0.2487 -0.0283
   6223SM  H18S 7965   5.490   3.932  15.182  1.3302 -0.9560  1.6316
   6223SM  H18T 7966   5.313   3.860  15.181  0.0130 -3.0253  1.9492
   6223SM  H18U 7967   5.453   3.787  15.086 -2.6790  0.6280 -1.7673
   6223SM   C1F 7968   5.390   3.251  17.024 -0.2165 -0.3203 -0.5946
   6223SM    OF 7969   5.318   3.156  17.063  0.3621 -0.2229  0.3625
   6223SM   C2F 7970   5.541   3.233  17.004  0.1827 -0.9069 -0.3267
   6223SM   H2F 7971   5.583   3.198  17.100 -0.7210  0.8675  0.7776
   6223SM   H2G 7972   5.591   3.332  16.991 -0.7499  0.1431  3.0828
   6223SM   C3F 7973   5.569   3.152  16.879 -0.1577  0.7741 -0.0528
   6223SM   H3F 7974   5.498   3.066  16.877  2.2620 -1.3534 -1.2390
   6223SM   H3G 7975   5.670   3.106  16.886 -1.3848 -2.2356 -0.5496
   6223SM   C4F 7976   5.570   3.229  16.749 -0.4201  0.3443  0.6711
   6223SM   H4F 7977   5.666   3.284  16.736  0.4918 -1.5135 -0.9369
   6223SM   H4G 7978   5.484   3.299  16.755 -0.3674  0.7069 -1.7543
   6223SM   C5F 7979   5.543   3.151  16.617  0.0762  0.5111 -0.2492
   6223SM   H5F 7980   5.447   3.097  16.627 -0.1509  0.9592  0.0478
   6223SM   H5G 7981   5.633   3.086  16.627 -0.0035  0.1644 -1.6423
   6223SM   C6F 7982   5.552   3.232  16.485  0.7660 -0.1671 -0.2557
   6223SM   H6F 7983   5.633   3.308  16.487 -1.6730  2.6221 -1.0545
   6223SM   H6G 7984   5.459   3.293  16.485  0.7607 -0.1733  0.4476
   6223SM   C7F 7985   5.565   3.160  16.352 -0.5457  0.3043 -0.2763
   6223SM   H7F 7986   5.468   3.109  16.334 -0.9130  0.4580  1.1228
   6223SM   H7G 7987   5.652   3.091  16.354 -1.2621 -0.9562 -4.1416
   6223SM   C8F 7988   5.589   3.265  16.243  0.1182 -0.2131  0.3035
   6223SM   H8F 7989   5.685   3.313  16.273  1.5891 -1.0543 -2.6111
   6223SM   H8G 7990   5.514   3.346  16.249  0.6779  0.4844 -1.5283
   6223SM   C9F 7991   5.594   3.207  16.099  0.0125 -0.7562  0.1089
   6223SM   H9F 7992   5.501   3.149  16.080 -0.0961 -1.5786  2.7741
   6223SM   H9G 7993   5.677   3.135  16.081 -1.0495 -1.8310 -0.6925
   6223SM  C10F 7994   5.599   3.311  15.990  0.3821  0.1611  0.3299
   6223SM  H10F 7995   5.689   3.375  16.004  0.3934  0.1163  0.4680
   6223SM  H10G 7996   5.516   3.384  16.001  1.1420  1.0270  0.3567
   6223SM  C11F 7997   5.591   3.263  15.847 -0.0264 -0.6061 -0.4428
   6223SM  H11F 7998   5.490   3.218  15.835  0.4199 -1.6382 -0.4334
   6223SM  H11G 7999   5.670   3.186  15.836  0.5816 -0.1552  0.6352
   6223SM  C12F 8000   5.603   3.378  15.747  0.0397  0.1113  0.2074
   6223SM  H12F 8001   5.690   3.443  15.768  1.0976 -1.6493  1.6090
   6223SM  H12G 8002   5.512   3.441  15.748  0.6111  0.9534  0.8157
   6223SM  C13F 8003   5.626   3.335  15.601 -0.7557 -0.4555 -0.5096
   6223SM  H13F 8004   5.542   3.265  15.582  0.8559 -2.6841  0.1234
   6223SM  H13G 8005   5.719   3.275  15.584 -0.7779 -0.2032 -1.5856
   6223SM  C14F 8006   5.637   3.457  15.507  0.4226 -0.0406  0.2081
   6223SM  H14F 8007   5.703   3.535  15.552 -1.8103  1.2829  1.3783
   6223SM  H14G 8008   5.540   3.510  15.500 -0.5794 -1.8899 -0.6852
   6223SM  C15F 8009   5.680   3.439  15.360 -0.3908 -0.3588  1.3478
   6223SM  H15F 8010   5.791   3.433  15.361 -0.2694 -0.6278 -2.1221
   6223SM  H15G 8011   5.651   3.528  15.300 -0.6882 -2.2589 -1.5262
   6223SM  C16F 8012   5.637   3.304  15.300  0.3530 -0.0709  0.1443
   6223SM  H16F 8013   5.529   3.296  15.324  0.3641 -1.8367 -0.2830
   6223SM  H16G 8014   5.698   3.229  15.355 -1.1907 -0.7178  1.0487
   6223SM  C17F 8015   5.656   3.306  15.143 -0.7377  0.5420 -0.5358
   6223SM  H17F 8016   5.764   3.295  15.119 -0.7821 -0.4230 -0.3135
   6223SM  H17G 8017   5.629   3.411  15.117  2.9652  1.5775 -0.7958
   6223SM  C18F 8018   5.575   3.196  15.071 -0.0985  0.0795  0.1851
   6223SM  H18F 8019   5.544   3.235  14.972 -2.3349 -0.5094  0.5768
   6223SM  H18G 8020   5.478   3.179  15.124 -2.6430  0.5370 -3.8847
   6223SM  C19F 8021   5.656   3.068  15.060  0.2982 -0.3630 -0.1372
   6223SM  H19F 8022   5.690   3.045  15.163  1.3928  1.6500  0.0106
   6223SM  H19G 8023   5.747   3.095  15.002  0.6692  0.5712  0.8344
   6223SM  C20F 8024   5.584   2.949  14.989  0.9808 -0.4352 -0.1663
   6223SM  H20F 8025   5.563   2.969  14.882  1.8901  1.2925 -0.0645
   6223SM  H20G 8026   5.486   2.943  15.041  0.2848 -2.0328 -1.5639
   6223SM  C21F 8027   5.649   2.813  15.009  0.3927 -0.2849 -0.3230
   6223SM  H21F 8028   5.601   2.722  14.967 -1.0366 -0.4955  1.6419
   6223SM  H21G 8029   5.665   2.802  15.119  1.1288  1.2298 -0.2514
   6223SM  C22F 8030   5.784   2.798  14.937  0.8719  0.4666  0.4315
   6223SM  H22F 8031   5.838   2.710  14.977 -0.6016 -1.3890 -1.4081
   6223SM  H22G 8032   5.846   2.888  14.958  0.8670  0.5085  0.2734
   6223SM  C23F 8033   5.773   2.779  14.784 -0.0898 -0.3408  0.3152
   6223SM  H23F 8034   5.877   2.773  14.745  0.4689  0.7408  1.5677
   6223SM  H23G 8035   5.727   2.873  14.746  2.5061  0.9893  0.2754
   6223SM  H23H 8036   5.710   2.690  14.759 -0.0350 -0.0376 -0.9716
   6323SM     N 8037   6.196   5.176  17.325  0.1840 -0.1973  0.2857
   6323SM   C15 8038   6.119   5.257  17.223  0.0555 -0.5748  0.1978
   6323SM  H15A 8039   6.029   5.304  17.261 -0.3838 -1.3411  0.1211
   6323SM  H15B 8040   6.078   5.188  17.151 -3.7297  0.9933  0.6087
   6323SM  H15C 8041   6.176   5.334  17.174 -1.1054  0.3078  0.2057
   6323SM   C14 8042   6.265   5.280  17.411 -0.6280  0.8280 -0.6502
   6323SM  H14A 8043   6.334   5.338  17.350  1.2012 -1.1695 -0.5952
   6323SM  H14B 8044   6.313   5.245  17.501 -0.3346 -0.2722 -1.2181
   6323SM  H14C 8045   6.184   5.345  17.442  0.2765  1.6953 -0.0428
   6323SM   C13 8046   6.100   5.099  17.404  0.1678 -0.1561 -0.1631
   6323SM  H13A 8047   6.156   5.028  17.463  0.4379 -1.1655 -1.5724
   6323SM  H13B 8048   6.037   5.037  17.343 -0.5332 -1.2563  1.6296
   6323SM  H13C 8049   6.042   5.163  17.469  2.0594 -0.7951  2.3409
   6323SM   C12 8050   6.294   5.085  17.268 -0.1131  0.0231  0.2243
   6323SM  H12A 8051   6.374   5.143  17.223  0.5092 -1.7083 -1.0191
   6323SM  H12B 8052   6.253   5.030  17.185 -0.0434 -1.3524  1.0874
   6323SM   C11 8053   6.356   4.972  17.360  0.0997 -0.5851 -0.1865
   6323SM  H11A 8054   6.427   4.916  17.295  1.8270  2.3555 -1.0023
   6323SM  H11B 8055   6.283   4.906  17.412  1.5243 -1.8283  0.3119
   6323SM     P 8056   6.576   5.099  17.436  0.0808  0.0144 -0.5403
   6323SM   O13 8057   6.578   5.227  17.511 -0.0244 -0.0478 -0.6275
   6323SM   O14 8058   6.686   5.000  17.464 -0.3444  0.3791  0.4128
   6323SM   O11 8059   6.567   5.143  17.284  0.3023 -0.3520  0.1290
   6323SM   O12 8060   6.438   5.025  17.464  0.2315 -0.4001  0.4939
   6323SM   C1S 8061   6.664   5.103  17.188 -0.2946  0.1769  0.1006
   6323SM   H1S 8062   6.666   4.993  17.177  0.4856  0.3897 -2.9439
   6323SM   H1T 8063   6.769   5.129  17.217  0.7156 -0.2530 -2.7981
   6323SM    NF 8064   6.740   5.118  16.940 -0.5194 -0.3399  0.9172
   6323SM   HNF 8065   6.827   5.166  16.935 -1.5352  1.5107 -0.4213
   6323SM   C2S 8066   6.641   5.167  17.046  0.1514 -0.3044  0.1162
   6323SM   H2S 8067   6.536   5.144  17.020 -0.0001 -1.1719  1.4250
   6323SM   C3S 8068   6.644   5.320  17.061 -0.1716 -0.8115  0.2715
   6323SM   H3S 8069   6.747   5.357  17.081 -0.5564  1.8497 -2.0510
   6323SM    O3 8070   6.567   5.375  17.164 -0.0638  0.5581  0.4381
   6323SM   HO3 8071   6.542   5.303  17.222  1.7910 -0.2465  0.3059
   6323SM   C4S 8072   6.605   5.377  16.926  0.3697  0.1620 -0.4466
   6323SM   H4S 8073   6.687   5.429  16.873  0.5945  1.4301  1.0627
   6323SM   C5S 8074   6.483   5.390  16.866  0.6902 -0.1528  0.5019
   6323SM   H5S 8075   6.389   5.347  16.905  0.0838  1.5625  1.0412
   6323SM   C6S 8076   6.486   5.454  16.735  0.1975 -0.4786  0.0108
   6323SM   H6S 8077   6.562   5.536  16.739 -2.2065  1.9295 -0.9029
   6323SM   H6T 8078   6.395   5.515  16.720  1.1514  1.1823  0.6560
   6323SM   C7S 8079   6.522   5.357  16.618 -0.2219 -0.6115  0.7923
   6323SM   H7S 8080   6.455   5.269  16.627  0.4752 -1.4189 -1.2794
   6323SM   H7T 8081   6.629   5.328  16.623 -0.2610 -1.3566 -1.4787
   6323SM   C8S 8082   6.489   5.402  16.480  0.1007 -0.2822 -0.1197
   6323SM   H8S 8083   6.536   5.501  16.459  1.7976 -0.8244  0.9268
   6323SM   H8T 8084   6.379   5.417  16.471  0.4354  1.3750 -2.3058
   6323SM   C9S 8085   6.554   5.319  16.367  0.1423 -0.2662  0.1720
   6323SM   H9S 8086   6.528   5.211  16.373  0.2779 -0.3800 -0.9496
   6323SM   H9T 8087   6.664   5.333  16.376  0.2045 -0.0981 -0.7647
   6323SM  C10S 8088   6.506   5.374  16.231 -0.1597  0.1639 -0.0848
   6323SM  H10S 8089   6.536   5.481  16.219  0.2158  0.0099 -0.5810
   6323SM  H10T 8090   6.396   5.370  16.237 -0.4081  0.0343 -3.0147
   6323SM  C11S 8091   6.568   5.292  16.121 -0.9816 -0.0779  0.6848
   6323SM  H11S 8092   6.540   5.184  16.130 -2.0960  0.2700  1.6230
   6323SM  H11T 8093   6.678   5.296  16.134 -0.5718 -3.8414 -0.3111
   6323SM  C12S 8094   6.529   5.338  15.980  0.1960 -0.5720 -0.1145
   6323SM  H12S 8095   6.562   5.268  15.900 -1.6971  1.7219 -3.1762
   6323SM  H12T 8096   6.588   5.430  15.962  0.4862 -0.9078 -0.9550
   6323SM  C13S 8097   6.382   5.364  15.951 -0.6275  0.1641 -0.2093
   6323SM  H13S 8098   6.339   5.447  16.011  0.2332  0.0688  0.5605
   6323SM  H13T 8099   6.332   5.271  15.984  1.7663 -1.2296 -0.2979
   6323SM  C14S 8100   6.361   5.387  15.804  0.4793 -0.1457  0.5066
   6323SM  H14S 8101   6.380   5.290  15.754  0.1980  0.2851 -0.4695
   6323SM  H14T 8102   6.435   5.463  15.770 -0.8339  0.5106 -1.0306
   6323SM  C15S 8103   6.221   5.442  15.758  0.2596  0.0204 -0.3795
   6323SM  H15S 8104   6.213   5.546  15.797  1.1726  0.5116 -1.4575
   6323SM  H15T 8105   6.137   5.388  15.808  0.6880  1.0925  1.6230
   6323SM  C16S 8106   6.202   5.443  15.604 -0.6253  0.2722 -0.2216
   6323SM  H16S 8107   6.173   5.342  15.571 -0.0747 -0.1288  0.4820
   6323SM  H16T 8108   6.303   5.471  15.565  0.4510 -1.2547  1.3304
   6323SM  C17S 8109   6.086   5.531  15.547 -0.0173  0.3022 -0.1219
   6323SM  H17S 8110   6.092   5.632  15.593 -0.4909  0.3431 -0.1442
   6323SM  H17T 8111   5.982   5.496  15.568 -0.0537  0.5439  0.1015
   6323SM  C18S 8112   6.098   5.541  15.394 -0.2623 -0.4193  0.1326
   6323SM  H18S 8113   6.023   5.616  15.363  0.1523  0.0444  0.2423
   6323SM  H18T 8114   6.086   5.447  15.335 -2.1902 -0.2786  0.2430
   6323SM  H18U 8115   6.195   5.587  15.365 -0.9821  0.7021 -0.5632
   6323SM   C1F 8116   6.722   5.002  16.882  0.4120  0.1540  0.3270
   6323SM    OF 8117   6.616   4.942  16.902 -0.0258  0.1867  0.0373
   6323SM   C2F 8118   6.831   4.940  16.805  0.1418  0.1929 -0.2305
   6323SM   H2F 8119   6.885   4.869  16.872  2.5231  2.7249  0.6970
   6323SM   H2G 8120   6.903   5.014  16.766 -0.6632  1.2207  0.1735
   6323SM   C3F 8121   6.768   4.869  16.680 -0.4651  0.6165 -0.1518
   6323SM   H3F 8122   6.698   4.788  16.710  0.7896 -0.8371 -1.0352
   6323SM   H3G 8123   6.845   4.805  16.633 -1.2766 -1.5279  1.2690
   6323SM   C4F 8124   6.704   4.964  16.584  0.5331 -0.5019  0.6286
   6323SM   H4F 8125   6.742   5.068  16.590 -2.2037  0.6417 -0.2822
   6323SM   H4G 8126   6.601   4.966  16.626  0.9518 -1.0739  1.7510
   6323SM   C5F 8127   6.718   4.926  16.436 -0.0951  0.4778 -0.6696
   6323SM   H5F 8128   6.667   5.004  16.374 -0.8103  0.9691  0.4969
   6323SM   H5G 8129   6.653   4.836  16.427  0.4308 -0.0631  0.7373
   6323SM   C6F 8130   6.857   4.895  16.380 -0.6021  0.2887 -0.4209
   6323SM   H6F 8131   6.909   4.818  16.441  0.8410  1.7999  0.3544
   6323SM   H6G 8132   6.917   4.988  16.390  1.3590 -0.9077 -0.6614
   6323SM   C7F 8133   6.851   4.851  16.231  0.4520 -0.1343  1.3605
   6323SM   H7F 8134   6.796   4.755  16.215 -1.2350  0.9571  0.2247
   6323SM   H7G 8135   6.956   4.845  16.194  0.1225  1.0586  0.1614
   6323SM   C8F 8136   6.792   4.954  16.130 -0.0524 -0.0166 -0.2544
   6323SM   H8F 8137   6.861   5.039  16.112 -0.4642 -0.0648 -2.3617
   6323SM   H8G 8138   6.704   5.005  16.174 -0.4446 -0.4756 -0.4948
   6323SM   C9F 8139   6.742   4.888  15.998  0.3686 -0.1369 -0.0238
   6323SM   H9F 8140   6.659   4.817  16.017 -0.1595  0.5294  0.1541
   6323SM   H9G 8141   6.826   4.824  15.961  1.1531  0.3142  0.9148
   6323SM  C10F 8142   6.705   4.987  15.892 -0.3104 -0.1325  0.2000
   6323SM  H10F 8143   6.797   5.043  15.863 -0.1099 -0.2811  0.5452
   6323SM  H10G 8144   6.630   5.060  15.930  1.6635  1.9738  0.3170
   6323SM  C11F 8145   6.657   4.927  15.764 -0.5728  0.0664  0.5926
   6323SM  H11F 8146   6.552   4.895  15.782 -0.2401  0.1341  3.0070
   6323SM  H11G 8147   6.722   4.845  15.727  1.4134  1.6010  0.5407
   6323SM  C12F 8148   6.648   5.032  15.653  0.2316 -0.5258  0.4843
   6323SM  H12F 8149   6.743   5.089  15.662 -0.3197  0.4751  0.0585
   6323SM  H12G 8150   6.562   5.099  15.675 -0.1630 -0.6681 -0.5565
   6323SM  C13F 8151   6.628   4.987  15.510  0.2892 -0.0545  0.0260
   6323SM  H13F 8152   6.533   4.929  15.506  0.2934 -0.2970  2.2472
   6323SM  H13G 8153   6.711   4.919  15.484  0.9200  0.8876 -0.5032
   6323SM  C14F 8154   6.605   5.109  15.412 -0.4311 -0.2624 -0.2096
   6323SM  H14F 8155   6.696   5.173  15.416  0.5514 -1.6646  1.6380
   6323SM  H14G 8156   6.516   5.169  15.437  0.3872  0.4880  1.0374
   6323SM  C15F 8157   6.600   5.065  15.269 -0.5657  0.3558 -0.5319
   6323SM  H15F 8158   6.589   5.158  15.208  2.2196  0.4090 -1.0900
   6323SM  H15G 8159   6.508   5.005  15.259 -0.4384  0.3358 -1.7114
   6323SM  C16F 8160   6.726   4.989  15.216  1.1093 -0.3478 -0.5546
   6323SM  H16F 8161   6.749   4.906  15.286  0.9635  0.3787  0.3751
   6323SM  H16G 8162   6.810   5.061  15.219  0.0908  0.8482  0.8210
   6323SM  C17F 8163   6.707   4.939  15.067 -0.9430  0.0878  0.4607
   6323SM  H17F 8164   6.633   4.857  15.055 -0.5136 -0.1587 -0.6398
   6323SM  H17G 8165   6.803   4.892  15.039 -1.7542 -1.1796 -0.2805
   6323SM  C18F 8166   6.680   5.058  14.970 -0.0649 -0.3856 -0.0972
   6323SM  H18F 8167   6.770   5.123  14.968 -0.7155  0.5388 -2.0630
   6323SM  H18G 8168   6.593   5.122  14.995  1.6930  2.1006  0.0263
   6323SM  C19F 8169   6.652   5.017  14.822  0.9116 -0.1488 -0.3637
   6323SM  H19F 8170   6.686   5.110  14.773  1.1654 -0.1224 -0.1450
   6323SM  H19G 8171   6.542   5.009  14.810  1.1745 -1.2618 -2.5202
   6323SM  C20F 8172   6.731   4.898  14.766  0.0838  0.1397 -0.5737
   6323SM  H20F 8173   6.704   4.804  14.820 -1.1207  0.9451  0.2781
   6323SM  H20G 8174   6.837   4.909  14.797 -0.4170 -0.1658  1.4274
   6323SM  C21F 8175   6.715   4.886  14.612 -0.3111  0.4102 -0.3667
   6323SM  H21F 8176   6.745   4.979  14.561 -1.4382 -0.4371 -2.7304
   6323SM  H21G 8177   6.605   4.880  14.598 -0.3840  1.1933 -0.1750
   6323SM  C22F 8178   6.781   4.758  14.552  0.2889 -1.1117 -0.3692
   6323SM  H22F 8179   6.755   4.757  14.444  1.4349  0.4204 -0.6988
   6323SM  H22G 8180   6.743   4.656  14.573 -0.6199 -0.4744  1.3263
   6323SM  C23F 8181   6.932   4.760  14.575 -0.3624  0.4577 -1.1560
   6323SM  H23F 8182   6.980   4.677  14.519  0.8532  0.2134  0.1917
   6323SM  H23G 8183   6.959   4.731  14.679 -1.7344 -0.1491 -0.9487
   6323SM  H23H 8184   6.974   4.861  14.551  1.6088  0.5473  2.1414
   6423SM     N 8185   7.134   3.308  17.779 -0.2068  0.3372  0.0519
   6423SM   C15 8186   7.188   3.350  17.915  0.3928 -0.4076 -0.4834
   6423SM  H15A 8187   7.170   3.455  17.931  1.6918  0.3768 -3.3932
   6423SM  H15B 8188   7.292   3.327  17.930  0.4664 -0.5346 -1.1487
   6423SM  H15C 8189   7.137   3.300  17.996  1.7224 -1.3125 -0.1750
   6423SM   C14 8190   7.156   3.165  17.783 -0.3691 -0.2153 -0.2178
   6423SM  H14A 8191   7.092   3.118  17.855  1.7698  0.4379  2.2682
   6423SM  H14B 8192   7.256   3.132  17.808 -0.4306  1.6266  2.8822
   6423SM  H14C 8193   7.140   3.129  17.682 -0.0856  1.4774 -0.8921
   6423SM   C13 8194   6.993   3.326  17.763 -0.1251  0.8210 -0.6912
   6423SM  H13A 8195   6.947   3.281  17.676  1.0702 -0.3406 -0.7469
   6423SM  H13B 8196   6.960   3.429  17.765 -2.5779  0.1242 -1.3698
   6423SM  H13C 8197   6.948   3.281  17.850 -0.7468  0.2296 -1.2949
   6423SM   C12 8198   7.220   3.388  17.676  0.5330  0.8223 -0.3269
   6423SM  H12A 8199   7.324   3.363  17.695  1.0066  2.3882 -0.7433
   6423SM  H12B 8200   7.214   3.493  17.699 -0.3858  0.6085  0.4710
   6423SM   C11 8201   7.190   3.371  17.532  0.5042  0.0170  0.5373
   6423SM  H11A 8202   7.196   3.264  17.500  1.5860  0.2608 -0.0923
   6423SM  H11B 8203   7.277   3.414  17.479  1.0828 -0.1964  1.2874
   6423SM     P 8204   7.077   3.589  17.461 -0.2634  0.0782  0.3759
   6423SM   O13 8205   6.939   3.629  17.430  0.7203  0.2491 -0.5214
   6423SM   O14 8206   7.143   3.660  17.569  0.4049  0.3381  0.6378
   6423SM   O11 8207   7.170   3.598  17.326  0.1520  0.2186 -0.7734
   6423SM   O12 8208   7.064   3.435  17.492 -0.9636  0.2991  0.1799
   6423SM   C1S 8209   7.172   3.493  17.226 -0.5261  0.1633  0.1674
   6423SM   H1S 8210   7.148   3.392  17.266  2.4507 -0.5810  0.3381
   6423SM   H1T 8211   7.279   3.489  17.198 -0.4902  1.0820  0.1462
   6423SM    NF 8212   7.100   3.405  17.004  0.1289 -0.8827 -0.0440
   6423SM   HNF 8213   7.156   3.420  16.923  0.4060 -4.6845 -0.7174
   6423SM   C2S 8214   7.081   3.519  17.094 -0.3597 -0.0321  0.2835
   6423SM   H2S 8215   6.974   3.519  17.123 -0.6277  0.0443 -0.6816
   6423SM   C3S 8216   7.114   3.656  17.029  0.2932  0.3983  0.0688
   6423SM   H3S 8217   7.224   3.651  17.014  0.0685 -0.6219 -1.5070
   6423SM    O3 8218   7.093   3.777  17.103 -0.4393 -0.1026  0.0386
   6423SM   HO3 8219   7.117   3.749  17.192  1.9380  1.0047 -0.1707
   6423SM   C4S 8220   7.035   3.666  16.904 -0.7558  0.1260  0.1981
   6423SM   H4S 8221   7.087   3.624  16.817  0.1390  2.1720 -0.3209
   6423SM   C5S 8222   6.912   3.710  16.894  0.6129  0.4082  0.6170
   6423SM   H5S 8223   6.861   3.747  16.984 -2.8269 -1.0401 -0.5816
   6423SM   C6S 8224   6.817   3.714  16.772 -0.7627 -0.3184 -0.3181
   6423SM   H6S 8225   6.826   3.815  16.727 -1.1559 -1.0760 -2.1891
   6423SM   H6T 8226   6.710   3.703  16.800 -1.5090  0.1130 -2.7304
   6423SM   C7S 8227   6.837   3.603  16.665  0.1636  0.0305  0.9562
   6423SM   H7S 8228   6.806   3.509  16.716  3.5746 -1.4656  0.5494
   6423SM   H7T 8229   6.941   3.585  16.632 -0.5061 -0.6274 -0.9226
   6423SM   C8S 8230   6.754   3.614  16.537  0.0877 -0.1191  0.3154
   6423SM   H8S 8231   6.778   3.703  16.475 -1.4171 -0.0798 -0.2677
   6423SM   H8T 8232   6.649   3.635  16.568  0.4099  0.5594  0.9951
   6423SM   C9S 8233   6.740   3.489  16.446 -0.1034  0.6129  0.3103
   6423SM   H9S 8234   6.638   3.445  16.451  0.3422 -0.3470  1.8542
   6423SM   H9T 8235   6.818   3.415  16.474  2.2635  2.2365 -1.5528
   6423SM  C10S 8236   6.762   3.531  16.304 -0.1737  0.4483 -0.0812
   6423SM  H10S 8237   6.868   3.562  16.289 -0.2457  0.2878 -1.0017
   6423SM  H10T 8238   6.702   3.623  16.289 -0.6175  0.1547 -0.1163
   6423SM  C11S 8239   6.738   3.432  16.194 -0.1427  0.1017  0.3280
   6423SM  H11S 8240   6.634   3.394  16.202 -1.6128  3.2065 -2.1491
   6423SM  H11T 8241   6.797   3.341  16.219  1.1970  0.9309  0.2902
   6423SM  C12S 8242   6.779   3.476  16.051 -0.3713  1.2218  0.0482
   6423SM  H12S 8243   6.889   3.486  16.038 -0.4003  0.8015 -0.5593
   6423SM  H12T 8244   6.737   3.579  16.043  0.1936  1.3939 -0.9771
   6423SM  C13S 8245   6.743   3.363  15.948  0.4332 -0.2244  0.2411
   6423SM  H13S 8246   6.633   3.354  15.960  0.3738  0.0787 -0.0819
   6423SM  H13T 8247   6.768   3.258  15.975 -0.2229 -0.7259 -0.9971
   6423SM  C14S 8248   6.777   3.400  15.802  0.5260  0.8613 -0.1534
   6423SM  H14S 8249   6.773   3.511  15.802 -0.6978  0.8251  0.3743
   6423SM  H14T 8250   6.698   3.345  15.746  0.0673  0.3174  0.9982
   6423SM  C15S 8251   6.914   3.360  15.754 -0.4489 -0.1797 -0.4209
   6423SM  H15S 8252   6.927   3.250  15.758 -0.3944 -0.2182 -1.2937
   6423SM  H15T 8253   6.992   3.396  15.824  0.3010 -0.6659 -0.9770
   6423SM  C16S 8254   6.940   3.402  15.606  0.4225 -0.6211  0.2997
   6423SM  H16S 8255   7.047   3.419  15.583  0.2618  2.6778  1.5322
   6423SM  H16T 8256   6.894   3.501  15.588  1.3253 -0.1604  0.4954
   6423SM  C17S 8257   6.875   3.295  15.517 -0.3776  0.5773 -0.0681
   6423SM  H17S 8258   6.768   3.322  15.505 -0.7388  0.4324  2.3602
   6423SM  H17T 8259   6.880   3.197  15.569  0.6846 -0.4792 -2.0212
   6423SM  C18S 8260   6.925   3.275  15.370  0.1780 -0.3463  0.2765
   6423SM  H18S 8261   7.033   3.253  15.375  0.7468  2.3819  1.8786
   6423SM  H18T 8262   6.915   3.372  15.316 -1.8975 -0.7535 -0.1628
   6423SM  H18U 8263   6.870   3.193  15.319  1.9907 -0.7726 -1.0900
   6423SM   C1F 8264   7.054   3.286  17.020 -0.0630  0.7568 -0.6686
   6423SM    OF 8265   6.980   3.267  17.118 -0.2253 -0.7362  0.2815
   6423SM   C2F 8266   7.098   3.180  16.920  0.0058 -0.0990 -0.2262
   6423SM   H2F 8267   7.146   3.090  16.964 -0.5559 -1.2365 -1.8342
   6423SM   H2G 8268   7.164   3.231  16.847 -1.3825  1.9996 -0.1066
   6423SM   C3F 8269   6.976   3.135  16.842  0.3513 -0.6954  0.0727
   6423SM   H3F 8270   6.900   3.216  16.839 -0.0209 -1.0415  0.0960
   6423SM   H3G 8271   6.929   3.051  16.897 -2.7890  0.2615 -0.9599
   6423SM   C4F 8272   7.022   3.096  16.698 -0.0948 -0.1743 -0.3881
   6423SM   H4F 8273   6.944   3.028  16.658 -1.0243  0.8346 -0.3149
   6423SM   H4G 8274   7.115   3.034  16.701 -0.4960 -0.8276 -1.1260
   6423SM   C5F 8275   7.033   3.218  16.613  0.2131  0.6262  0.3141
   6423SM   H5F 8276   7.108   3.288  16.656  2.5759 -1.1012 -0.8200
   6423SM   H5G 8277   6.930   3.259  16.607  0.2217  0.6029 -0.0061
   6423SM   C6F 8278   7.080   3.197  16.474  0.0650 -0.5307 -0.3594
   6423SM   H6F 8279   7.024   3.126  16.410 -2.1228 -0.0871  0.9832
   6423SM   H6G 8280   7.176   3.140  16.476 -0.0907 -0.8570  2.7952
   6423SM   C7F 8281   7.088   3.330  16.397  0.2671 -0.2729  0.6551
   6423SM   H7F 8282   7.134   3.408  16.461  2.1955 -2.5498  2.2128
   6423SM   H7G 8283   6.986   3.367  16.373  0.6199 -0.3064 -1.0022
   6423SM   C8F 8284   7.176   3.319  16.270  0.8815 -0.3309 -0.5414
   6423SM   H8F 8285   7.272   3.275  16.304  1.2352 -0.8924 -2.2056
   6423SM   H8G 8286   7.192   3.420  16.225 -1.0408 -0.8422 -2.5088
   6423SM   C9F 8287   7.115   3.224  16.165  0.2087 -0.7736  0.1065
   6423SM   H9F 8288   7.013   3.264  16.149  1.1332  1.2136 -1.1055
   6423SM   H9G 8289   7.102   3.119  16.201  0.2607 -0.6401  0.5153
   6423SM  C10F 8290   7.197   3.230  16.033  0.6842 -0.0804 -0.5452
   6423SM  H10F 8291   7.304   3.233  16.065  0.0756  0.9688  1.5657
   6423SM  H10G 8292   7.161   3.320  15.979 -0.9443 -0.3373  0.0511
   6423SM  C11F 8293   7.175   3.099  15.955 -0.1148  0.0695 -0.9600
   6423SM  H11F 8294   7.069   3.098  15.921 -0.7384 -0.3827  0.8735
   6423SM  H11G 8295   7.181   3.006  16.016  0.1943  1.0350  0.5308
   6423SM  C12F 8296   7.274   3.094  15.840 -0.2399  0.0075 -0.1474
   6423SM  H12F 8297   7.372   3.129  15.878 -1.1990 -0.7454  3.2924
   6423SM  H12G 8298   7.244   3.154  15.751  1.2442 -2.2369 -2.3022
   6423SM  C13F 8299   7.293   2.943  15.795  0.0433  0.3580  0.0572
   6423SM  H13F 8300   7.200   2.916  15.740  0.8676  2.2142 -2.4125
   6423SM  H13G 8301   7.316   2.872  15.877 -1.0548 -1.4157 -1.0919
   6423SM  C14F 8302   7.396   2.926  15.689 -0.3995 -0.4689  0.1139
   6423SM  H14F 8303   7.496   2.946  15.733  0.1787 -1.4722 -0.6992
   6423SM  H14G 8304   7.379   3.006  15.615  1.6412  1.5302  1.6712
   6423SM  C15F 8305   7.393   2.784  15.624  0.4476  0.4003 -0.8262
   6423SM  H15F 8306   7.298   2.766  15.570 -0.5537 -0.9625  1.2503
   6423SM  H15G 8307   7.401   2.704  15.701  1.0612 -0.6761 -1.9798
   6423SM  C16F 8308   7.506   2.757  15.527 -0.0779 -0.4669  0.4864
   6423SM  H16F 8309   7.490   2.650  15.503 -0.3042 -0.0917 -1.1626
   6423SM  H16G 8310   7.599   2.762  15.589 -1.3344 -0.5120  2.4605
   6423SM  C17F 8311   7.518   2.858  15.406  0.3497  0.3320  0.2058
   6423SM  H17F 8312   7.530   2.964  15.437  0.3166  1.3350 -2.8643
   6423SM  H17G 8313   7.423   2.847  15.350 -0.4765 -0.1537  1.6343
   6423SM  C18F 8314   7.632   2.821  15.305 -0.4245 -0.4314  0.9756
   6423SM  H18F 8315   7.626   2.718  15.264  1.3927 -0.2389  0.1606
   6423SM  H18G 8316   7.721   2.837  15.370  0.3622 -0.3808 -0.0988
   6423SM  C19F 8317   7.625   2.929  15.198  0.1422 -0.1033  0.1729
   6423SM  H19F 8318   7.728   2.947  15.159  0.9551 -1.4318  1.5894
   6423SM  H19G 8319   7.602   3.024  15.251  0.4415 -1.2869  2.5422
   6423SM  C20F 8320   7.530   2.902  15.073  0.6811  0.5606  0.0257
   6423SM  H20F 8321   7.427   2.928  15.103  0.1103 -1.3628 -0.1290
   6423SM  H20G 8322   7.549   2.794  15.054  1.2391  0.5472  0.6139
   6423SM  C21F 8323   7.563   2.968  14.941  0.1365  0.3072 -0.0804
   6423SM  H21F 8324   7.584   3.072  14.974  1.7205 -0.6295  2.1380
   6423SM  H21G 8325   7.475   2.951  14.877 -0.3404 -0.1005  0.6708
   6423SM  C22F 8326   7.697   2.925  14.875 -0.3030 -0.2273  0.4513
   6423SM  H22F 8327   7.680   2.827  14.826 -1.4805  0.5453 -0.7136
   6423SM  H22G 8328   7.784   2.916  14.945 -0.1781 -0.2992  0.2877
   6423SM  C23F 8329   7.737   3.017  14.753 -0.4207  0.4093 -0.3636
   6423SM  H23F 8330   7.766   3.116  14.794 -1.5683  0.1682  1.1513
   6423SM  H23G 8331   7.643   3.029  14.695 -0.4722  0.8021 -0.2031
   6423SM  H23H 8332   7.812   2.970  14.687 -0.2435  0.3909 -0.1513
   6523SM     N 8333   7.152   4.060  17.566  0.5555 -0.5907 -0.5641
   6523SM   C15 8334   7.259   4.057  17.665 -0.0796  0.2298 -0.0810
   6523SM  H15A 8335   7.224   4.089  17.761 -1.8274 -0.5414 -0.4312
   6523SM  H15B 8336   7.353   4.102  17.635  1.6948 -2.6603  0.7018
   6523SM  H15C 8337   7.281   3.952  17.679  2.2065  0.6710  0.0734
   6523SM   C14 8338   7.212   3.984  17.451 -0.0981  0.5158  0.3072
   6523SM  H14A 8339   7.147   3.975  17.366  0.0361 -0.9065  0.3212
   6523SM  H14B 8340   7.250   3.885  17.474 -0.1063  0.5348  0.4078
   6523SM  H14C 8341   7.302   4.024  17.407 -0.0333 -1.5649 -1.6487
   6523SM   C13 8342   7.034   3.988  17.629 -0.3952  0.4204 -0.3970
   6523SM  H13A 8343   7.008   4.043  17.718  0.9058  0.7302 -0.1772
   6523SM  H13B 8344   7.064   3.887  17.655  2.3504  1.2501 -0.0239
   6523SM  H13C 8345   6.944   3.994  17.571 -1.3885 -0.4930  0.9767
   6523SM   C12 8346   7.110   4.207  17.533 -0.4919 -0.7675  0.3956
   6523SM  H12A 8347   7.204   4.254  17.508 -1.0774 -0.1127 -0.6350
   6523SM  H12B 8348   7.067   4.255  17.620  0.5496  2.5830 -0.7893
   6523SM   C11 8349   7.016   4.233  17.410 -0.1873  0.4892 -0.2032
   6523SM  H11A 8350   7.065   4.201  17.316 -0.2736 -1.0019  0.2276
   6523SM  H11B 8351   6.998   4.342  17.400  0.0285  0.3367 -2.8773
   6523SM     P 8352   6.776   4.204  17.517 -0.2461 -0.0751  0.2276
   6523SM   O13 8353   6.744   4.075  17.593  1.0305 -0.4974  0.4866
   6523SM   O14 8354   6.813   4.315  17.604 -0.4147  0.2333 -0.9107
   6523SM   O11 8355   6.660   4.232  17.421 -0.0200  0.1847 -0.0329
   6523SM   O12 8356   6.896   4.168  17.415 -0.2972  0.1207  0.4606
   6523SM   C1S 8357   6.666   4.340  17.320  0.1881  0.2723  0.1371
   6523SM   H1S 8358   6.761   4.396  17.338  2.5213 -3.8165  1.9436
   6523SM   H1T 8359   6.576   4.405  17.320 -0.0681  0.0448  2.7413
   6523SM    NF 8360   6.722   4.390  17.076 -0.3695 -1.0915 -0.5664
   6523SM   HNF 8361   6.639   4.423  17.031 -0.9571 -2.0724 -0.2269
   6523SM   C2S 8362   6.689   4.281  17.172  0.3825 -0.3497  0.3524
   6523SM   H2S 8363   6.770   4.205  17.174  0.7981  0.0470 -0.6841
   6523SM   C3S 8364   6.563   4.201  17.134 -0.0261  0.1195  0.2361
   6523SM   H3S 8365   6.478   4.271  17.118  1.1210  1.6658  0.6328
   6523SM    O3 8366   6.527   4.101  17.232  0.2351  0.4674  0.0688
   6523SM   HO3 8367   6.572   4.131  17.311  1.0112 -0.6763  0.0892
   6523SM   C4S 8368   6.582   4.135  16.996 -0.4506  0.1258 -0.3845
   6523SM   H4S 8369   6.681   4.093  16.973 -1.3308 -2.0993 -0.4154
   6523SM   C5S 8370   6.487   4.132  16.900 -0.0536  0.5363 -0.4844
   6523SM   H5S 8371   6.390   4.177  16.925  0.5889  1.2148  0.8913
   6523SM   C6S 8372   6.500   4.064  16.770 -0.0491  0.0081  0.0562
   6523SM   H6S 8373   6.438   4.122  16.698 -0.4648  0.1642  0.5344
   6523SM   H6T 8374   6.446   3.967  16.775  0.4101 -0.1986  1.2136
   6523SM   C7S 8375   6.637   4.035  16.710 -0.2381 -0.2711  0.2013
   6523SM   H7S 8376   6.705   3.983  16.781  0.3191 -1.0539 -0.8918
   6523SM   H7T 8377   6.684   4.135  16.695 -1.5325  0.4563  0.8465
   6523SM   C8S 8378   6.630   3.963  16.571  0.9115 -0.4222  0.2069
   6523SM   H8S 8379   6.561   3.877  16.569  0.3285  0.0529 -0.4738
   6523SM   H8T 8380   6.730   3.924  16.543  0.4728 -1.5018  0.1275
   6523SM   C9S 8381   6.572   4.047  16.449  0.3811  0.3840  0.0844
   6523SM   H9S 8382   6.637   4.137  16.449 -1.3611  1.8024  2.6743
   6523SM   H9T 8383   6.465   4.073  16.469  0.4362 -0.1434  1.1402
   6523SM  C10S 8384   6.577   3.971  16.322  0.4962 -1.0623  0.0473
   6523SM  H10S 8385   6.500   3.890  16.332 -0.4101 -0.2136  0.0937
   6523SM  H10T 8386   6.673   3.918  16.307  1.8116  1.0304  0.6650
   6523SM  C11S 8387   6.550   4.062  16.202 -0.7988  0.0556 -0.3302
   6523SM  H11S 8388   6.650   4.101  16.173 -0.3379 -1.8663 -1.4917
   6523SM  H11T 8389   6.476   4.134  16.243 -1.5096 -1.4888  1.2359
   6523SM  C12S 8390   6.487   3.989  16.093 -0.2457  0.1179  0.9077
   6523SM  H12S 8391   6.398   3.936  16.133 -0.2531  0.3605  1.2144
   6523SM  H12T 8392   6.549   3.912  16.042  1.3949  0.8226  1.7314
   6523SM  C13S 8393   6.433   4.082  15.985 -0.8886  0.3915  0.1314
   6523SM  H13S 8394   6.510   4.157  15.955 -0.3802  0.3348  1.2583
   6523SM  H13T 8395   6.341   4.125  16.030 -0.7533 -0.3965  1.1810
   6523SM  C14S 8396   6.395   4.007  15.853  0.0370  0.4356  0.1232
   6523SM  H14S 8397   6.316   3.931  15.873 -0.4206  0.7993 -0.2973
   6523SM  H14T 8398   6.479   3.942  15.818 -0.6666 -1.1853  1.2835
   6523SM  C15S 8399   6.357   4.110  15.744  0.2666  0.5647 -0.0460
   6523SM  H15S 8400   6.446   4.173  15.722 -1.0932  2.5286 -0.2213
   6523SM  H15T 8401   6.276   4.176  15.782 -0.9188 -2.1186  2.4433
   6523SM  C16S 8402   6.298   4.038  15.619 -0.2428  0.0428  0.5477
   6523SM  H16S 8403   6.198   3.994  15.641 -1.9144  2.5302 -1.4557
   6523SM  H16T 8404   6.360   3.950  15.592  1.5565  0.9933  1.4295
   6523SM  C17S 8405   6.286   4.140  15.506 -0.3025  0.0172 -0.0767
   6523SM  H17S 8406   6.389   4.165  15.472 -1.5629  0.9829 -3.7059
   6523SM  H17T 8407   6.238   4.232  15.545 -1.1094  0.0812 -1.1578
   6523SM  C18S 8408   6.206   4.091  15.381  0.2739  0.2923 -0.0168
   6523SM  H18S 8409   6.098   4.071  15.400  0.1687  0.8189 -0.0474
   6523SM  H18T 8410   6.245   3.997  15.336 -2.2725 -0.7634 -0.2076
   6523SM  H18U 8411   6.208   4.173  15.307  0.1704 -0.4061 -0.8069
   6523SM   C1F 8412   6.833   4.464  17.063 -0.5771 -0.8363 -0.4712
   6523SM    OF 8413   6.935   4.444  17.127 -0.6423  0.2390  0.0162
   6523SM   C2F 8414   6.827   4.581  16.965  0.1280 -0.1865 -0.3628
   6523SM   H2F 8415   6.887   4.664  17.008  1.7190 -0.9638 -0.9950
   6523SM   H2G 8416   6.721   4.613  16.969  0.3420  0.4208  1.1622
   6523SM   C3F 8417   6.883   4.535  16.832 -0.1155 -0.1852  0.1386
   6523SM   H3F 8418   6.978   4.479  16.839  0.6528  1.0474 -0.1797
   6523SM   H3G 8419   6.916   4.629  16.782  3.4508 -1.9258 -1.1099
   6523SM   C4F 8420   6.777   4.468  16.739  0.3472 -0.6190 -0.3314
   6523SM   H4F 8421   6.683   4.527  16.739  1.0739  0.5796 -0.1445
   6523SM   H4G 8422   6.749   4.368  16.779 -1.4343 -0.6140 -1.4339
   6523SM   C5F 8423   6.826   4.433  16.600  0.4621 -0.2648 -0.0880
   6523SM   H5F 8424   6.900   4.352  16.616  1.5837  0.5744 -0.8815
   6523SM   H5G 8425   6.875   4.525  16.561 -1.0595  0.1947 -1.0335
   6523SM   C6F 8426   6.716   4.390  16.517  0.1340  0.0942 -0.0487
   6523SM   H6F 8427   6.650   4.322  16.574 -0.5565  1.3819  0.7296
   6523SM   H6G 8428   6.746   4.331  16.428 -2.2295 -0.1980 -0.7115
   6523SM   C7F 8429   6.628   4.503  16.461 -0.5033 -0.4553  0.2845
   6523SM   H7F 8430   6.700   4.572  16.413 -0.9167 -1.6247 -2.1786
   6523SM   H7G 8431   6.576   4.554  16.545 -0.1326 -1.0806  0.9064
   6523SM   C8F 8432   6.528   4.459  16.350  0.1091 -0.0602  0.3419
   6523SM   H8F 8433   6.482   4.361  16.377  3.0386 -1.6529 -0.0560
   6523SM   H8G 8434   6.587   4.435  16.259 -0.2161 -1.0027  0.3678
   6523SM   C9F 8435   6.428   4.572  16.303 -0.3808 -0.2099  0.2627
   6523SM   H9F 8436   6.483   4.635  16.230 -2.1451 -1.0844 -1.9252
   6523SM   H9G 8437   6.401   4.629  16.395  0.7342  0.3982  0.2428
   6523SM  C10F 8438   6.305   4.520  16.233 -0.1439 -0.5845  0.3445
   6523SM  H10F 8439   6.256   4.446  16.299 -2.2247  0.7517  0.4282
   6523SM  H10G 8440   6.335   4.475  16.136 -0.3158 -0.2865  0.1505
   6523SM  C11F 8441   6.196   4.639  16.225  0.1233  0.6006  0.2966
   6523SM  H11F 8442   6.199   4.701  16.317  2.1888  0.2402  0.5236
   6523SM  H11G 8443   6.097   4.590  16.236  0.6814 -0.2456  1.7516
   6523SM  C12F 8444   6.201   4.731  16.098 -0.1573  0.4339 -0.1574
   6523SM  H12F 8445   6.110   4.793  16.082 -1.3809 -1.0719  0.6414
   6523SM  H12G 8446   6.203   4.655  16.017 -1.3151  1.3092 -1.0486
   6523SM  C13F 8447   6.327   4.825  16.085 -0.6866  0.4682 -0.0257
   6523SM  H13F 8448   6.410   4.757  16.054 -0.9008 -1.4072  3.0732
   6523SM  H13G 8449   6.356   4.878  16.178  0.4058  1.7025 -1.0388
   6523SM  C14F 8450   6.310   4.929  15.976  0.4497  0.2147  0.0320
   6523SM  H14F 8451   6.399   4.993  15.956  0.0644  1.0698  0.9691
   6523SM  H14G 8452   6.243   5.009  16.014 -0.2200  0.3679 -1.4184
   6523SM  C15F 8453   6.254   4.867  15.847 -0.3568  0.7564 -0.0533
   6523SM  H15F 8454   6.167   4.802  15.869  0.8844 -0.9342  0.0387
   6523SM  H15G 8455   6.328   4.796  15.804 -2.1684 -2.2132  1.4086
   6523SM  C16F 8456   6.220   4.983  15.743 -0.2053  0.7676 -0.0517
   6523SM  H16F 8457   6.319   5.032  15.735  0.2651  0.0427  1.0380
   6523SM  H16G 8458   6.147   5.056  15.786 -1.0825 -0.0158 -0.1722
   6523SM  C17F 8459   6.176   4.933  15.604  0.0977  0.8730 -0.3171
   6523SM  H17F 8460   6.073   4.893  15.606  0.7930 -1.0492 -0.7654
   6523SM  H17G 8461   6.238   4.842  15.592 -0.5622  0.5536 -1.3746
   6523SM  C18F 8462   6.205   5.027  15.486 -0.3179 -0.0849 -0.8613
   6523SM  H18F 8463   6.312   5.052  15.504 -0.5720  0.5432 -0.1863
   6523SM  H18G 8464   6.129   5.107  15.487 -2.1445 -1.7586 -0.2859
   6523SM  C19F 8465   6.186   4.960  15.347 -1.2120  0.1635  0.4696
   6523SM  H19F 8466   6.083   4.919  15.339 -1.8339  1.6963  0.3777
   6523SM  H19G 8467   6.268   4.886  15.332 -2.1428 -0.6577 -0.7809
   6523SM  C20F 8468   6.201   5.067  15.235 -1.3574 -0.0683  0.2341
   6523SM  H20F 8469   6.300   5.115  15.246 -0.6802 -1.6986  1.7691
   6523SM  H20G 8470   6.132   5.152  15.255 -2.5521 -0.6708 -1.1340
   6523SM  C21F 8471   6.178   5.023  15.092 -0.6951 -0.3649  0.2466
   6523SM  H21F 8472   6.072   4.998  15.071 -0.8510  0.0380  0.5494
   6523SM  H21G 8473   6.235   4.930  15.071  0.1801  0.3379 -0.5877
   6523SM  C22F 8474   6.229   5.122  14.990 -0.0611  0.1668 -0.2551
   6523SM  H22F 8475   6.339   5.132  15.004 -0.2199  0.9770  0.5607
   6523SM  H22G 8476   6.175   5.218  15.005 -1.3241 -0.4819 -0.4378
   6523SM  C23F 8477   6.199   5.075  14.850 -0.0949  0.0879 -0.5898
   6523SM  H23F 8478   6.094   5.099  14.824 -0.5884 -2.5249 -1.2922
   6523SM  H23G 8479   6.209   4.965  14.836  0.0916  0.1880 -1.2529
   6523SM  H23H 8480   6.269   5.120  14.777  0.1040  2.0964  0.7748
   6623SM     N 8481   6.000   1.596  17.493  0.5013  1.1653 -0.3325
   6623SM   C15 8482   5.930   1.669  17.382  0.2373 -0.3796 -0.3746
   6623SM  H15A 8483   5.944   1.776  17.380 -1.0017 -0.1764 -2.8763
   6623SM  H15B 8484   5.824   1.648  17.381  0.6825 -3.0825  0.6073
   6623SM  H15C 8485   5.969   1.643  17.285 -0.8776  0.3010 -1.0247
   6623SM   C14 8486   6.143   1.606  17.467  0.4887 -0.1157 -0.3591
   6623SM  H14A 8487   6.152   1.564  17.368 -3.4063  2.4864 -2.0559
   6623SM  H14B 8488   6.204   1.563  17.546  0.1291  0.3020  0.1567
   6623SM  H14C 8489   6.173   1.710  17.467 -0.6832  0.2541  0.7747
   6623SM   C13 8490   5.969   1.668  17.618  0.2809 -0.0865  0.0289
   6623SM  H13A 8491   6.040   1.654  17.698 -2.6727  0.2316  2.9272
   6623SM  H13B 8492   5.875   1.642  17.665  0.4418  2.7380  2.1084
   6623SM  H13C 8493   5.968   1.773  17.594 -1.0796  0.1882  1.2123
   6623SM   C12 8494   5.963   1.449  17.500  0.2340 -0.4781 -0.3351
   6623SM  H12A 8495   6.044   1.399  17.552  0.9732  2.7864  1.9630
   6623SM  H12B 8496   5.957   1.415  17.398 -3.2036  1.4364 -0.9415
   6623SM   C11 8497   5.837   1.413  17.572  0.4082 -0.3364 -0.4558
   6623SM  H11A 8498   5.849   1.432  17.681 -0.6680 -3.5320  0.3464
   6623SM  H11B 8499   5.818   1.305  17.592 -0.3225  0.4619  4.3476
   6623SM     P 8500   5.655   1.434  17.389  0.3545  0.2026  0.2197
   6623SM   O13 8501   5.546   1.339  17.418  0.2534  0.4882 -0.1531
   6623SM   O14 8502   5.614   1.551  17.310  0.2785 -0.7982 -0.0741
   6623SM   O11 8503   5.773   1.364  17.309 -0.3869  0.0494  0.1674
   6623SM   O12 8504   5.725   1.487  17.523  0.7004 -0.2291  0.2064
   6623SM   C1S 8505   5.774   1.251  17.219 -0.4697  0.5304 -0.6710
   6623SM   H1S 8506   5.691   1.183  17.249 -0.8388  1.4515  0.4973
   6623SM   H1T 8507   5.868   1.195  17.237 -0.5535  0.8826  1.0059
   6623SM    NF 8508   5.742   1.171  16.999  0.5767 -0.0210  0.6568
   6623SM   HNF 8509   5.821   1.122  16.964  0.7452  0.2915  0.5906
   6623SM   C2S 8510   5.760   1.292  17.073 -0.3554 -0.0345 -0.0071
   6623SM   H2S 8511   5.671   1.355  17.047 -0.9824 -0.4999  0.9841
   6623SM   C3S 8512   5.880   1.385  17.031 -0.3173 -0.2668  0.0054
   6623SM   H3S 8513   5.978   1.333  17.041 -0.4832 -0.5610  0.1166
   6623SM    O3 8514   5.893   1.516  17.099 -0.1777  0.2094  0.4848
   6623SM   HO3 8515   5.834   1.511  17.175  0.2373 -0.9021  0.7481
   6623SM   C4S 8516   5.875   1.413  16.890 -0.0455 -0.0847  0.1731
   6623SM   H4S 8517   5.781   1.463  16.863 -0.8705 -0.3693  2.2805
   6623SM   C5S 8518   5.970   1.393  16.798 -0.1034 -0.3789 -0.5923
   6623SM   H5S 8519   6.066   1.350  16.830 -0.4200 -1.0539 -0.5351
   6623SM   C6S 8520   5.973   1.417  16.657  0.1822  0.6052  0.7429
   6623SM   H6S 8521   5.964   1.318  16.607 -0.8836  1.3087 -0.5246
   6623SM   H6T 8522   6.072   1.454  16.623 -0.4309  0.2547 -1.6140
   6623SM   C7S 8523   5.862   1.512  16.609  0.5572  0.0879  0.9174
   6623SM   H7S 8524   5.850   1.605  16.670 -0.5751  1.3099 -1.0691
   6623SM   H7T 8525   5.762   1.463  16.617  0.0263  1.0570  0.4558
   6623SM   C8S 8526   5.901   1.549  16.464  0.0097 -0.4706 -0.4040
   6623SM   H8S 8527   5.903   1.464  16.393 -0.5427 -0.2806 -0.6505
   6623SM   H8T 8528   6.000   1.597  16.478 -1.3897  2.2608  0.9793
   6623SM   C9S 8529   5.815   1.659  16.394 -0.1664 -0.2925  0.4270
   6623SM   H9S 8530   5.803   1.733  16.476  1.3005  1.5890 -0.9628
   6623SM   H9T 8531   5.718   1.621  16.356  0.9885 -0.2264 -2.8993
   6623SM  C10S 8532   5.889   1.724  16.278 -0.2811  0.0345  0.8396
   6623SM  H10S 8533   5.948   1.642  16.233 -0.2748 -1.1080  2.8188
   6623SM  H10T 8534   5.970   1.790  16.314 -0.7473  0.8900  0.3493
   6623SM  C11S 8535   5.797   1.785  16.171  0.2572 -0.2164  0.3451
   6623SM  H11S 8536   5.740   1.861  16.229 -0.4539 -0.4835  0.0019
   6623SM  H11T 8537   5.717   1.718  16.133 -0.9994  0.2908  1.9747
   6623SM  C12S 8538   5.853   1.857  16.048 -0.4613 -0.5126  0.0028
   6623SM  H12S 8539   5.888   1.779  15.977 -0.5480  1.7027 -2.6043
   6623SM  H12T 8540   5.941   1.917  16.079 -1.6963  1.4606 -0.1518
   6623SM  C13S 8541   5.762   1.948  15.972 -0.1919 -0.0225  0.2959
   6623SM  H13S 8542   5.832   2.013  15.917 -0.2871  0.0224  0.2280
   6623SM  H13T 8543   5.713   2.022  16.040  2.0634  1.1942  0.6911
   6623SM  C14S 8544   5.658   1.884  15.878  0.3297  0.2876 -0.6501
   6623SM  H14S 8545   5.598   1.826  15.951  1.2659 -0.2983 -0.3432
   6623SM  H14T 8546   5.701   1.809  15.808 -1.3868  0.3146 -1.8237
   6623SM  C15S 8547   5.572   1.990  15.801 -0.1343  0.1951 -0.5881
   6623SM  H15S 8548   5.648   2.043  15.740  1.3171  0.4820  1.3678
   6623SM  H15T 8549   5.524   2.059  15.873 -1.7601 -1.4678  0.0060
   6623SM  C16S 8550   5.476   1.913  15.709 -0.4946 -0.9743 -0.4352
   6623SM  H16S 8551   5.411   1.843  15.765  0.1515  0.1087  1.7989
   6623SM  H16T 8552   5.548   1.858  15.644  1.4539  0.8635  0.0385
   6623SM  C17S 8553   5.385   2.016  15.642 -0.0807  0.2872 -0.0644
   6623SM  H17S 8554   5.435   2.112  15.614  1.4545 -0.6700 -0.6898
   6623SM  H17T 8555   5.304   2.048  15.713 -0.0537 -0.3267  0.2459
   6623SM  C18S 8556   5.329   1.950  15.509 -0.5796  0.3015 -1.5881
   6623SM  H18S 8557   5.243   2.013  15.475 -0.0714  0.5448 -2.4709
   6623SM  H18T 8558   5.288   1.851  15.538 -0.0511  0.7420  0.8256
   6623SM  H18U 8559   5.409   1.941  15.432  0.5734 -0.1261 -0.3652
   6623SM   C1F 8560   5.628   1.105  16.997  0.7378 -0.5154  0.5742
   6623SM    OF 8561   5.528   1.134  17.066 -0.3341  0.3515  0.5067
   6623SM   C2F 8562   5.636   0.991  16.899 -0.3510  0.3330 -0.0775
   6623SM   H2F 8563   5.563   0.915  16.931 -0.5699 -0.4717 -2.2934
   6623SM   H2G 8564   5.742   0.955  16.897 -0.6473 -0.5384 -0.6266
   6623SM   C3F 8565   5.585   1.031  16.755 -0.3906  0.6211 -0.0794
   6623SM   H3F 8566   5.489   1.085  16.764 -0.4943  0.1718  2.2395
   6623SM   H3G 8567   5.565   0.945  16.687  1.0195  2.0605 -2.4319
   6623SM   C4F 8568   5.687   1.115  16.683 -0.3364  0.1190 -0.3740
   6623SM   H4F 8569   5.756   1.048  16.628  1.0564 -0.0688  1.5281
   6623SM   H4G 8570   5.756   1.176  16.745 -0.0103  0.1144 -0.7308
   6623SM   C5F 8571   5.616   1.211  16.592 -0.3600  0.2573  0.1862
   6623SM   H5F 8572   5.699   1.254  16.532 -1.3913  3.0622  0.6303
   6623SM   H5G 8573   5.584   1.302  16.646 -0.2295  0.0979  0.5387
   6623SM   C6F 8574   5.507   1.153  16.502  0.7374 -0.0849  0.6396
   6623SM   H6F 8575   5.416   1.135  16.563 -1.1485  2.8158 -1.0642
   6623SM   H6G 8576   5.533   1.054  16.461  0.4100  0.4881 -1.0157
   6623SM   C7F 8577   5.465   1.257  16.395  0.3405  0.3242 -0.2033
   6623SM   H7F 8578   5.453   1.359  16.437 -3.3094  0.1034 -0.4205
   6623SM   H7G 8579   5.363   1.239  16.356  0.3696  0.5127 -0.3687
   6623SM   C8F 8580   5.553   1.239  16.268 -0.3461 -0.7706 -0.3802
   6623SM   H8F 8581   5.556   1.132  16.242 -0.7256 -0.6583 -0.8998
   6623SM   H8G 8582   5.657   1.273  16.289  0.2802 -2.5158 -0.5538
   6623SM   C9F 8583   5.493   1.313  16.146 -0.2794  0.3802  0.6167
   6623SM   H9F 8584   5.439   1.406  16.173 -1.4884 -0.0762 -0.1383
   6623SM   H9G 8585   5.419   1.251  16.091 -0.1186 -0.1527  0.9933
   6623SM  C10F 8586   5.604   1.344  16.046 -0.5828 -0.3110  0.1618
   6623SM  H10F 8587   5.647   1.248  16.010 -0.0030 -0.0521  0.1669
   6623SM  H10G 8588   5.686   1.391  16.103 -0.9717  0.1011  0.3955
   6623SM  C11F 8589   5.576   1.438  15.930 -0.7767  0.3210 -0.0403
   6623SM  H11F 8590   5.572   1.541  15.972 -0.0543  0.1041  0.5653
   6623SM  H11G 8591   5.476   1.407  15.890 -1.0540  0.1371  0.7835
   6623SM  C12F 8592   5.678   1.433  15.823 -0.6410  1.0833  0.9035
   6623SM  H12F 8593   5.679   1.332  15.777 -1.0842  0.8704  1.3455
   6623SM  H12G 8594   5.776   1.461  15.867 -0.2104  0.2524  0.4822
   6623SM  C13F 8595   5.647   1.526  15.709 -0.2208 -0.3970  0.6782
   6623SM  H13F 8596   5.618   1.621  15.759  1.8657  1.2952 -1.1754
   6623SM  H13G 8597   5.559   1.479  15.659 -0.9279  2.0371 -0.4792
   6623SM  C14F 8598   5.757   1.554  15.603  0.2132 -0.0539  0.5680
   6623SM  H14F 8599   5.772   1.452  15.560  1.1976  0.3254 -0.0136
   6623SM  H14G 8600   5.849   1.587  15.655  0.6847 -1.5051  0.7081
   6623SM  C15F 8601   5.716   1.651  15.489 -0.3948 -0.1885 -0.3580
   6623SM  H15F 8602   5.732   1.757  15.518  0.1500 -0.2454 -0.4378
   6623SM  H15G 8603   5.611   1.626  15.461 -0.3602  0.6645 -1.3083
   6623SM  C16F 8604   5.795   1.634  15.359  0.1851  0.6702 -0.2354
   6623SM  H16F 8605   5.903   1.621  15.381 -0.4073 -1.9274  1.6473
   6623SM  H16G 8606   5.783   1.723  15.293  4.9842  1.6874 -0.1150
   6623SM  C17F 8607   5.745   1.506  15.290  0.1166  0.4440  1.3943
   6623SM  H17F 8608   5.642   1.516  15.249  1.2366  0.0974 -1.8422
   6623SM  H17G 8609   5.760   1.412  15.347  0.1667  1.4377  3.0743
   6623SM  C18F 8610   5.822   1.489  15.149 -0.1828 -0.5608 -0.3639
   6623SM  H18F 8611   5.926   1.472  15.182 -0.8280 -1.7658  1.2003
   6623SM  H18G 8612   5.802   1.573  15.079 -0.6848 -1.1275 -0.9084
   6623SM  C19F 8613   5.765   1.363  15.089  0.4269 -0.0612 -0.2761
   6623SM  H19F 8614   5.655   1.368  15.075  0.3512 -0.9470 -0.0523
   6623SM  H19G 8615   5.791   1.270  15.144  1.3007 -0.7946 -1.8513
   6623SM  C20F 8616   5.825   1.336  14.946 -0.2560 -1.2841  0.1388
   6623SM  H20F 8617   5.770   1.257  14.891 -0.7304  1.2302 -3.3018
   6623SM  H20G 8618   5.927   1.294  14.963  0.3910 -0.5304 -1.6043
   6623SM  C21F 8619   5.835   1.455  14.858 -0.7739 -0.9587  0.5019
   6623SM  H21F 8620   5.911   1.526  14.899 -2.0868 -0.0628  1.4847
   6623SM  H21G 8621   5.735   1.503  14.850  0.8986  2.8200 -0.2859
   6623SM  C22F 8622   5.886   1.423  14.713 -0.5332  0.1257  0.2633
   6623SM  H22F 8623   5.857   1.510  14.651 -0.8119 -0.3185 -0.2403
   6623SM  H22G 8624   5.839   1.326  14.684  1.4888 -1.1123  0.8972
   6623SM  C23F 8625   6.038   1.402  14.708  0.3716 -0.4548 -0.2947
   6623SM  H23F 8626   6.074   1.385  14.604  0.5720  1.4713 -0.5839
   6623SM  H23G 8627   6.067   1.319  14.775 -1.5329 -0.0670  1.0974
   6623SM  H23H 8628   6.084   1.500  14.734 -0.1185 -0.4422  0.5557
   6723SM     N 8629   4.380   5.273  17.645 -0.9545  0.3122 -0.2984
   6723SM   C15 8630   4.500   5.205  17.712 -0.1970 -0.6436 -0.6279
   6723SM  H15A 8631   4.493   5.101  17.684 -0.5913 -0.3993 -1.5171
   6723SM  H15B 8632   4.491   5.220  17.818 -0.3797 -0.2761 -0.6896
   6723SM  H15C 8633   4.599   5.241  17.689 -0.0834 -1.1924 -1.0137
   6723SM   C14 8634   4.257   5.200  17.687  0.1937 -0.1856  0.1727
   6723SM  H14A 8635   4.224   5.235  17.784 -2.9947  1.1638 -1.2746
   6723SM  H14B 8636   4.258   5.092  17.674 -1.0770 -0.3960  1.4208
   6723SM  H14C 8637   4.175   5.239  17.629 -0.3260 -0.6530  0.5718
   6723SM   C13 8638   4.363   5.412  17.683  0.5049  0.5849  0.2098
   6723SM  H13A 8639   4.317   5.414  17.780 -1.3957  0.9940 -0.6521
   6723SM  H13B 8640   4.288   5.454  17.617  2.6506  0.2487 -2.6720
   6723SM  H13C 8641   4.450   5.476  17.677 -0.1850  1.5384  0.0608
   6723SM   C12 8642   4.398   5.266  17.491  0.1268 -0.1159 -0.2025
   6723SM  H12A 8643   4.436   5.166  17.473 -1.0266 -0.4591 -0.8088
   6723SM  H12B 8644   4.477   5.335  17.465 -0.1777  0.6077  0.7342
   6723SM   C11 8645   4.271   5.295  17.401 -0.5660  0.4621  0.1136
   6723SM  H11A 8646   4.185   5.226  17.415  0.5637 -1.4008 -1.6758
   6723SM  H11B 8647   4.305   5.269  17.299 -1.2480 -1.0649  0.2443
   6723SM     P 8648   4.096   5.496  17.402  0.0742 -0.0267 -0.4059
   6723SM   O13 8649   4.005   5.415  17.484  0.5810  0.4902  0.3589
   6723SM   O14 8650   4.097   5.647  17.429 -0.5931  0.1175 -0.0922
   6723SM   O11 8651   4.059   5.483  17.245 -0.4344 -0.6605 -0.5101
   6723SM   O12 8652   4.238   5.429  17.405 -0.3994 -0.0787 -0.2630
   6723SM   C1S 8653   4.018   5.359  17.188 -0.7581  0.7717 -0.0309
   6723SM   H1S 8654   3.918   5.325  17.224 -1.6921  1.0547 -2.1633
   6723SM   H1T 8655   4.084   5.271  17.198 -2.7104 -0.7254  0.3503
   6723SM    NF 8656   3.895   5.314  16.979 -0.4151  0.5903  0.7101
   6723SM   HNF 8657   3.922   5.231  16.931  1.3859  1.9836 -0.8180
   6723SM   C2S 8658   3.999   5.396  17.036 -0.2194 -0.3557  0.3071
   6723SM   H2S 8659   3.965   5.501  17.033 -0.2258 -0.2785  2.1009
   6723SM   C3S 8660   4.138   5.368  16.976  0.6016  0.0996 -0.0975
   6723SM   H3S 8661   4.149   5.258  16.985 -1.3970 -0.0297  1.3381
   6723SM    O3 8662   4.244   5.449  17.021  0.3651 -0.4269 -0.6335
   6723SM   HO3 8663   4.207   5.495  17.096  1.9112  1.3771 -0.9162
   6723SM   C4S 8664   4.133   5.393  16.829  0.2806 -1.0440 -0.0037
   6723SM   H4S 8665   4.157   5.310  16.761  1.7801  0.8327 -1.8753
   6723SM   C5S 8666   4.099   5.517  16.766 -0.0929 -0.1939 -0.4721
   6723SM   H5S 8667   4.075   5.602  16.831  0.8049 -0.1537 -0.1737
   6723SM   C6S 8668   4.098   5.529  16.613 -0.3610  0.3381 -0.0353
   6723SM   H6S 8669   4.191   5.491  16.564 -0.1613  0.7592  0.0129
   6723SM   H6T 8670   4.087   5.635  16.583 -0.1093  0.7418  1.2587
   6723SM   C7S 8671   3.983   5.449  16.545 -0.4888 -0.3631 -0.2430
   6723SM   H7S 8672   3.896   5.515  16.563  1.1158  0.8683  4.0617
   6723SM   H7T 8673   3.972   5.349  16.592 -0.3398 -0.6988 -0.9033
   6723SM   C8S 8674   4.015   5.425  16.397  0.6464  0.6413 -0.0349
   6723SM   H8S 8675   4.109   5.365  16.405  1.3155  1.7320  0.6372
   6723SM   H8T 8676   4.031   5.518  16.339 -0.7349  0.4408 -0.7612
   6723SM   C9S 8677   3.903   5.335  16.341 -0.2377 -0.1648  0.3047
   6723SM   H9S 8678   3.810   5.391  16.365  1.4503  3.4497 -0.9419
   6723SM   H9T 8679   3.902   5.245  16.406  1.9112 -0.3332  0.1674
   6723SM  C10S 8680   3.929   5.308  16.192  0.2697 -0.4957  0.8659
   6723SM  H10S 8681   4.023   5.249  16.187  1.7026  1.6666  1.0361
   6723SM  H10T 8682   3.951   5.394  16.126  0.6341 -1.4317 -0.2634
   6723SM  C11S 8683   3.809   5.226  16.127  0.0217 -0.3618 -0.9893
   6723SM  H11S 8684   3.715   5.286  16.130  0.8205  1.0407 -2.2037
   6723SM  H11T 8685   3.786   5.145  16.199  0.9570  0.6381  0.5073
   6723SM  C12S 8686   3.837   5.183  15.983 -0.2964  0.5670 -0.0804
   6723SM  H12S 8687   3.937   5.135  15.980  0.3986  1.5934  2.8658
   6723SM  H12T 8688   3.844   5.277  15.924 -0.0706  1.0386  0.6736
   6723SM  C13S 8689   3.728   5.086  15.929 -0.0693  0.6137 -0.5321
   6723SM  H13S 8690   3.630   5.137  15.929  0.0259  0.8054 -1.3866
   6723SM  H13T 8691   3.714   5.004  16.003  0.6702  0.1999 -0.8389
   6723SM  C14S 8692   3.757   5.033  15.784 -0.3466 -0.3258 -0.5937
   6723SM  H14S 8693   3.676   4.960  15.765  0.0159 -1.5411  2.0765
   6723SM  H14T 8694   3.854   4.982  15.768  0.3511 -0.6990  3.6772
   6723SM  C15S 8695   3.748   5.148  15.685  0.1168  0.3131 -0.4854
   6723SM  H15S 8696   3.835   5.213  15.711  0.3934 -0.2559  0.0303
   6723SM  H15T 8697   3.653   5.201  15.705  0.0051 -0.1665  0.2954
   6723SM  C16S 8698   3.765   5.083  15.540  0.3330 -0.7193 -0.2568
   6723SM  H16S 8699   3.683   5.011  15.520 -0.8439  0.5288  0.0075
   6723SM  H16T 8700   3.863   5.030  15.532  1.4628  1.4620 -2.5979
   6723SM  C17S 8701   3.757   5.189  15.426  0.0726 -0.2192 -0.2452
   6723SM  H17S 8702   3.815   5.153  15.338 -0.8990 -2.6761  0.0330
   6723SM  H17T 8703   3.815   5.274  15.468 -0.8610  0.4646 -0.3246
   6723SM  C18S 8704   3.616   5.235  15.409  0.2895  0.2532  0.4647
   6723SM  H18S 8705   3.549   5.252  15.496 -1.8493 -0.4328 -0.9743
   6723SM  H18T 8706   3.559   5.154  15.359  0.9684 -0.6325  1.0760
   6723SM  H18U 8707   3.603   5.326  15.348  0.1174 -0.6842 -0.9364
   6723SM   C1F 8708   3.769   5.322  16.999 -0.1030  0.3103 -0.6084
   6723SM    OF 8709   3.722   5.410  17.068 -0.4387  0.2038 -0.6285
   6723SM   C2F 8710   3.674   5.209  16.932  0.2034 -0.6006 -0.2393
   6723SM   H2F 8711   3.615   5.167  17.015 -1.2137  1.1795 -0.2912
   6723SM   H2G 8712   3.741   5.131  16.890 -2.4548 -2.8243 -0.6023
   6723SM   C3F 8713   3.599   5.266  16.809  0.5256  0.7199 -0.0199
   6723SM   H3F 8714   3.678   5.322  16.755  1.2402  1.9652  2.1916
   6723SM   H3G 8715   3.524   5.337  16.850  0.2561 -0.2752  1.2735
   6723SM   C4F 8716   3.538   5.157  16.723 -0.2621  0.3174 -0.4837
   6723SM   H4F 8717   3.465   5.094  16.779 -1.1432  0.5962 -1.2832
   6723SM   H4G 8718   3.627   5.096  16.697 -0.2210 -0.2144  0.8161
   6723SM   C5F 8719   3.473   5.235  16.602 -0.1622  0.1826 -0.0825
   6723SM   H5F 8720   3.561   5.280  16.552  0.7518  0.8144  2.0004
   6723SM   H5G 8721   3.401   5.314  16.634 -0.6680  0.0185 -0.8000
   6723SM   C6F 8722   3.400   5.145  16.498 -0.5824 -0.4913  0.4199
   6723SM   H6F 8723   3.341   5.209  16.429 -0.4075 -0.1797  0.5534
   6723SM   H6G 8724   3.318   5.084  16.542 -2.9136  2.4062  0.3881
   6723SM   C7F 8725   3.502   5.054  16.428  0.3095 -0.5334 -0.1673
   6723SM   H7F 8726   3.546   4.993  16.510 -0.2271 -1.2715 -0.4238
   6723SM   H7G 8727   3.587   5.110  16.383  0.0435  0.6214  0.7122
   6723SM   C8F 8728   3.432   4.953  16.332  0.2063 -0.6002  0.6763
   6723SM   H8F 8729   3.349   4.897  16.381  0.0679 -0.6391  0.4037
   6723SM   H8G 8730   3.503   4.869  16.314  1.2527 -0.1364  2.4673
   6723SM   C9F 8731   3.392   5.015  16.199 -0.4954  0.9287  0.0763
   6723SM   H9F 8732   3.470   5.062  16.136 -0.8572  1.9448  0.3640
   6723SM   H9G 8733   3.327   5.102  16.224 -0.9807  0.5122  0.2903
   6723SM  C10F 8734   3.306   4.913  16.123 -0.1898  0.4966 -0.1544
   6723SM  H10F 8735   3.216   4.890  16.185  1.0696  1.9597  2.3506
   6723SM  H10G 8736   3.357   4.815  16.111 -0.2504 -0.2394  3.9954
   6723SM  C11F 8737   3.256   4.969  15.992 -1.0153  0.1027  0.2734
   6723SM  H11F 8738   3.190   5.053  16.023  0.9550  1.8589 -0.0598
   6723SM  H11G 8739   3.206   4.887  15.936  1.0654 -1.4187  0.5416
   6723SM  C12F 8740   3.365   5.026  15.909  0.1148  0.0270  0.3851
   6723SM  H12F 8741   3.459   4.967  15.916  0.9305  0.4289 -4.3763
   6723SM  H12G 8742   3.400   5.130  15.929  0.9558 -0.1319 -0.2046
   6723SM  C13F 8743   3.322   5.040  15.763  0.3127  0.3353 -0.6517
   6723SM  H13F 8744   3.231   4.981  15.738  0.8720 -0.6194 -0.4831
   6723SM  H13G 8745   3.404   4.999  15.700  0.5649  1.3864 -1.0223
   6723SM  C14F 8746   3.291   5.183  15.723  0.3890 -0.0319 -0.1701
   6723SM  H14F 8747   3.389   5.235  15.718  1.1509 -1.4870 -0.8235
   6723SM  H14G 8748   3.217   5.224  15.796  1.5508 -1.1517  1.7100
   6723SM  C15F 8749   3.231   5.207  15.587 -0.5269  0.2682 -0.0892
   6723SM  H15F 8750   3.302   5.187  15.504  0.3217  2.0433  0.1627
   6723SM  H15G 8751   3.222   5.318  15.576 -1.0114  0.2256 -0.1378
   6723SM  C16F 8752   3.089   5.148  15.565 -0.0827 -0.9811  0.2768
   6723SM  H16F 8753   3.113   5.040  15.552  0.9588 -0.7152 -0.1539
   6723SM  H16G 8754   3.051   5.189  15.469 -1.6092 -1.5639  0.6082
   6723SM  C17F 8755   2.989   5.190  15.668  0.1233 -0.3107 -0.1511
   6723SM  H17F 8756   2.977   5.301  15.664 -0.8728 -0.4344 -1.0791
   6723SM  H17G 8757   3.030   5.151  15.763 -0.5178 -1.9395 -0.5205
   6723SM  C18F 8758   2.844   5.137  15.646  0.1934  0.3759 -0.0439
   6723SM  H18F 8759   2.779   5.173  15.729 -0.9356  1.0735 -1.1889
   6723SM  H18G 8760   2.848   5.028  15.667  1.0051  0.2980 -0.5520
   6723SM  C19F 8761   2.774   5.161  15.512  0.4306 -0.9328  0.2060
   6723SM  H19F 8762   2.675   5.111  15.514 -1.2277  1.8826 -2.4663
   6723SM  H19G 8763   2.831   5.114  15.429  0.0461 -2.9292  1.0289
   6723SM  C20F 8764   2.719   5.310  15.507  0.4205  0.7938  0.3525
   6723SM  H20F 8765   2.809   5.375  15.504 -0.3947  1.9155 -1.4649
   6723SM  H20G 8766   2.644   5.324  15.589 -1.8606  1.8817 -1.7791
   6723SM  C21F 8767   2.648   5.346  15.369 -0.9658  0.3180 -0.0429
   6723SM  H21F 8768   2.573   5.266  15.352 -1.2789  0.3937  0.9140
   6723SM  H21G 8769   2.730   5.319  15.299  0.1265  2.6880  0.2431
   6723SM  C22F 8770   2.587   5.489  15.368 -0.0533 -0.1509  0.5483
   6723SM  H22F 8771   2.513   5.501  15.450  2.5648  0.2639  3.0237
   6723SM  H22G 8772   2.538   5.506  15.269  1.5566 -0.6364 -0.3734
   6723SM  C23F 8773   2.688   5.606  15.391 -0.4001  0.5259 -0.0494
   6723SM  H23F 8774   2.745   5.576  15.481 -3.0606 -1.8972  0.9937
   6723SM  H23G 8775   2.639   5.704  15.407 -0.9887  0.0092  1.5214
   6723SM  H23H 8776   2.755   5.613  15.303  1.4764 -3.1709  0.8860
   6823SM     N 8777   4.836   0.329  17.204 -0.2739 -0.5889 -0.3841
   6823SM   C15 8778   4.761   0.224  17.270 -0.2641  0.0479 -0.2011
   6823SM  H15A 8779   4.737   0.248  17.372  2.1670  1.8166  0.0417
   6823SM  H15B 8780   4.816   0.132  17.283  0.9932  0.7041 -0.6762
   6823SM  H15C 8781   4.672   0.193  17.217  0.2996  0.4728 -1.4364
   6823SM   C14 8782   4.964   0.346  17.268 -0.1389 -0.4269  0.5414
   6823SM  H14A 8783   5.025   0.400  17.198  0.7129 -2.7366 -0.5861
   6823SM  H14B 8784   5.013   0.255  17.299  1.0360  0.2100  0.5849
   6823SM  H14C 8785   4.944   0.403  17.358  0.8854 -0.2261  0.6492
   6823SM   C13 8786   4.870   0.279  17.065  0.0825 -0.1749  0.3230
   6823SM  H13A 8787   4.787   0.265  16.997 -2.2130 -0.8879  3.0808
   6823SM  H13B 8788   4.923   0.185  17.071  2.0442  0.7843 -0.7940
   6823SM  H13C 8789   4.930   0.356  17.020  0.0007  0.8122  1.8502
   6823SM   C12 8790   4.753   0.459  17.189  0.3794 -0.2326  0.3251
   6823SM  H12A 8791   4.664   0.427  17.137 -0.3927  0.7059  1.0355
   6823SM  H12B 8792   4.805   0.523  17.119 -0.8984 -0.2063 -0.6279
   6823SM   C11 8793   4.707   0.528  17.323  0.4167 -0.0479  0.7633
   6823SM  H11A 8794   4.648   0.452  17.379 -1.7485  0.7010 -0.3939
   6823SM  H11B 8795   4.634   0.606  17.292 -2.9038 -3.0481  0.3771
   6823SM     P 8796   4.828   0.736  17.418  0.1913  0.2250 -0.1336
   6823SM   O13 8797   4.695   0.803  17.438 -0.0659 -0.2452 -0.0620
   6823SM   O14 8798   4.930   0.753  17.530  0.3616 -0.3418 -0.2559
   6823SM   O11 8799   4.892   0.775  17.278 -0.0309  0.2700 -0.3085
   6823SM   O12 8800   4.814   0.576  17.397 -0.3474  0.1767  0.1673
   6823SM   C1S 8801   5.018   0.721  17.237  0.0970  0.2626 -0.1489
   6823SM   H1S 8802   5.003   0.612  17.249  2.8466 -0.0083  1.9555
   6823SM   H1T 8803   5.098   0.752  17.308 -1.7986  0.1746  2.1538
   6823SM    NF 8804   5.161   0.696  17.044 -0.4954  0.1005 -0.4762
   6823SM   HNF 8805   5.259   0.713  17.050 -0.2995 -0.6828 -1.2125
   6823SM   C2S 8806   5.057   0.774  17.103  0.2238  0.2568  0.0901
   6823SM   H2S 8807   4.969   0.774  17.036  2.0078 -0.3834 -2.4221
   6823SM   C3S 8808   5.089   0.921  17.120 -0.2665  0.3069  0.9086
   6823SM   H3S 8809   5.180   0.925  17.184  1.3793 -1.6822 -1.1506
   6823SM    O3 8810   4.988   1.001  17.184 -0.1043  0.7873 -0.0028
   6823SM   HO3 8811   4.933   0.938  17.232 -0.1076  1.1135  0.4230
   6823SM   C4S 8812   5.124   0.983  16.986 -0.0373 -0.1177  0.0027
   6823SM   H4S 8813   5.230   0.971  16.962  0.0612  1.7274 -0.6084
   6823SM   C5S 8814   5.040   1.051  16.906 -0.4042 -0.4074  0.7284
   6823SM   H5S 8815   4.941   1.079  16.945  0.1595  1.7297  0.7640
   6823SM   C6S 8816   5.088   1.114  16.772  0.1409 -0.5090 -0.1930
   6823SM   H6S 8817   5.046   1.041  16.699 -0.5571 -0.1015 -0.2063
   6823SM   H6T 8818   5.199   1.115  16.768  0.1982 -0.0769  1.2270
   6823SM   C7S 8819   5.039   1.256  16.752  0.2696  0.8922 -0.1801
   6823SM   H7S 8820   5.093   1.328  16.817 -0.2458  0.9235  0.2211
   6823SM   H7T 8821   4.934   1.272  16.787  0.5747  1.2976  0.5831
   6823SM   C8S 8822   5.070   1.306  16.608  0.0437 -0.0546 -0.0508
   6823SM   H8S 8823   5.049   1.216  16.547  0.8790 -0.3662  0.1042
   6823SM   H8T 8824   5.181   1.319  16.604  0.1618 -0.2999  1.6788
   6823SM   C9S 8825   4.996   1.433  16.576  0.1814  0.2555 -0.6607
   6823SM   H9S 8826   5.022   1.510  16.651  0.1319 -1.7496  1.5535
   6823SM   H9T 8827   4.886   1.418  16.587  0.1898  0.7762  0.1521
   6823SM  C10S 8828   5.022   1.494  16.439  0.0102 -0.3906  0.2737
   6823SM  H10S 8829   5.130   1.511  16.417  0.7051 -3.5998  0.6596
   6823SM  H10T 8830   4.967   1.590  16.443  0.7428  0.0460  0.0535
   6823SM  C11S 8831   4.970   1.389  16.327 -0.2286 -0.1541 -0.3785
   6823SM  H11S 8832   4.869   1.360  16.364 -1.4072  2.5037 -1.2476
   6823SM  H11T 8833   5.043   1.305  16.326 -0.3443 -0.2771 -2.3000
   6823SM  C12S 8834   4.951   1.428  16.186 -0.4459  0.0063  0.3069
   6823SM  H12S 8835   4.895   1.524  16.186  1.1321  0.9788 -0.1602
   6823SM  H12T 8836   4.899   1.349  16.128  0.9704 -1.7112  1.2814
   6823SM  C13S 8837   5.086   1.442  16.103  0.1031 -0.0699 -0.2755
   6823SM  H13S 8838   5.141   1.346  16.106  1.3104  0.5359 -1.7012
   6823SM  H13T 8839   5.148   1.528  16.138  2.8094 -2.1605  0.4474
   6823SM  C14S 8840   5.046   1.467  15.958 -0.4625  0.5662  0.3675
   6823SM  H14S 8841   4.973   1.551  15.963 -1.9033 -0.7071  1.9466
   6823SM  H14T 8842   4.980   1.388  15.916  0.1693 -0.4856  1.3165
   6823SM  C15S 8843   5.158   1.477  15.859 -0.7876 -0.3389  0.0073
   6823SM  H15S 8844   5.209   1.379  15.841 -1.1678 -0.5524  0.0806
   6823SM  H15T 8845   5.230   1.557  15.884  1.0055 -2.1456  0.9815
   6823SM  C16S 8846   5.119   1.509  15.710 -0.2799 -0.2640  0.2526
   6823SM  H16S 8847   5.041   1.438  15.677 -2.5296  1.8173  0.7511
   6823SM  H16T 8848   5.209   1.503  15.646 -2.6085  0.5393 -3.4277
   6823SM  C17S 8849   5.041   1.638  15.695  0.1961 -0.4589 -0.6529
   6823SM  H17S 8850   5.100   1.715  15.750  1.0113 -2.4882  1.4587
   6823SM  H17T 8851   4.944   1.647  15.748  0.7765 -0.3732  0.4299
   6823SM  C18S 8852   5.027   1.681  15.552  0.6270  0.3838  0.7008
   6823SM  H18S 8853   4.991   1.594  15.492 -3.8297  2.0045  0.6358
   6823SM  H18T 8854   5.129   1.708  15.517  0.4539  1.9545  1.3309
   6823SM  H18U 8855   4.947   1.756  15.539 -0.5994 -1.2600 -2.3695
   6823SM   C1F 8856   5.137   0.580  16.981  0.3384  0.5856  0.0829
   6823SM    OF 8857   5.034   0.517  17.005 -0.0519  0.3527 -0.1390
   6823SM   C2F 8858   5.236   0.523  16.886 -0.9330 -0.0495  0.5876
   6823SM   H2F 8859   5.283   0.430  16.925  1.5001  1.2686  0.9974
   6823SM   H2G 8860   5.315   0.600  16.874  1.2322 -2.3759 -1.1618
   6823SM   C3F 8861   5.178   0.486  16.742 -0.3560 -0.4980 -0.7672
   6823SM   H3F 8862   5.106   0.403  16.755  1.4985 -2.1885 -0.7213
   6823SM   H3G 8863   5.268   0.441  16.695 -0.4301 -0.1033 -1.3020
   6823SM   C4F 8864   5.127   0.609  16.667 -0.7976 -0.1287  0.8138
   6823SM   H4F 8865   5.212   0.680  16.675 -0.1185 -0.6165 -1.5289
   6823SM   H4G 8866   5.040   0.648  16.725 -1.3820 -0.7428  0.3704
   6823SM   C5F 8867   5.081   0.583  16.526  0.3937  0.0117 -0.4051
   6823SM   H5F 8868   5.024   0.673  16.496 -0.2934  0.1748  1.2815
   6823SM   H5G 8869   5.005   0.502  16.517 -1.1090  1.3881 -0.7455
   6823SM   C6F 8870   5.199   0.547  16.428 -0.2086  0.5056 -0.0671
   6823SM   H6F 8871   5.240   0.448  16.454 -2.6696 -0.8226 -0.8894
   6823SM   H6G 8872   5.274   0.626  16.450  0.7664 -0.9392  2.2019
   6823SM   C7F 8873   5.147   0.548  16.282  0.4034  0.1755 -0.1474
   6823SM   H7F 8874   5.090   0.640  16.255  1.7712  1.3086  0.6318
   6823SM   H7G 8875   5.083   0.458  16.289 -1.9338  1.6577 -1.2647
   6823SM   C8F 8876   5.260   0.537  16.178 -0.3159 -0.0031 -0.4379
   6823SM   H8F 8877   5.214   0.528  16.077 -1.2099  2.6248 -0.3432
   6823SM   H8G 8878   5.318   0.443  16.195  1.4650  1.1563  0.2195
   6823SM   C9F 8879   5.365   0.651  16.166 -0.1029  0.3190  0.2526
   6823SM   H9F 8880   5.431   0.633  16.254 -0.8410 -0.7571  0.5978
   6823SM   H9G 8881   5.305   0.744  16.176 -0.7214 -0.0190 -0.2982
   6823SM  C10F 8882   5.451   0.648  16.042  0.3340  0.3132 -0.6840
   6823SM  H10F 8883   5.400   0.668  15.945  3.7585 -1.9806 -3.1948
   6823SM  H10G 8884   5.509   0.555  16.021  1.5843  0.9563 -0.1298
   6823SM  C11F 8885   5.558   0.760  16.053 -0.2792 -0.0264  0.5773
   6823SM  H11F 8886   5.630   0.720  16.128  0.1567  0.9313  0.6759
   6823SM  H11G 8887   5.505   0.841  16.107 -2.9309 -1.8164  0.8825
   6823SM  C12F 8888   5.627   0.802  15.923 -0.1970 -0.4081 -0.1223
   6823SM  H12F 8889   5.616   0.719  15.849 -0.7341 -1.5585  1.2139
   6823SM  H12G 8890   5.733   0.798  15.955 -0.3971 -1.1355  0.4742
   6823SM  C13F 8891   5.591   0.938  15.863  0.2671 -0.0701  0.2742
   6823SM  H13F 8892   5.666   0.958  15.782 -1.3732  1.0984 -1.0237
   6823SM  H13G 8893   5.596   1.009  15.948  2.3516  0.0887  0.0764
   6823SM  C14F 8894   5.443   0.944  15.808 -0.0783  0.0607 -0.2228
   6823SM  H14F 8895   5.384   0.892  15.886 -0.2047  1.7508  0.8698
   6823SM  H14G 8896   5.438   0.891  15.710 -0.8172 -1.8059  0.7759
   6823SM  C15F 8897   5.378   1.082  15.788  0.0274 -0.4095 -0.1690
   6823SM  H15F 8898   5.367   1.140  15.882  2.3327 -0.4510  0.1990
   6823SM  H15G 8899   5.279   1.074  15.738  0.6276  0.1219 -1.4892
   6823SM  C16F 8900   5.451   1.176  15.696 -0.3907  0.1077 -0.2425
   6823SM  H16F 8901   5.538   1.195  15.761 -1.4582  0.9157  0.9982
   6823SM  H16G 8902   5.399   1.274  15.685  1.6272  1.5613  2.1861
   6823SM  C17F 8903   5.488   1.119  15.556 -0.1327  0.2422  0.7269
   6823SM  H17F 8904   5.397   1.063  15.524  0.6349 -0.6352 -0.0085
   6823SM  H17G 8905   5.572   1.046  15.554 -2.6262 -2.8602 -0.4725
   6823SM  C18F 8906   5.521   1.237  15.461 -0.2077  0.1769 -0.3580
   6823SM  H18F 8907   5.541   1.178  15.369  0.6292 -0.5376  0.2651
   6823SM  H18G 8908   5.615   1.282  15.500 -1.0918 -0.1717  2.4097
   6823SM  C19F 8909   5.419   1.337  15.429 -0.4169  0.5107  0.3180
   6823SM  H19F 8910   5.443   1.393  15.336  0.9953  0.7593  0.8127
   6823SM  H19G 8911   5.404   1.409  15.513  3.3704 -0.4368  2.0239
   6823SM  C20F 8912   5.277   1.275  15.401  0.1865  0.5677  0.0942
   6823SM  H20F 8913   5.250   1.231  15.500  3.2182 -0.9126  0.3831
   6823SM  H20G 8914   5.301   1.192  15.331  1.5038  0.3012  0.8217
   6823SM  C21F 8915   5.164   1.375  15.361 -1.1662 -0.1964  0.4849
   6823SM  H21F 8916   5.185   1.413  15.258 -1.8057  4.0770  1.7605
   6823SM  H21G 8917   5.166   1.461  15.431 -0.9886  1.6804 -1.6960
   6823SM  C22F 8918   5.013   1.321  15.369 -0.6845 -0.1748  0.3927
   6823SM  H22F 8919   4.945   1.408  15.358  2.2502  2.0959 -1.6647
   6823SM  H22G 8920   4.996   1.274  15.469 -0.8372  0.3832  0.6329
   6823SM  C23F 8921   4.976   1.219  15.272  0.0454  0.6291  0.6400
   6823SM  H23F 8922   5.023   1.123  15.303 -0.8260  0.0640  0.2770
   6823SM  H23G 8923   4.980   1.252  15.166 -1.5720  1.3552  0.7735
   6823SM  H23H 8924   4.868   1.208  15.298 -0.1032  2.6902  1.0274
   6923SM     N 8925   6.904   1.570  17.402 -0.6103 -0.2315 -0.4123
   6923SM   C15 8926   6.813   1.621  17.510 -0.2218  0.1293 -0.3584
   6923SM  H15A 8927   6.763   1.711  17.476  1.1317  0.8551 -0.5461
   6923SM  H15B 8928   6.870   1.644  17.599  0.5965  0.3311 -0.9134
   6923SM  H15C 8929   6.734   1.550  17.529 -0.6195  0.8285  0.7046
   6923SM   C14 8930   6.971   1.453  17.460 -0.1463 -0.2926 -0.2802
   6923SM  H14A 8931   7.067   1.484  17.498  0.9225  0.9124 -3.6343
   6923SM  H14B 8932   6.996   1.375  17.390  1.8306  0.9042 -0.9818
   6923SM  H14C 8933   6.909   1.403  17.533 -1.1842  0.8467 -0.3655
   6923SM   C13 8934   6.811   1.534  17.296 -0.0473  0.0408  0.0036
   6923SM  H13A 8935   6.846   1.495  17.202 -1.2206  0.2354 -0.5300
   6923SM  H13B 8936   6.742   1.611  17.267  0.0941  0.1665 -0.0010
   6923SM  H13C 8937   6.734   1.474  17.342  1.6092 -3.1942 -1.0911
   6923SM   C12 8938   7.004   1.674  17.355  0.3343  0.1276  0.0547
   6923SM  H12A 8939   6.952   1.762  17.320 -2.8564 -0.6176  2.4067
   6923SM  H12B 8940   7.055   1.629  17.272 -2.2788 -1.5408 -0.7511
   6923SM   C11 8941   7.115   1.733  17.435 -0.3085 -0.9544 -0.0922
   6923SM  H11A 8942   7.082   1.790  17.524 -0.5247  0.0282 -0.7828
   6923SM  H11B 8943   7.179   1.799  17.372  2.6330 -1.5895  2.0246
   6923SM     P 8944   7.347   1.605  17.451  0.0269 -0.2398  0.4952
   6923SM   O13 8945   7.425   1.727  17.487  0.4726  0.0722  0.0742
   6923SM   O14 8946   7.379   1.481  17.520 -0.3458 -0.1883  0.0082
   6923SM   O11 8947   7.356   1.574  17.292 -0.1789 -0.6318  0.0675
   6923SM   O12 8948   7.193   1.628  17.484  0.0395  0.2180  0.4594
   6923SM   C1S 8949   7.272   1.474  17.240  0.3555 -0.0567  0.1273
   6923SM   H1S 8950   7.171   1.521  17.240  0.6813  0.9923 -3.6769
   6923SM   H1T 8951   7.279   1.383  17.304  0.0368 -0.0310  0.2016
   6923SM    NF 8952   7.189   1.345  17.054  0.3310 -0.4455 -0.5667
   6923SM   HNF 8953   7.220   1.250  17.049  0.1925 -0.6201  1.1919
   6923SM   C2S 8954   7.297   1.437  17.094 -0.4538 -0.0320  0.0704
   6923SM   H2S 8955   7.292   1.529  17.033 -0.5037 -0.4213 -0.5208
   6923SM   C3S 8956   7.434   1.372  17.077 -0.1296 -0.2563  0.0502
   6923SM   H3S 8957   7.443   1.282  17.142  2.0198  0.4151  0.7869
   6923SM    O3 8958   7.539   1.459  17.108 -0.0622 -0.2276 -0.7590
   6923SM   HO3 8959   7.490   1.531  17.149  1.1051  0.5164 -0.6193
   6923SM   C4S 8960   7.463   1.330  16.930  0.5111  0.3653 -0.1965
   6923SM   H4S 8961   7.483   1.408  16.855  0.0051  0.3617 -0.3366
   6923SM   C5S 8962   7.466   1.202  16.884  0.2272  0.0269  0.9058
   6923SM   H5S 8963   7.451   1.129  16.964  0.9663  1.8242  2.7837
   6923SM   C6S 8964   7.492   1.155  16.739  0.4040  0.2331 -1.1530
   6923SM   H6S 8965   7.443   1.056  16.731 -1.2175  0.8548  0.3149
   6923SM   H6T 8966   7.603   1.148  16.734  0.5404  0.0657  1.0096
   6923SM   C7S 8967   7.427   1.250  16.638 -0.5833 -0.3103  0.3977
   6923SM   H7S 8968   7.468   1.353  16.650 -3.6643  1.1923 -0.8544
   6923SM   H7T 8969   7.319   1.251  16.665 -1.0803  3.3436 -1.1165
   6923SM   C8S 8970   7.449   1.200  16.494  0.1508 -0.5104  0.7018
   6923SM   H8S 8971   7.401   1.099  16.493  0.0280 -0.4474  0.3620
   6923SM   H8T 8972   7.558   1.192  16.478  0.0943  1.9392 -1.4280
   6923SM   C9S 8973   7.384   1.293  16.402  0.0354 -0.3824  0.7554
   6923SM   H9S 8974   7.427   1.393  16.427 -1.6329  0.2798  1.0636
   6923SM   H9T 8975   7.278   1.303  16.433 -0.1391 -1.7443  0.6789
   6923SM  C10S 8976   7.403   1.263  16.248  0.3459 -0.1504 -0.3729
   6923SM  H10S 8977   7.380   1.163  16.207  1.1466 -0.6618  0.3804
   6923SM  H10T 8978   7.507   1.284  16.213  1.2075 -0.3054  1.9542
   6923SM  C11S 8979   7.319   1.365  16.177 -0.5349 -0.7947  0.2042
   6923SM  H11S 8980   7.372   1.461  16.190 -1.4549  0.0091 -1.5980
   6923SM  H11T 8981   7.213   1.378  16.209 -0.6733 -1.0614 -0.1344
   6923SM  C12S 8982   7.314   1.324  16.032  0.1100 -0.4660 -0.2436
   6923SM  H12S 8983   7.275   1.222  16.015 -2.6291  0.3458  0.5990
   6923SM  H12T 8984   7.416   1.317  15.987 -0.3026 -0.0694 -1.2672
   6923SM  C13S 8985   7.252   1.434  15.937  0.3643  0.3276  0.1182
   6923SM  H13S 8986   7.289   1.535  15.967  2.1474 -0.4368  0.6185
   6923SM  H13T 8987   7.143   1.417  15.947  0.1842 -0.0260 -2.0194
   6923SM  C14S 8988   7.284   1.414  15.781 -0.7802  0.3206 -0.3694
   6923SM  H14S 8989   7.290   1.308  15.747  1.5151  0.4426 -0.5055
   6923SM  H14T 8990   7.389   1.449  15.774 -0.7179 -0.0603 -1.6078
   6923SM  C15S 8991   7.203   1.497  15.689 -0.5839  0.1883  0.2816
   6923SM  H15S 8992   7.223   1.606  15.687 -0.5477  0.2804 -4.1837
   6923SM  H15T 8993   7.101   1.476  15.729  0.8991 -0.8825  3.8924
   6923SM  C16S 8994   7.226   1.468  15.539  0.1942 -0.1159  0.1825
   6923SM  H16S 8995   7.149   1.500  15.465  0.8512  1.6027  0.2061
   6923SM  H16T 8996   7.229   1.357  15.531 -0.1438 -0.1367  0.3550
   6923SM  C17S 8997   7.354   1.532  15.489 -0.3595 -0.4117  0.9174
   6923SM  H17S 8998   7.444   1.492  15.540 -0.1088 -1.8149 -0.5165
   6923SM  H17T 8999   7.357   1.639  15.519 -2.1219 -0.2073  0.5159
   6923SM  C18S 9000   7.359   1.516  15.336  0.1872  0.2126 -0.3390
   6923SM  H18S 9001   7.295   1.593  15.288  1.6133  2.9618  1.8742
   6923SM  H18T 9002   7.321   1.417  15.303  0.0319  0.2972 -0.4172
   6923SM  H18U 9003   7.464   1.501  15.302  0.9324 -0.6509  2.1097
   6923SM   C1F 9004   7.061   1.378  17.031 -0.4573  0.5434  1.2017
   6923SM    OF 9005   7.017   1.485  17.063  0.0571 -0.3878  0.1959
   6923SM   C2F 9006   6.975   1.277  16.959  0.3688  0.3954 -0.4187
   6923SM   H2F 9007   6.939   1.203  17.034 -2.7811  1.7977 -0.4023
   6923SM   H2G 9008   7.044   1.225  16.889 -2.4625 -1.4517 -2.0214
   6923SM   C3F 9009   6.851   1.332  16.888  0.2963  0.4376  0.3941
   6923SM   H3F 9010   6.792   1.393  16.961  0.6260  1.2735 -0.0278
   6923SM   H3G 9011   6.775   1.258  16.854  0.7108  0.2952 -0.2360
   6923SM   C4F 9012   6.869   1.418  16.768 -0.4337 -0.5252 -0.0050
   6923SM   H4F 9013   6.904   1.518  16.800  1.7337 -1.6042  1.2322
   6923SM   H4G 9014   6.770   1.426  16.717 -0.2699 -0.4309 -0.3149
   6923SM   C5F 9015   6.962   1.356  16.660  0.2563  0.5818  0.6898
   6923SM   H5F 9016   6.935   1.251  16.637 -3.0534  1.7075 -1.2742
   6923SM   H5G 9017   7.059   1.351  16.714  1.0063  0.6883 -0.6134
   6923SM   C6F 9018   6.991   1.446  16.540  0.0587 -0.6142  0.5056
   6923SM   H6F 9019   7.071   1.399  16.479  0.4392 -0.4570  0.8716
   6923SM   H6G 9020   7.033   1.547  16.563  2.0684 -1.3553  0.2846
   6923SM   C7F 9021   6.863   1.457  16.458  0.2585  0.3435 -0.9638
   6923SM   H7F 9022   6.798   1.534  16.504  0.0252  1.6313 -3.3252
   6923SM   H7G 9023   6.806   1.361  16.459 -0.3693  0.7136  0.4529
   6923SM   C8F 9024   6.885   1.478  16.312 -0.1511 -0.7040  0.9379
   6923SM   H8F 9025   6.953   1.398  16.275  3.0749  1.0842  2.5071
   6923SM   H8G 9026   6.955   1.564  16.302 -1.4307  0.3703  0.9289
   6923SM   C9F 9027   6.754   1.482  16.228  0.2980 -0.0602 -0.3681
   6923SM   H9F 9028   6.684   1.556  16.272 -0.5865 -1.1325  0.0691
   6923SM   H9G 9029   6.712   1.379  16.239  1.6544 -0.5712  0.2918
   6923SM  C10F 9030   6.793   1.507  16.085 -0.0965  0.3756 -0.5303
   6923SM  H10F 9031   6.849   1.425  16.034 -1.4024  0.3506 -2.0014
   6923SM  H10G 9032   6.846   1.604  16.077 -0.6623  0.6591 -0.9393
   6923SM  C11F 9033   6.665   1.540  16.007  0.0590  0.4916 -0.1054
   6923SM  H11F 9034   6.634   1.645  16.027  0.4330  0.6278 -0.2492
   6923SM  H11G 9035   6.586   1.476  16.053  0.8951 -0.2165  0.3708
   6923SM  C12F 9036   6.670   1.517  15.851  0.5019  0.3413  0.3314
   6923SM  H12F 9037   6.575   1.541  15.798 -0.2719 -1.6644  0.7059
   6923SM  H12G 9038   6.699   1.412  15.833 -0.4147  0.0219  0.6379
   6923SM  C13F 9039   6.779   1.598  15.791 -0.0821 -0.2833  0.3136
   6923SM  H13F 9040   6.836   1.534  15.720 -0.0292 -0.8099  0.8198
   6923SM  H13G 9041   6.852   1.634  15.867 -0.2965 -0.2685  0.5114
   6923SM  C14F 9042   6.734   1.731  15.718 -0.3111  0.4643 -0.4747
   6923SM  H14F 9043   6.656   1.785  15.776  0.4563  0.0060  1.0379
   6923SM  H14G 9044   6.679   1.701  15.626 -0.6855 -1.7863  0.4169
   6923SM  C15F 9045   6.862   1.817  15.681  0.2947  0.1976 -0.3785
   6923SM  H15F 9046   6.941   1.755  15.634 -0.3046  0.3165 -1.5871
   6923SM  H15G 9047   6.909   1.844  15.779 -3.2884 -1.4737  1.9897
   6923SM  C16F 9048   6.844   1.946  15.605  0.2871  0.0634  0.5713
   6923SM  H16F 9049   6.754   1.994  15.647  1.0108  0.8221  1.3017
   6923SM  H16G 9050   6.824   1.925  15.498 -0.7949 -2.6966  1.2330
   6923SM  C17F 9051   6.967   2.034  15.623 -0.1475 -0.1919 -0.4073
   6923SM  H17F 9052   6.983   2.050  15.732 -0.5306  0.9543 -0.4941
   6923SM  H17G 9053   6.940   2.132  15.577  0.3016 -0.1252 -0.5344
   6923SM  C18F 9054   7.084   1.976  15.536  0.2848  0.0921  0.3404
   6923SM  H18F 9055   7.054   1.966  15.429 -0.7176 -0.6810  0.6698
   6923SM  H18G 9056   7.111   1.874  15.571 -1.7192 -0.4223  0.5711
   6923SM  C19F 9057   7.220   2.045  15.549  0.9024  0.4786 -0.2771
   6923SM  H19F 9058   7.262   2.041  15.651 -1.0276 -1.4299  0.5256
   6923SM  H19G 9059   7.204   2.152  15.526 -2.1846  0.8044  2.5873
   6923SM  C20F 9060   7.335   1.979  15.473  0.3518 -0.1976 -0.3238
   6923SM  H20F 9061   7.318   1.870  15.465 -0.1530 -0.2294  0.9034
   6923SM  H20G 9062   7.433   1.990  15.524  0.3055  0.8252 -0.4236
   6923SM  C21F 9063   7.348   2.035  15.329  0.4382 -0.5744  0.4596
   6923SM  H21F 9064   7.396   2.135  15.331  2.1798 -1.3452  3.3310
   6923SM  H21G 9065   7.256   2.048  15.269  1.1399 -0.1050 -0.5572
   6923SM  C22F 9066   7.447   1.944  15.257 -0.2296  0.2621 -0.6392
   6923SM  H22F 9067   7.405   1.842  15.248 -0.0465  0.2384 -1.3128
   6923SM  H22G 9068   7.538   1.942  15.322 -1.4177 -0.2866  1.0785
   6923SM  C23F 9069   7.485   1.989  15.116  0.0760  0.1750  0.1205
   6923SM  H23F 9070   7.389   1.996  15.060  0.1546  0.2343 -0.0078
   6923SM  H23G 9071   7.547   1.915  15.060 -1.4583 -0.5626 -0.6814
   6923SM  H23H 9072   7.542   2.084  15.121 -0.9248  0.7722  0.4842
   7023SM     N 9073   6.461   0.806  17.666 -0.1315  0.1410 -0.3475
   7023SM   C15 9074   6.544   0.882  17.772 -0.3538 -0.0574 -0.4123
   7023SM  H15A 9075   6.483   0.961  17.814 -1.2448 -1.2777  0.6972
   7023SM  H15B 9076   6.628   0.935  17.730 -1.4028  3.2548  1.2920
   7023SM  H15C 9077   6.568   0.821  17.858 -0.5624  1.9393  1.1304
   7023SM   C14 9078   6.521   0.675  17.635 -0.9550 -0.0284  0.1277
   7023SM  H14A 9079   6.549   0.620  17.723 -0.5447 -1.2022 -0.7101
   7023SM  H14B 9080   6.611   0.682  17.575 -1.0602 -2.2224 -0.3550
   7023SM  H14C 9081   6.457   0.606  17.582  0.5861 -1.7805  0.4833
   7023SM   C13 9082   6.328   0.777  17.723  0.4314 -0.4665  0.8019
   7023SM  H13A 9083   6.273   0.718  17.650  0.2972 -1.0575  1.3694
   7023SM  H13B 9084   6.261   0.860  17.739  1.1263  0.3414 -0.3361
   7023SM  H13C 9085   6.345   0.705  17.801  0.9352 -1.2120  0.0229
   7023SM   C12 9086   6.446   0.888  17.537  0.0938  0.3310  0.2790
   7023SM  H12A 9087   6.394   0.836  17.457  0.1164 -0.3640  0.7082
   7023SM  H12B 9088   6.539   0.906  17.485 -0.6530 -2.0194 -2.1326
   7023SM   C11 9089   6.376   1.026  17.546 -0.4661 -0.2799  0.2605
   7023SM  H11A 9090   6.405   1.090  17.460 -0.7838  0.3748  0.6310
   7023SM  H11B 9091   6.412   1.073  17.641 -0.4862 -2.2528  1.3090
   7023SM     P 9092   6.124   1.124  17.541 -0.2115 -0.2158  0.0395
   7023SM   O13 9093   5.988   1.066  17.550  0.3144  0.0445 -0.3041
   7023SM   O14 9094   6.156   1.244  17.622 -0.7522  0.0533  0.0797
   7023SM   O11 9095   6.142   1.172  17.392  0.6406 -0.2973 -0.1006
   7023SM   O12 9096   6.236   1.012  17.551  0.5658  0.6115 -0.0157
   7023SM   C1S 9097   6.148   1.074  17.291 -0.0386  0.3501  0.1839
   7023SM   H1S 9098   6.053   1.026  17.258  1.2093 -2.2486  0.1720
   7023SM   H1T 9099   6.232   1.002  17.303  2.1074  2.9001  1.6306
   7023SM    NF 9100   6.199   1.053  17.054 -0.5340  0.3659 -0.2083
   7023SM   HNF 9101   6.295   1.025  17.055  0.3236  2.9102  2.3229
   7023SM   C2S 9102   6.185   1.153  17.162  0.3451  0.2559 -0.3358
   7023SM   H2S 9103   6.108   1.229  17.135  1.1540  0.5687 -1.8503
   7023SM   C3S 9104   6.313   1.241  17.177 -0.0020  0.3609  0.2416
   7023SM   H3S 9105   6.391   1.175  17.220 -1.3831 -1.2222  0.3991
   7023SM    O3 9106   6.292   1.359  17.260 -0.1195  0.0420  0.4779
   7023SM   HO3 9107   6.231   1.326  17.327  0.0081 -1.4526 -0.1047
   7023SM   C4S 9108   6.372   1.273  17.042  1.4168  0.1734  0.2001
   7023SM   H4S 9109   6.455   1.208  17.013  2.3198  0.6421  1.6010
   7023SM   C5S 9110   6.346   1.385  16.966  0.8405 -0.8147 -0.5269
   7023SM   H5S 9111   6.277   1.457  17.013  0.1558 -3.1269  2.3175
   7023SM   C6S 9112   6.393   1.431  16.829 -0.0007 -0.3819 -0.4768
   7023SM   H6S 9113   6.443   1.529  16.844 -0.5866  0.0480 -1.3010
   7023SM   H6T 9114   6.311   1.448  16.757 -0.2269  1.7569  0.2116
   7023SM   C7S 9115   6.488   1.334  16.758  0.1969 -0.6061 -0.3568
   7023SM   H7S 9116   6.579   1.321  16.820  1.5634  0.3141 -2.0917
   7023SM   H7T 9117   6.525   1.383  16.666  0.3737 -1.0176 -0.5097
   7023SM   C8S 9118   6.426   1.198  16.713 -0.5157  0.5669 -0.5190
   7023SM   H8S 9119   6.336   1.224  16.653 -1.4987  2.0860  1.4709
   7023SM   H8T 9120   6.409   1.141  16.807  2.6563 -0.8096 -0.6482
   7023SM   C9S 9121   6.524   1.124  16.620  0.2634 -0.8663  0.1304
   7023SM   H9S 9122   6.490   1.019  16.606  0.8685 -0.8249 -2.0287
   7023SM   H9T 9123   6.623   1.134  16.669 -0.3219  3.0566  0.8447
   7023SM  C10S 9124   6.537   1.203  16.484 -0.0001  0.1045  0.5333
   7023SM  H10S 9125   6.599   1.292  16.507  1.0586 -0.4268 -0.1554
   7023SM  H10T 9126   6.439   1.234  16.443  0.1009  0.2902  0.4307
   7023SM  C11S 9127   6.620   1.122  16.382  0.0256 -0.3182 -0.6429
   7023SM  H11S 9128   6.696   1.060  16.434 -0.4871 -0.1639  0.2942
   7023SM  H11T 9129   6.683   1.197  16.328  2.7590 -1.9370  0.0945
   7023SM  C12S 9130   6.536   1.044  16.279 -0.2281 -0.2048  0.4511
   7023SM  H12S 9131   6.468   1.121  16.236  0.8367  0.5916  0.1268
   7023SM  H12T 9132   6.483   0.961  16.330  0.4466  0.1561  1.8014
   7023SM  C13S 9133   6.596   0.984  16.149  0.1010  0.1235 -0.7670
   7023SM  H13S 9134   6.661   0.898  16.177  0.4402 -0.2390 -2.5217
   7023SM  H13T 9135   6.656   1.050  16.083  0.4949 -1.8630 -2.5194
   7023SM  C14S 9136   6.492   0.921  16.058 -0.1030  0.6399 -0.7060
   7023SM  H14S 9137   6.430   1.000  16.011 -1.2324 -0.6981 -1.5644
   7023SM  H14T 9138   6.432   0.853  16.123  1.6265 -0.5626 -0.2971
   7023SM  C15S 9139   6.545   0.851  15.940 -0.6479  0.4540  0.6946
   7023SM  H15S 9140   6.601   0.763  15.977 -0.1171  1.0350  1.3110
   7023SM  H15T 9141   6.623   0.918  15.897  0.1406 -1.7907 -1.6437
   7023SM  C16S 9142   6.443   0.806  15.833 -0.1747 -0.0020  0.8396
   7023SM  H16S 9143   6.363   0.741  15.874 -0.2642 -0.8411 -0.5933
   7023SM  H16T 9144   6.496   0.737  15.763  1.5573  0.2198  1.8632
   7023SM  C17S 9145   6.399   0.921  15.745  0.1967 -0.3188  0.5409
   7023SM  H17S 9146   6.487   0.982  15.715  0.4735 -0.9672 -0.0110
   7023SM  H17T 9147   6.323   0.981  15.799  0.5294 -0.3011  0.9941
   7023SM  C18S 9148   6.333   0.871  15.615 -0.0098 -0.2618  0.2195
   7023SM  H18S 9149   6.408   0.822  15.550 -0.2856  1.2135 -1.2734
   7023SM  H18T 9150   6.289   0.957  15.559 -1.0057 -0.6058  0.4611
   7023SM  H18U 9151   6.251   0.798  15.629  0.7979 -1.4676 -1.1249
   7023SM   C1F 9152   6.093   0.983  17.004  0.2384 -1.3777  0.0723
   7023SM    OF 9153   5.976   1.019  17.008 -0.0262 -0.0630 -0.2328
   7023SM   C2F 9154   6.127   0.852  16.943 -0.6073  0.2914 -0.2083
   7023SM   H2F 9155   6.037   0.786  16.936 -1.6616  1.5082  1.1840
   7023SM   H2G 9156   6.210   0.801  16.997  1.5820  2.1793 -1.6499
   7023SM   C3F 9157   6.184   0.861  16.801  0.4756 -0.0161  0.2300
   7023SM   H3F 9158   6.204   0.763  16.754  1.5477  0.8033 -1.1017
   7023SM   H3G 9159   6.286   0.907  16.803  0.4841 -0.0556  0.9760
   7023SM   C4F 9160   6.103   0.928  16.695 -0.1255  0.6296 -0.1664
   7023SM   H4F 9161   6.084   1.033  16.725  1.4216  0.5033  1.3507
   7023SM   H4G 9162   6.013   0.863  16.707  1.4566 -1.3384  1.8102
   7023SM   C5F 9163   6.168   0.929  16.556 -0.9433 -0.3303 -0.7001
   7023SM   H5F 9164   6.227   0.837  16.538 -0.1472 -0.2252  1.1655
   7023SM   H5G 9165   6.240   1.013  16.557 -1.3827  0.0945  1.4013
   7023SM   C6F 9166   6.061   0.952  16.451  0.4560 -0.0101 -0.1057
   7023SM   H6F 9167   5.991   1.033  16.478 -1.5702 -2.0525  1.1762
   7023SM   H6G 9168   5.988   0.867  16.452  0.0752  0.3097 -0.3641
   7023SM   C7F 9169   6.130   0.971  16.308 -0.1451  0.0553  0.6468
   7023SM   H7F 9170   6.188   0.877  16.300 -0.8111 -0.3703  0.6646
   7023SM   H7G 9171   6.192   1.063  16.301 -2.0216  1.7242  3.5094
   7023SM   C8F 9172   6.020   0.984  16.198  0.4520  0.2698 -0.1119
   7023SM   H8F 9173   5.959   1.073  16.222  0.8149  0.6786 -0.6670
   7023SM   H8G 9174   5.944   0.905  16.208  0.0246  0.7789  0.7029
   7023SM   C9F 9175   6.084   1.001  16.064  0.2800  0.0113 -0.3997
   7023SM   H9F 9176   6.133   0.905  16.038 -0.3625 -0.4853  0.1882
   7023SM   H9G 9177   6.148   1.092  16.067  0.1074  0.1455 -0.7332
   7023SM  C10F 9178   5.975   1.041  15.963 -0.7329 -0.4137 -0.3518
   7023SM  H10F 9179   5.912   1.120  16.010  0.3000  1.7268 -2.3477
   7023SM  H10G 9180   5.915   0.950  15.942 -0.5417 -0.8059  0.7042
   7023SM  C11F 9181   6.021   1.107  15.831 -0.0335  0.4206  0.1824
   7023SM  H11F 9182   6.066   1.028  15.767  0.4339  2.8322 -2.7031
   7023SM  H11G 9183   6.104   1.180  15.844 -0.8225  1.1266  1.3579
   7023SM  C12F 9184   5.914   1.178  15.754 -0.2636  0.1393  0.1234
   7023SM  H12F 9185   5.892   1.266  15.818 -1.1299 -0.2610  0.3916
   7023SM  H12G 9186   5.833   1.103  15.753  0.0441 -0.2060  0.7535
   7023SM  C13F 9187   5.953   1.223  15.611  0.7444  0.0133 -0.3460
   7023SM  H13F 9188   6.040   1.292  15.614  1.7305 -1.2195  0.4457
   7023SM  H13G 9189   5.863   1.283  15.586  0.4949  0.9534  2.4577
   7023SM  C14F 9190   5.983   1.113  15.509 -0.5242  0.5447  0.1078
   7023SM  H14F 9191   5.903   1.035  15.517  1.6370 -1.7122  1.1104
   7023SM  H14G 9192   6.087   1.077  15.521 -0.3915  0.2662 -1.6673
   7023SM  C15F 9193   5.986   1.164  15.359 -0.0882  0.2984 -1.1750
   7023SM  H15F 9194   6.043   1.260  15.356 -0.4519  0.5993  0.6988
   7023SM  H15G 9195   5.882   1.190  15.328  0.8680  4.3021 -1.6936
   7023SM  C16F 9196   6.050   1.073  15.248  0.5125  0.3725 -0.1029
   7023SM  H16F 9197   6.020   1.118  15.151 -1.3048  1.9224  1.0995
   7023SM  H16G 9198   6.007   0.971  15.248 -0.1794  0.6483  0.7116
   7023SM  C17F 9199   6.205   1.086  15.243 -0.0218 -0.3026 -0.0795
   7023SM  H17F 9200   6.230   1.057  15.347 -0.2645 -2.4369 -0.5584
   7023SM  H17G 9201   6.246   1.189  15.237 -0.9928  0.0039 -3.8959
   7023SM  C18F 9202   6.279   0.991  15.150  0.2973  0.1521  0.8441
   7023SM  H18F 9203   6.223   0.895  15.154  1.0859 -0.4673 -1.6989
   7023SM  H18G 9204   6.385   0.975  15.179  0.8003  1.4623 -0.1883
   7023SM  C19F 9205   6.259   1.026  15.004 -0.1255 -0.1104  0.4536
   7023SM  H19F 9206   6.328   1.110  14.982  1.3541 -1.3322  0.2078
   7023SM  H19G 9207   6.155   1.063  14.992 -0.7408 -2.1538 -1.2167
   7023SM  C20F 9208   6.262   0.903  14.909 -0.2296  0.1819  0.7527
   7023SM  H20F 9209   6.193   0.829  14.954 -1.7521  0.5943 -0.8007
   7023SM  H20G 9210   6.367   0.865  14.905  0.0363  0.9327  0.5265
   7023SM  C21F 9211   6.225   0.931  14.764  0.7515 -0.0308 -0.0742
   7023SM  H21F 9212   6.304   0.987  14.709  0.3019 -0.8998 -1.6783
   7023SM  H21G 9213   6.134   0.995  14.759  1.4318  1.0083  0.4040
   7023SM  C22F 9214   6.192   0.807  14.688 -0.3013  0.1986 -0.3591
   7023SM  H22F 9215   6.279   0.739  14.682  0.4610  1.1447 -0.2752
   7023SM  H22G 9216   6.172   0.848  14.586 -1.3324  1.7469  0.4230
   7023SM  C23F 9217   6.073   0.724  14.739 -0.3850 -0.0014 -0.0435
   7023SM  H23F 9218   6.060   0.713  14.849 -0.5039 -3.6447 -0.2825
   7023SM  H23G 9219   6.093   0.623  14.696  3.1697 -0.8571  3.0667
   7023SM  H23H 9220   5.982   0.768  14.694  0.7348  1.2463 -1.1934
   7123SM     N 9221   5.686   6.485  17.728 -0.5316  0.0742  0.2300
   7123SM   C15 9222   5.791   6.381  17.733  0.0077 -0.5198  0.1956
   7123SM  H15A 9223   5.885   6.431  17.754 -1.1507  1.8386  0.1740
   7123SM  H15B 9224   5.813   6.332  17.639  1.1703 -0.1313  0.2532
   7123SM  H15C 9225   5.773   6.306  17.808 -2.0730 -0.6914 -0.4219
   7123SM   C14 9226   5.553   6.428  17.709 -0.8464 -0.0546  0.4368
   7123SM  H14A 9227   5.531   6.338  17.764 -1.7292  0.3457  0.7627
   7123SM  H14B 9228   5.542   6.405  17.604 -1.5304 -0.2592  0.5457
   7123SM  H14C 9229   5.473   6.499  17.726  0.4231  1.4609  0.2604
   7123SM   C13 9230   5.677   6.560  17.866 -0.2077  0.4985  0.4320
   7123SM  H13A 9231   5.675   6.488  17.946  1.1025  1.1431  1.0713
   7123SM  H13B 9232   5.580   6.606  17.873 -1.3651 -1.6402 -0.5289
   7123SM  H13C 9233   5.761   6.627  17.876  0.4081 -0.1289 -0.3609
   7123SM   C12 9234   5.714   6.590  17.622 -0.2667  0.1654  0.5201
   7123SM  H12A 9235   5.809   6.638  17.641 -0.6359  1.1982 -0.1612
   7123SM  H12B 9236   5.646   6.672  17.607  2.1626  2.1731 -0.2417
   7123SM   C11 9237   5.720   6.538  17.473 -0.5419  0.0637  0.3103
   7123SM  H11A 9238   5.783   6.448  17.460 -3.6446 -1.9867 -1.7446
   7123SM  H11B 9239   5.773   6.610  17.407  0.8873  0.1930  1.5595
   7123SM     P 9240   5.498   6.624  17.373  0.1293  0.4459 -0.0051
   7123SM   O13 9241   5.354   6.588  17.363  0.4109  0.5918  0.3055
   7123SM   O14 9242   5.522   6.741  17.455 -0.8098 -0.0417  0.0139
   7123SM   O11 9243   5.572   6.648  17.231 -0.3764  0.0290  0.4839
   7123SM   O12 9244   5.582   6.503  17.436 -0.3065 -0.0117 -0.2774
   7123SM   C1S 9245   5.585   6.535  17.138 -0.7077  0.1268  0.0049
   7123SM   H1S 9246   5.482   6.502  17.114 -0.9695  0.5521  0.5234
   7123SM   H1T 9247   5.642   6.453  17.187 -1.3519 -0.2694  0.1031
   7123SM    NF 9248   5.661   6.460  16.919 -0.3770  0.0543 -0.5669
   7123SM   HNF 9249   5.742   6.403  16.928 -1.4809 -1.2396  2.3414
   7123SM   C2S 9250   5.658   6.576  17.006 -1.4275  0.0092  0.4502
   7123SM   H2S 9251   5.605   6.660  16.956  0.8229  1.3886  0.2448
   7123SM   C3S 9252   5.808   6.624  17.034 -0.0998  0.4353  0.1221
   7123SM   H3S 9253   5.870   6.538  17.065 -0.7207 -0.4442 -1.0038
   7123SM    O3 9254   5.824   6.719  17.142 -0.0455 -0.6625  0.2630
   7123SM   HO3 9255   5.739   6.713  17.187  0.7516 -0.1095  1.9146
   7123SM   C4S 9256   5.866   6.674  16.905  0.2760  0.5387 -0.2634
   7123SM   H4S 9257   5.918   6.595  16.849 -0.5485 -0.5046  0.3929
   7123SM   C5S 9258   5.846   6.798  16.855 -0.2384 -0.0288  0.3608
   7123SM   H5S 9259   5.794   6.881  16.904 -0.4566 -0.4495  0.8450
   7123SM   C6S 9260   5.903   6.824  16.717  0.7917 -0.1948 -0.6372
   7123SM   H6S 9261   5.981   6.750  16.688  0.4294 -0.1475 -1.7542
   7123SM   H6T 9262   5.945   6.927  16.715 -0.7097  0.4254 -1.7638
   7123SM   C7S 9263   5.788   6.841  16.619 -0.6124 -0.0158  0.4308
   7123SM   H7S 9264   5.729   6.923  16.665  1.5368  1.6799  0.3886
   7123SM   H7T 9265   5.723   6.753  16.603 -2.1546  1.2730 -0.7206
   7123SM   C8S 9266   5.848   6.886  16.484  0.4574 -0.1992 -0.4279
   7123SM   H8S 9267   5.951   6.926  16.491  1.1951 -1.8485 -1.4519
   7123SM   H8T 9268   5.782   6.972  16.458  1.8534  1.6402  1.7253
   7123SM   C9S 9269   5.859   6.771  16.374  0.0147 -0.2345 -0.6872
   7123SM   H9S 9270   5.757   6.730  16.358 -0.2648  0.5728 -1.0327
   7123SM   H9T 9271   5.917   6.689  16.420  0.1554  1.3414  2.1992
   7123SM  C10S 9272   5.924   6.819  16.251  0.4765 -0.3502  0.1135
   7123SM  H10S 9273   6.034   6.822  16.245  0.4316 -0.4292 -0.8789
   7123SM  H10T 9274   5.899   6.927  16.235  2.2543 -0.0228 -0.7218
   7123SM  C11S 9275   5.882   6.746  16.123 -0.2922  0.1918  0.2825
   7123SM  H11S 9276   5.773   6.760  16.109 -0.2266  2.1138  1.3583
   7123SM  H11T 9277   5.894   6.637  16.143 -3.8402 -0.1709  1.0152
   7123SM  C12S 9278   5.947   6.796  15.989 -0.8052 -0.4445  0.9846
   7123SM  H12S 9279   6.051   6.758  15.979 -0.1229  1.4263  0.5375
   7123SM  H12T 9280   5.954   6.907  15.994  1.8915 -0.4540 -0.7466
   7123SM  C13S 9281   5.861   6.766  15.867  0.9644 -0.2204 -0.1150
   7123SM  H13S 9282   5.770   6.828  15.879  0.4911 -0.7267 -1.0558
   7123SM  H13T 9283   5.842   6.656  15.866 -2.0871  0.2324 -1.3037
   7123SM  C14S 9284   5.944   6.816  15.753 -0.3888 -0.1862  1.3303
   7123SM  H14S 9285   6.047   6.776  15.753 -0.3069 -0.0634 -0.1676
   7123SM  H14T 9286   5.953   6.927  15.757 -0.9978 -0.0408 -0.3655
   7123SM  C15S 9287   5.880   6.769  15.625  0.0646 -0.0644  0.8414
   7123SM  H15S 9288   5.779   6.815  15.618  0.3046  0.3038 -0.3378
   7123SM  H15T 9289   5.863   6.659  15.629 -3.6267  0.3900  1.7712
   7123SM  C16S 9290   5.958   6.789  15.487  0.7986  0.0656  0.1374
   7123SM  H16S 9291   5.921   6.712  15.415 -0.2090  0.5268  0.1532
   7123SM  H16T 9292   6.062   6.767  15.518 -0.0322 -1.0936  2.3150
   7123SM  C17S 9293   5.934   6.924  15.426  0.0519  0.3970 -0.6079
   7123SM  H17S 9294   5.983   6.997  15.495 -0.1654  1.0164 -1.1031
   7123SM  H17T 9295   5.825   6.937  15.417 -0.3211 -2.6340 -1.4695
   7123SM  C18S 9296   6.002   6.931  15.294 -0.3637  0.6109  0.6093
   7123SM  H18S 9297   5.945   6.880  15.215  1.2332 -0.1933 -0.0675
   7123SM  H18T 9298   6.102   6.882  15.303 -0.8684 -0.2746  1.7009
   7123SM  H18U 9299   6.011   7.036  15.259  2.7096  0.4146  0.5373
   7123SM   C1F 9300   5.548   6.410  16.863  0.2721 -0.4169  0.2163
   7123SM    OF 9301   5.441   6.480  16.861  0.1128  0.1238  0.5487
   7123SM   C2F 9302   5.559   6.272  16.823  0.3290 -0.6600 -0.3338
   7123SM   H2F 9303   5.515   6.214  16.907  1.3852 -0.4905  0.3481
   7123SM   H2G 9304   5.665   6.244  16.804  0.4627  0.6827 -1.7976
   7123SM   C3F 9305   5.473   6.239  16.699  0.9185 -0.5893  1.5115
   7123SM   H3F 9306   5.370   6.278  16.713  0.9049 -0.0896  0.1554
   7123SM   H3G 9307   5.454   6.131  16.680 -0.3435 -0.3394  1.2549
   7123SM   C4F 9308   5.531   6.308  16.578  0.6346 -1.1140  0.0175
   7123SM   H4F 9309   5.626   6.257  16.550 -0.0246 -2.9465  0.9765
   7123SM   H4G 9310   5.548   6.417  16.593 -0.4677 -0.9537  0.1977
   7123SM   C5F 9311   5.439   6.284  16.459 -0.0530 -0.5028 -0.1014
   7123SM   H5F 9312   5.345   6.343  16.472  2.3899  4.3691 -1.8212
   7123SM   H5G 9313   5.413   6.177  16.447 -1.2986 -0.2258 -0.0184
   7123SM   C6F 9314   5.497   6.326  16.324 -0.3376  0.3005  0.0914
   7123SM   H6F 9315   5.416   6.321  16.249  0.7585  1.8058 -1.2677
   7123SM   H6G 9316   5.576   6.253  16.297 -0.7276 -0.3180  0.6103
   7123SM   C7F 9317   5.548   6.474  16.322  0.6788 -0.0431  0.0825
   7123SM   H7F 9318   5.643   6.496  16.375  0.0012  0.0029  1.3293
   7123SM   H7G 9319   5.478   6.541  16.377 -0.1851 -0.2158 -0.7916
   7123SM   C8F 9320   5.539   6.534  16.185 -0.1616 -0.0548  0.0168
   7123SM   H8F 9321   5.574   6.639  16.196 -0.2897 -0.1455  1.5365
   7123SM   H8G 9322   5.434   6.539  16.151 -0.2210 -1.2297 -0.0033
   7123SM   C9F 9323   5.625   6.473  16.074 -0.2079 -0.2624  0.1093
   7123SM   H9F 9324   5.599   6.365  16.062 -1.7585 -0.1253  1.7584
   7123SM   H9G 9325   5.736   6.465  16.080 -0.1682  0.1850  0.0130
   7123SM  C10F 9326   5.596   6.534  15.932 -0.3356 -0.5439 -0.1346
   7123SM  H10F 9327   5.683   6.497  15.874  0.1274  0.2285  0.0432
   7123SM  H10G 9328   5.610   6.645  15.931  0.1583 -0.6011 -1.4305
   7123SM  C11F 9329   5.458   6.502  15.871  0.0452 -0.6442 -0.1232
   7123SM  H11F 9330   5.379   6.516  15.949  0.2866  0.3587 -0.0501
   7123SM  H11G 9331   5.463   6.393  15.848 -3.1366 -0.8414 -0.3128
   7123SM  C12F 9332   5.408   6.579  15.745 -0.3626  0.7893  0.4115
   7123SM  H12F 9333   5.358   6.674  15.774 -0.5291  0.8512 -0.0772
   7123SM  H12G 9334   5.334   6.531  15.678 -0.7953  0.3420  1.1957
   7123SM  C13F 9335   5.515   6.627  15.648 -0.1915  0.1199 -0.3097
   7123SM  H13F 9336   5.571   6.546  15.597  2.3707  1.8093 -0.3565
   7123SM  H13G 9337   5.600   6.667  15.706  0.5602 -0.5801 -0.9155
   7123SM  C14F 9338   5.459   6.739  15.548  0.4333  0.3037 -0.1096
   7123SM  H14F 9339   5.547   6.762  15.484 -0.0545  0.7048 -0.6469
   7123SM  H14G 9340   5.431   6.831  15.602 -1.2505  0.1843 -0.7291
   7123SM  C15F 9341   5.359   6.678  15.453  0.5078  0.2291  0.3266
   7123SM  H15F 9342   5.267   6.636  15.497 -0.0668  0.0037 -1.0223
   7123SM  H15G 9343   5.403   6.593  15.396 -0.5931 -1.2121  1.5414
   7123SM  C16F 9344   5.325   6.784  15.346  0.2811 -0.0313  0.0494
   7123SM  H16F 9345   5.417   6.842  15.323  0.9608 -1.5426 -1.2115
   7123SM  H16G 9346   5.240   6.850  15.374 -1.0206 -1.3639 -0.6079
   7123SM  C17F 9347   5.286   6.711  15.218 -0.0910 -0.4818  0.2720
   7123SM  H17F 9348   5.200   6.645  15.245 -0.6254 -0.1286 -0.5376
   7123SM  H17G 9349   5.377   6.652  15.192  0.2618 -0.3526  1.1734
   7123SM  C18F 9350   5.246   6.818  15.109 -0.5156 -0.5001  0.3878
   7123SM  H18F 9351   5.341   6.870  15.084 -1.1408  0.5127  0.0106
   7123SM  H18G 9352   5.183   6.899  15.152  1.6751  0.5575  1.7509
   7123SM  C19F 9353   5.185   6.766  14.973  0.4217 -0.2719 -0.2037
   7123SM  H19F 9354   5.076   6.756  14.994  0.7067 -2.0750  0.5997
   7123SM  H19G 9355   5.232   6.674  14.932  0.3266  0.0396 -1.0292
   7123SM  C20F 9356   5.189   6.875  14.866 -0.3309  0.4429  0.2495
   7123SM  H20F 9357   5.284   6.869  14.808 -1.3650 -0.2612 -1.4408
   7123SM  H20G 9358   5.189   6.977  14.910  0.5727  0.8720 -0.6791
   7123SM  C21F 9359   5.088   6.875  14.749  0.6923 -0.7040  0.1490
   7123SM  H21F 9360   5.121   6.949  14.673  0.4987 -0.0100  0.7257
   7123SM  H21G 9361   4.990   6.894  14.798  1.7757  2.2075  1.4276
   7123SM  C22F 9362   5.079   6.744  14.670 -0.4201 -0.0172  0.1789
   7123SM  H22F 9363   5.010   6.768  14.586 -0.8836  1.5260  0.9781
   7123SM  H22G 9364   5.047   6.660  14.735 -0.6258  1.1652  1.6598
   7123SM  C23F 9365   5.210   6.702  14.604 -0.1875  0.2443  0.2036
   7123SM  H23F 9366   5.283   6.676  14.684 -1.9072 -1.2715  1.3513
   7123SM  H23G 9367   5.251   6.786  14.543  1.4342 -1.2391 -0.8209
   7123SM  H23H 9368   5.200   6.613  14.539  0.1594  1.2840 -1.3423
   7223SM     N 9369   7.214   2.442  17.224  0.1601 -0.2245  0.2322
   7223SM   C15 9370   7.210   2.454  17.082 -0.3916 -0.4390  0.6902
   7223SM  H15A 9371   7.295   2.503  17.037 -0.1720 -0.7610  0.7554
   7223SM  H15B 9372   7.126   2.516  17.053  1.1213  1.3215 -0.1067
   7223SM  H15C 9373   7.208   2.358  17.033  0.8180  0.4199 -1.1210
   7223SM   C14 9374   7.094   2.375  17.278  0.5564  0.5053  0.0847
   7223SM  H14A 9375   7.090   2.375  17.386  3.6427 -0.0516  0.2767
   7223SM  H14B 9376   7.092   2.268  17.264 -1.1755  0.7904 -2.4844
   7223SM  H14C 9377   7.002   2.415  17.238 -0.3992 -0.3547  1.3182
   7223SM   C13 9378   7.330   2.359  17.258  0.0599  0.2827 -0.5213
   7223SM  H13A 9379   7.308   2.255  17.238  0.1238 -0.4467  2.6715
   7223SM  H13B 9380   7.345   2.373  17.364 -0.1800  1.5600 -0.6402
   7223SM  H13C 9381   7.423   2.395  17.218  0.3781  1.2562  0.9982
   7223SM   C12 9382   7.219   2.581  17.281  0.0668  0.2265 -0.5907
   7223SM  H12A 9383   7.196   2.586  17.387 -1.9935  0.2183 -0.9994
   7223SM  H12B 9384   7.139   2.643  17.244  1.0497  1.6888 -0.3455
   7223SM   C11 9385   7.351   2.651  17.251  0.0031 -0.4869  0.3508
   7223SM  H11A 9386   7.317   2.757  17.250  1.3737 -0.0358 -0.1253
   7223SM  H11B 9387   7.386   2.638  17.147 -0.5039 -0.1635  0.1356
   7223SM     P 9388   7.561   2.724  17.384 -0.5669  0.2727 -0.1420
   7223SM   O13 9389   7.519   2.803  17.499  0.6392 -0.6029 -0.0110
   7223SM   O14 9390   7.691   2.647  17.389  0.1182 -0.6961  0.1513
   7223SM   O11 9391   7.565   2.822  17.265  0.6630  0.4069 -0.2237
   7223SM   O12 9392   7.443   2.617  17.354  0.0324 -0.6310 -0.3731
   7223SM   C1S 9393   7.644   2.782  17.151  0.0307  0.0426  0.6719
   7223SM   H1S 9394   7.635   2.675  17.124 -0.2089  0.4801 -1.0647
   7223SM   H1T 9395   7.750   2.810  17.168 -0.4963  1.5039  1.7310
   7223SM    NF 9396   7.720   2.797  16.920 -0.2255 -0.1912  0.0334
   7223SM   HNF 9397   7.801   2.853  16.908 -0.0596 -0.5969 -0.7991
   7223SM   C2S 9398   7.613   2.848  17.012  0.3390 -0.0262  0.1563
   7223SM   H2S 9399   7.516   2.811  16.972 -0.5934  1.9406  0.4707
   7223SM   C3S 9400   7.608   3.004  17.009  1.1252 -0.6085 -0.0684
   7223SM   H3S 9401   7.713   3.035  17.025  1.5044 -2.0824  0.4541
   7223SM    O3 9402   7.520   3.066  17.108 -0.3121  0.2176  0.1274
   7223SM   HO3 9403   7.506   3.011  17.185 -0.9494  2.1629  1.4583
   7223SM   C4S 9404   7.571   3.054  16.872  0.5841  0.3851 -0.0268
   7223SM   H4S 9405   7.657   3.087  16.811 -0.8413  2.6597 -0.9497
   7223SM   C5S 9406   7.451   3.046  16.798 -0.5845 -0.6217 -0.5323
   7223SM   H5S 9407   7.357   3.023  16.850  0.1050 -1.7530  0.2576
   7223SM   C6S 9408   7.435   3.101  16.659 -0.6493  0.5348  0.1368
   7223SM   H6S 9409   7.430   3.212  16.660  0.2158  0.5822  0.4626
   7223SM   H6T 9410   7.336   3.058  16.633 -0.3641  0.0789 -0.2169
   7223SM   C7S 9411   7.534   3.057  16.551 -0.0445 -0.0551 -0.3071
   7223SM   H7S 9412   7.560   2.950  16.565  1.8835  0.5890  1.4504
   7223SM   H7T 9413   7.634   3.102  16.570  0.5859 -1.3438 -0.4801
   7223SM   C8S 9414   7.500   3.092  16.409  0.3333 -0.4037  0.3628
   7223SM   H8S 9415   7.493   3.202  16.396 -0.1338 -0.3460  1.0965
   7223SM   H8T 9416   7.401   3.044  16.390  0.7714 -0.7724 -1.2083
   7223SM   C9S 9417   7.598   3.038  16.307  0.3798  0.4366  0.8047
   7223SM   H9S 9418   7.600   2.927  16.310  0.5539  0.3982 -0.3655
   7223SM   H9T 9419   7.705   3.065  16.322  0.9939  0.0416 -2.1771
   7223SM  C10S 9420   7.557   3.080  16.170  0.3752 -0.0535  0.4404
   7223SM  H10S 9421   7.545   3.189  16.155  0.0713 -0.1789 -0.3039
   7223SM  H10T 9422   7.458   3.035  16.145  0.3109 -0.3403  1.1839
   7223SM  C11S 9423   7.645   3.044  16.049 -0.8864  0.2869  0.8177
   7223SM  H11S 9424   7.750   3.057  16.083 -0.9163 -0.2811  1.1418
   7223SM  H11T 9425   7.626   3.107  15.959  1.4280  2.0401  1.4577
   7223SM  C12S 9426   7.639   2.899  15.997 -0.5076  0.2022 -0.5448
   7223SM  H12S 9427   7.541   2.869  15.955 -0.7648 -0.8616  0.7531
   7223SM  H12T 9428   7.671   2.829  16.077  0.5852 -1.6597 -2.5045
   7223SM  C13S 9429   7.740   2.855  15.880  0.1841  0.1735 -0.5131
   7223SM  H13S 9430   7.839   2.889  15.915  0.1469  0.3625 -0.5913
   7223SM  H13T 9431   7.727   2.913  15.787 -0.9303  1.5004  0.4349
   7223SM  C14S 9432   7.738   2.704  15.851  0.5076 -0.3853  0.3218
   7223SM  H14S 9433   7.636   2.673  15.820  0.5190 -2.0558  1.8168
   7223SM  H14T 9434   7.759   2.646  15.943  1.0509  1.4286  1.3958
   7223SM  C15S 9435   7.842   2.667  15.741 -0.0577 -0.3866  1.0679
   7223SM  H15S 9436   7.817   2.702  15.638  3.5169 -2.2954 -0.6436
   7223SM  H15T 9437   7.838   2.557  15.732 -2.1622 -0.4287  2.0149
   7223SM  C16S 9438   7.984   2.713  15.783 -0.2811 -0.2793 -0.1271
   7223SM  H16S 9439   8.004   2.687  15.889  3.1113 -0.0485 -0.6025
   7223SM  H16T 9440   7.982   2.823  15.770 -0.5918 -0.2327  0.2899
   7223SM  C17S 9441   8.094   2.653  15.699  0.2400 -0.0202  0.5340
   7223SM  H17S 9442   8.136   2.571  15.761 -1.1797 -0.4394  0.9689
   7223SM  H17T 9443   8.174   2.728  15.677  1.1336 -0.7965  1.0316
   7223SM  C18S 9444   8.059   2.589  15.564 -0.3261  0.6026  0.3813
   7223SM  H18S 9445   8.025   2.485  15.581 -0.2396  0.7939  1.8248
   7223SM  H18T 9446   8.150   2.585  15.500 -1.4811 -0.2912 -1.2877
   7223SM  H18U 9447   7.979   2.649  15.514  1.2638  3.1331  0.6713
   7223SM   C1F 9448   7.725   2.685  16.863  0.9846 -0.0935 -0.5931
   7223SM    OF 9449   7.631   2.602  16.873  0.5612 -0.6339 -0.2959
   7223SM   C2F 9450   7.860   2.651  16.800 -0.5637 -0.2046  0.2815
   7223SM   H2F 9451   7.893   2.551  16.838  0.6162 -1.2332 -3.0876
   7223SM   H2G 9452   7.941   2.724  16.821  0.8247 -0.6159 -3.0578
   7223SM   C3F 9453   7.843   2.648  16.641 -0.0476  0.0655 -0.2580
   7223SM   H3F 9454   7.810   2.744  16.597 -0.3069 -0.0446 -0.3032
   7223SM   H3G 9455   7.760   2.577  16.622  0.3597 -0.9350  1.4211
   7223SM   C4F 9456   7.969   2.613  16.561 -0.2883  1.0187 -0.5062
   7223SM   H4F 9457   8.019   2.521  16.598  0.5477  1.4442 -0.5391
   7223SM   H4G 9458   8.037   2.696  16.590  0.0703  0.6724 -0.3390
   7223SM   C5F 9459   7.953   2.620  16.408 -0.1824  0.3629  0.8438
   7223SM   H5F 9460   7.920   2.723  16.382  1.4998  0.9415  0.8939
   7223SM   H5G 9461   7.868   2.557  16.374  0.1794 -0.2049  0.9894
   7223SM   C6F 9462   8.081   2.575  16.328 -0.2937  0.1276 -0.2877
   7223SM   H6F 9463   8.103   2.474  16.369 -1.2682 -0.2304 -0.6032
   7223SM   H6G 9464   8.169   2.637  16.354  2.4322 -3.4155 -0.2805
   7223SM   C7F 9465   8.066   2.582  16.174 -0.7314  0.7968  0.2737
   7223SM   H7F 9466   8.021   2.680  16.148 -2.1197  0.0501 -0.2028
   7223SM   H7G 9467   7.973   2.529  16.147 -2.2933  3.8182 -0.6235
   7223SM   C8F 9468   8.191   2.529  16.101 -0.2891 -0.4118 -0.6298
   7223SM   H8F 9469   8.153   2.523  15.997  0.5748 -0.4422 -0.9438
   7223SM   H8G 9470   8.220   2.425  16.127 -1.4611 -1.2516 -2.4436
   7223SM   C9F 9471   8.309   2.632  16.097  0.1797  0.5641 -0.7411
   7223SM   H9F 9472   8.356   2.623  16.197  0.7762  0.5662 -1.0188
   7223SM   H9G 9473   8.274   2.734  16.073 -3.3116 -0.7412 -1.9154
   7223SM  C10F 9474   8.420   2.587  16.009 -0.5258  0.5753  0.1472
   7223SM  H10F 9475   8.510   2.649  16.031  0.5495 -1.2006  0.9920
   7223SM  H10G 9476   8.397   2.599  15.901 -1.5534  0.3931  0.3404
   7223SM  C11F 9477   8.472   2.443  16.028 -0.2321  0.1680 -0.6407
   7223SM  H11F 9478   8.386   2.379  15.999 -0.8646  1.1345 -0.9670
   7223SM  H11G 9479   8.511   2.424  16.130 -2.1199  0.6730  0.2189
   7223SM  C12F 9480   8.595   2.417  15.936  0.2956  0.6169  0.2758
   7223SM  H12F 9481   8.678   2.470  15.988  0.0371  2.5726 -1.1793
   7223SM  H12G 9482   8.580   2.459  15.834  1.5465 -0.5584 -0.4260
   7223SM  C13F 9483   8.622   2.272  15.923  0.0840  0.3745  0.1443
   7223SM  H13F 9484   8.536   2.210  15.892 -0.3659  0.8214  0.4774
   7223SM  H13G 9485   8.645   2.230  16.023 -2.1224  0.8426  0.9063
   7223SM  C14F 9486   8.737   2.242  15.827  0.0026  0.0154  0.0620
   7223SM  H14F 9487   8.815   2.317  15.850  0.1162  0.6615 -2.1460
   7223SM  H14G 9488   8.707   2.276  15.725  1.7638  2.2364  0.2082
   7223SM  C15F 9489   8.793   2.105  15.839 -0.5271  0.5586 -0.4269
   7223SM  H15F 9490   8.707   2.035  15.839 -2.0790  2.3508  1.6776
   7223SM  H15G 9491   8.840   2.080  15.936 -3.3858 -2.9376  0.2889
   7223SM  C16F 9492   8.884   2.063  15.722 -0.7290 -0.2388  0.1448
   7223SM  H16F 9493   8.927   1.962  15.741  1.9169  0.2513 -2.5013
   7223SM  H16G 9494   8.966   2.137  15.716 -0.0967 -1.0092 -1.3173
   7223SM  C17F 9495   8.804   2.047  15.592  0.6947 -0.1311  0.6677
   7223SM  H17F 9496   8.757   2.141  15.556 -1.9318 -2.1678 -1.6371
   7223SM  H17G 9497   8.716   1.981  15.608  1.2528 -1.0560  0.0149
   7223SM  C18F 9498   8.883   1.987  15.471 -0.4981 -0.7222  0.0159
   7223SM  H18F 9499   8.830   1.997  15.374 -1.4222  0.5732  0.6111
   7223SM  H18G 9500   8.882   1.877  15.484 -2.5524 -0.7059  0.4647
   7223SM  C19F 9501   9.031   2.033  15.456 -0.2957 -0.0186  0.2387
   7223SM  H19F 9502   9.100   1.977  15.522 -0.2048 -1.0094 -0.6736
   7223SM  H19G 9503   9.032   2.143  15.473 -1.6819  0.2567 -1.2257
   7223SM  C20F 9504   9.073   2.015  15.305  0.0696 -0.1609  0.6249
   7223SM  H20F 9505   9.009   2.087  15.249 -0.5997 -1.2479 -0.0322
   7223SM  H20G 9506   9.039   1.914  15.274 -3.2209  0.9982  0.0962
   7223SM  C21F 9507   9.216   2.050  15.268  0.3717  0.5490 -0.2232
   7223SM  H21F 9508   9.247   2.009  15.169  2.5517 -1.7244  1.2809
   7223SM  H21G 9509   9.266   1.990  15.347 -1.0210  0.1015  0.3367
   7223SM  C22F 9510   9.259   2.194  15.269 -0.0168 -0.3011 -0.0189
   7223SM  H22F 9511   9.249   2.232  15.373 -2.6265  2.3233 -1.0770
   7223SM  H22G 9512   9.202   2.266  15.206  1.0691  0.5116 -0.1095
   7223SM  C23F 9513   9.403   2.214  15.238  0.2712  0.2720  0.0226
   7223SM  H23F 9514   9.433   2.315  15.273  0.2352  0.4154 -0.3541
   7223SM  H23G 9515   9.431   2.195  15.132  0.9576 -0.7319  0.3707
   7223SM  H23H 9516   9.455   2.137  15.298 -3.0979 -1.0875  1.4788
   7323SM     N 9517   7.014   0.658  17.550  0.1097 -0.0342  0.2725
   7323SM   C15 9518   7.016   0.698  17.689  0.3942  0.3600  0.1241
   7323SM  H15A 9519   7.076   0.787  17.706  0.0935  0.3162  1.5775
   7323SM  H15B 9520   7.062   0.633  17.762  0.6861  1.7729  1.2592
   7323SM  H15C 9521   6.916   0.720  17.726  0.0073 -1.4769  0.2514
   7323SM   C14 9522   7.146   0.618  17.502  0.0656 -0.3631  0.0900
   7323SM  H14A 9523   7.188   0.529  17.546 -1.1386 -0.9903  0.0292
   7323SM  H14B 9524   7.221   0.691  17.525  1.4521 -1.4198 -0.9022
   7323SM  H14C 9525   7.156   0.616  17.394  1.4954 -0.5158  0.2114
   7323SM   C13 9526   6.931   0.536  17.518  0.1581 -0.6130  0.0594
   7323SM  H13A 9527   6.948   0.514  17.414 -1.3508 -0.9510 -0.1379
   7323SM  H13B 9528   6.823   0.546  17.521 -0.1278  0.5475 -5.0001
   7323SM  H13C 9529   6.961   0.451  17.577  1.8254  0.4441  0.7982
   7323SM   C12 9530   6.974   0.782  17.469  0.2390 -0.2384  0.7960
   7323SM  H12A 9531   7.041   0.864  17.491 -0.3875  0.0812  1.5593
   7323SM  H12B 9532   6.880   0.823  17.502 -0.3859 -0.6329 -0.4404
   7323SM   C11 9533   6.953   0.766  17.322 -0.2934  0.1487 -0.2249
   7323SM  H11A 9534   7.035   0.703  17.281  0.1540  1.5176 -1.5427
   7323SM  H11B 9535   6.952   0.858  17.260 -2.4768 -0.0652 -0.6167
   7323SM     P 9536   6.692   0.779  17.296 -0.1264 -0.3471 -0.0804
   7323SM   O13 9537   6.576   0.696  17.332 -0.2283  0.3145  0.6117
   7323SM   O14 9538   6.711   0.896  17.382 -0.3737 -0.7145 -0.0396
   7323SM   O11 9539   6.674   0.829  17.146 -0.0742 -0.2603  0.3388
   7323SM   O12 9540   6.828   0.692  17.304 -0.3881  0.7537  0.1814
   7323SM   C1S 9541   6.707   0.733  17.041  0.3069 -0.5151  0.5362
   7323SM   H1S 9542   6.618   0.674  17.007  1.0301 -0.7012 -1.1223
   7323SM   H1T 9543   6.790   0.663  17.065 -0.0152  0.0939  3.9035
   7323SM    NF 9544   6.732   0.740  16.795 -0.8073 -0.0243 -0.2028
   7323SM   HNF 9545   6.811   0.711  16.741 -1.3457  0.1308 -1.0959
   7323SM   C2S 9546   6.758   0.814  16.917  0.1397  0.1592  0.2194
   7323SM   H2S 9547   6.691   0.902  16.911  0.2921  0.4527  2.2487
   7323SM   C3S 9548   6.905   0.842  16.932 -0.2104  0.0013  0.1274
   7323SM   H3S 9549   6.959   0.745  16.941 -0.6595 -0.2362  0.3042
   7323SM    O3 9550   6.932   0.921  17.048 -0.5492  0.2421 -0.5311
   7323SM   HO3 9551   6.844   0.927  17.085 -0.2733  1.6595 -0.0527
   7323SM   C4S 9552   6.952   0.927  16.819  0.4153  0.6134 -0.2491
   7323SM   H4S 9553   6.919   1.031  16.819 -0.2781  0.5179  3.2566
   7323SM   C5S 9554   7.051   0.886  16.735  0.1273 -0.0102  0.2030
   7323SM   H5S 9555   7.106   0.791  16.740  0.9842  0.1102 -3.7835
   7323SM   C6S 9556   7.096   0.977  16.619 -0.2332  0.8644 -0.9125
   7323SM   H6S 9557   7.206   0.978  16.611 -0.1589 -0.2573 -0.2194
   7323SM   H6T 9558   7.069   1.082  16.644 -1.1009 -0.0855  2.8365
   7323SM   C7S 9559   7.050   0.924  16.485  0.0183 -0.2477 -0.1337
   7323SM   H7S 9560   6.939   0.911  16.486  0.2012 -2.3481  2.3335
   7323SM   H7T 9561   7.092   0.821  16.476 -3.3966 -2.1585  2.8232
   7323SM   C8S 9562   7.083   1.018  16.362 -0.0566 -0.5143 -0.2015
   7323SM   H8S 9563   7.192   1.022  16.345  0.3607  2.8579  2.2154
   7323SM   H8T 9564   7.059   1.119  16.402  1.6975 -0.0025 -0.3618
   7323SM   C9S 9565   6.994   0.995  16.242 -0.3378  0.1326  0.4951
   7323SM   H9S 9566   6.888   0.976  16.267 -0.8070  0.8993 -0.8518
   7323SM   H9T 9567   7.032   0.899  16.200 -2.2008 -0.0091 -0.9960
   7323SM  C10S 9568   7.002   1.091  16.129  0.9034 -0.3438  0.2863
   7323SM  H10S 9569   7.109   1.119  16.114 -0.3553  3.4955 -3.1326
   7323SM  H10T 9570   6.950   1.187  16.148 -2.1914 -1.3811 -2.1487
   7323SM  C11S 9571   6.954   1.035  15.992 -0.2708  0.1879 -0.0464
   7323SM  H11S 9572   6.843   1.023  15.993 -0.2832 -0.0506 -1.6337
   7323SM  H11T 9573   7.007   0.937  15.985 -0.4191  0.1650 -1.0452
   7323SM  C12S 9574   7.001   1.131  15.881  0.1639  0.1556 -0.0689
   7323SM  H12S 9575   7.111   1.144  15.888  0.5535 -2.3271 -0.6253
   7323SM  H12T 9576   6.954   1.230  15.895  1.6327  0.7684  0.7934
   7323SM  C13S 9577   6.981   1.085  15.742  0.6990  0.2848  0.4639
   7323SM  H13S 9578   7.035   0.994  15.710  3.2661  0.4863  3.6650
   7323SM  H13T 9579   7.025   1.160  15.673  1.1609 -1.9122 -1.7612
   7323SM  C14S 9580   6.836   1.091  15.705  0.2186 -0.1855 -1.0865
   7323SM  H14S 9581   6.776   1.165  15.762 -0.9237 -1.0378 -1.1372
   7323SM  H14T 9582   6.788   0.996  15.737  0.6868 -0.0344  0.1002
   7323SM  C15S 9583   6.804   1.118  15.561  0.2076 -0.5843  0.0521
   7323SM  H15S 9584   6.710   1.071  15.527 -0.2429 -0.8324  1.5628
   7323SM  H15T 9585   6.886   1.083  15.494  1.5966 -2.3117  2.4936
   7323SM  C16S 9586   6.802   1.272  15.543  0.7695  0.5185 -0.1878
   7323SM  H16S 9587   6.902   1.320  15.545  0.6197  0.8343  1.2865
   7323SM  H16T 9588   6.729   1.315  15.615 -1.2867 -2.6823 -0.1391
   7323SM  C17S 9589   6.744   1.318  15.411  0.6042  0.1841 -0.0192
   7323SM  H17S 9590   6.645   1.270  15.403  0.9482 -0.6716  0.6629
   7323SM  H17T 9591   6.807   1.296  15.322 -0.9692 -2.0911 -0.6590
   7323SM  C18S 9592   6.711   1.468  15.417 -0.5024  0.2881 -0.1637
   7323SM  H18S 9593   6.668   1.491  15.518 -0.7653  0.3249 -0.2831
   7323SM  H18T 9594   6.633   1.507  15.349 -0.9009  2.4670  1.4075
   7323SM  H18U 9595   6.800   1.532  15.404 -0.6305  0.2104 -1.5634
   7323SM   C1F 9596   6.613   0.724  16.742  0.6435 -0.2996  0.0540
   7323SM    OF 9597   6.516   0.779  16.798 -0.0126  0.1496  0.4992
   7323SM   C2F 9598   6.604   0.658  16.607 -0.2663 -0.0478 -0.9506
   7323SM   H2F 9599   6.642   0.553  16.603  3.3243  0.9974  1.2316
   7323SM   H2G 9600   6.668   0.725  16.545  2.5900 -0.6956  1.0927
   7323SM   C3F 9601   6.457   0.649  16.556 -0.2040 -0.0087  0.0872
   7323SM   H3F 9602   6.417   0.752  16.543  1.4633  0.5363 -1.1759
   7323SM   H3G 9603   6.384   0.592  16.617 -1.0393 -0.1892 -1.0444
   7323SM   C4F 9604   6.479   0.579  16.421  0.4660 -0.0029 -0.2200
   7323SM   H4F 9605   6.464   0.472  16.446 -0.6982  0.5630  1.6830
   7323SM   H4G 9606   6.578   0.587  16.371  2.1515  0.3027  2.9248
   7323SM   C5F 9607   6.367   0.606  16.315  0.2023  0.3127 -0.0930
   7323SM   H5F 9608   6.359   0.715  16.294  0.4151 -0.2822 -3.8540
   7323SM   H5G 9609   6.270   0.570  16.356  0.5674  0.3825  0.8736
   7323SM   C6F 9610   6.375   0.541  16.175 -0.1446  0.1161 -0.9541
   7323SM   H6F 9611   6.475   0.565  16.131 -0.1477 -0.7709 -1.4493
   7323SM   H6G 9612   6.294   0.582  16.110 -2.8217 -2.3648  0.5877
   7323SM   C7F 9613   6.380   0.388  16.182 -0.5068  0.3294  0.1862
   7323SM   H7F 9614   6.281   0.345  16.209  0.1661  0.0673  2.4555
   7323SM   H7G 9615   6.445   0.363  16.269 -2.1046  0.6694  1.5294
   7323SM   C8F 9616   6.449   0.314  16.058  1.3029 -1.0024  0.0395
   7323SM   H8F 9617   6.385   0.352  15.975  1.7174  1.6730  0.8382
   7323SM   H8G 9618   6.439   0.204  16.066 -3.1591 -0.8634 -0.8983
   7323SM   C9F 9619   6.582   0.362  16.015 -0.4878 -0.0884  0.0803
   7323SM   H9F 9620   6.643   0.385  16.104 -1.1081 -0.5217  0.6254
   7323SM   H9G 9621   6.579   0.451  15.949  0.1593 -1.1518 -1.4520
   7323SM  C10F 9622   6.660   0.252  15.937  0.5075  0.6830  1.0830
   7323SM  H10F 9623   6.595   0.217  15.854  0.9995  2.4952 -0.1323
   7323SM  H10G 9624   6.673   0.165  16.006 -1.1705  0.7690  1.5539
   7323SM  C11F 9625   6.788   0.300  15.872 -0.7927 -0.5947 -0.1889
   7323SM  H11F 9626   6.855   0.323  15.958  1.5040 -1.9150 -1.4996
   7323SM  H11G 9627   6.783   0.383  15.799  1.5410  1.0869  1.4047
   7323SM  C12F 9628   6.867   0.188  15.794  0.8575  0.2797  0.8698
   7323SM  H12F 9629   6.802   0.141  15.718 -0.0972  0.2393  1.7027
   7323SM  H12G 9630   6.884   0.108  15.869  1.3880  0.4676  0.9574
   7323SM  C13F 9631   6.996   0.252  15.742  0.1412 -0.1267  0.5829
   7323SM  H13F 9632   7.058   0.300  15.820 -1.0181  1.4842  0.5542
   7323SM  H13G 9633   6.963   0.323  15.663 -3.5542 -1.4511  0.7491
   7323SM  C14F 9634   7.086   0.152  15.669 -0.2551 -0.2464 -0.0611
   7323SM  H14F 9635   7.033   0.093  15.592 -0.1633  1.3596 -1.4281
   7323SM  H14G 9636   7.122   0.077  15.743 -0.6433 -1.2209 -0.8436
   7323SM  C15F 9637   7.204   0.213  15.601  0.8065 -0.5173 -0.4383
   7323SM  H15F 9638   7.263   0.277  15.670  1.3720 -0.6851 -0.7656
   7323SM  H15G 9639   7.176   0.275  15.513 -0.3572  0.9746  0.9144
   7323SM  C16F 9640   7.291   0.099  15.549 -0.1036  0.1036 -0.6409
   7323SM  H16F 9641   7.354   0.146  15.471 -0.3397  0.0869 -0.8423
   7323SM  H16G 9642   7.226   0.024  15.498  0.1724  0.0177 -0.8669
   7323SM  C17F 9643   7.391   0.034  15.654 -0.0314  1.1458  0.4987
   7323SM  H17F 9644   7.344  -0.011  15.744 -1.8461  2.2431  0.1404
   7323SM  H17G 9645   7.453   0.121  15.688  2.1173 -0.9786  2.4544
   7323SM  C18F 9646   7.499  -0.061  15.593 -0.0231  0.3617 -0.3126
   7323SM  H18F 9647   7.552  -0.011  15.509 -0.4810  0.9685 -0.2464
   7323SM  H18G 9648   7.448  -0.148  15.546 -0.4971 -0.4945  1.7050
   7323SM  C19F 9649   7.600  -0.131  15.691 -0.2657 -0.2021  0.6944
   7323SM  H19F 9650   7.641  -0.220  15.639 -0.6845  0.7675 -1.3964
   7323SM  H19G 9651   7.540  -0.156  15.781 -1.7537 -1.6978 -0.6639
   7323SM  C20F 9652   7.718  -0.035  15.735 -0.3231 -0.3006  0.3061
   7323SM  H20F 9653   7.678   0.055  15.786  0.4527 -0.5977  1.4728
   7323SM  H20G 9654   7.771  -0.005  15.642 -1.0591 -2.1933 -0.7867
   7323SM  C21F 9655   7.819  -0.105  15.826 -0.3423 -0.1311 -0.0671
   7323SM  H21F 9656   7.919  -0.057  15.818 -0.6050  0.1040 -2.6065
   7323SM  H21G 9657   7.832  -0.208  15.785  0.5266 -0.6403  1.3827
   7323SM  C22F 9658   7.769  -0.103  15.969  0.1667  0.9448  0.6936
   7323SM  H22F 9659   7.664  -0.140  15.958  0.8428 -1.3876  1.3599
   7323SM  H22G 9660   7.761  -0.005  16.019  0.8117  0.0356  2.6881
   7323SM  C23F 9661   7.839  -0.211  16.052  0.1077 -0.3469  0.2240
   7323SM  H23F 9662   7.949  -0.197  16.061  0.0757 -0.1232  0.2846
   7323SM  H23G 9663   7.817  -0.314  16.018  1.1775 -0.0614 -1.4254
   7323SM  H23H 9664   7.797  -0.196  16.154 -0.3502 -0.9518  0.1253
   7423SM     N 9665   1.967   3.979  17.380 -0.2031 -0.2413  0.6282
   7423SM   C15 9666   1.868   3.909  17.469  0.0982  0.3135 -0.0745
   7423SM  H15A 9667   1.873   3.805  17.440  1.5210 -0.0645  1.4155
   7423SM  H15B 9668   1.765   3.928  17.443 -0.6514 -2.1200  0.8579
   7423SM  H15C 9669   1.894   3.923  17.572 -0.7829 -1.3607  0.4122
   7423SM   C14 9670   2.107   3.935  17.414  0.3147 -0.2762 -0.0435
   7423SM  H14A 9671   2.150   3.977  17.504  1.0559  1.3831 -1.1130
   7423SM  H14B 9672   2.179   3.977  17.345  1.3899 -0.1421  1.1311
   7423SM  H14C 9673   2.118   3.828  17.413  1.1266 -0.2069 -0.8797
   7423SM   C13 9674   1.949   3.931  17.241  0.5169  0.5618  0.0031
   7423SM  H13A 9675   2.022   3.968  17.172  0.8953  0.7252  0.4823
   7423SM  H13B 9676   1.854   3.961  17.198 -0.5807 -0.7269  1.4089
   7423SM  H13C 9677   1.952   3.823  17.237  0.7561  0.6054 -1.3826
   7423SM   C12 9678   1.944   4.132  17.377 -0.3673 -0.3791  0.4831
   7423SM  H12A 9679   1.844   4.141  17.337  1.0818 -1.2596 -3.9097
   7423SM  H12B 9680   2.019   4.171  17.309  0.0156  0.6843  1.4992
   7423SM   C11 9681   1.950   4.201  17.512 -1.0309 -0.1599 -0.4442
   7423SM  H11A 9682   1.880   4.148  17.580 -0.0944 -2.5160 -1.2311
   7423SM  H11B 9683   1.927   4.309  17.501 -0.3362  0.1885  1.1953
   7423SM     P 9684   2.210   4.273  17.515 -0.0575 -0.1357 -0.2725
   7423SM   O13 9685   2.220   4.403  17.586 -0.2620  0.1929  0.2948
   7423SM   O14 9686   2.329   4.189  17.513  0.2006 -0.0964  0.1029
   7423SM   O11 9687   2.169   4.306  17.363 -0.2169 -0.0953 -0.1392
   7423SM   O12 9688   2.086   4.185  17.571  0.6996 -0.3071  0.2514
   7423SM   C1S 9689   2.265   4.343  17.263  0.3673 -0.0914 -0.0843
   7423SM   H1S 9690   2.324   4.251  17.243  0.2206 -0.2154  0.0517
   7423SM   H1T 9691   2.321   4.433  17.297 -2.5922  1.4648  1.0316
   7423SM    NF 9692   2.291   4.406  17.026  0.1491 -0.1410  0.0514
   7423SM   HNF 9693   2.320   4.501  17.015  1.6972 -0.4556  1.0252
   7423SM   C2S 9694   2.191   4.384  17.123 -0.0385  0.4283  0.6182
   7423SM   H2S 9695   2.124   4.298  17.101  0.5022  0.1614 -0.0307
   7423SM   C3S 9696   2.107   4.512  17.155  0.1588  1.0633  0.6553
   7423SM   H3S 9697   2.172   4.594  17.193 -0.2848  1.5639  0.3507
   7423SM    O3 9698   2.014   4.485  17.261  0.6172 -0.1297  0.5949
   7423SM   HO3 9699   2.056   4.407  17.298  2.4202  0.1760 -0.6828
   7423SM   C4S 9700   2.032   4.557  17.035  0.3609 -0.3236  0.7649
   7423SM   H4S 9701   1.981   4.475  16.982 -0.2178  0.0207  0.7917
   7423SM   C5S 9702   2.029   4.681  16.971 -0.1138  0.9298 -0.4290
   7423SM   H5S 9703   2.100   4.757  17.004  0.2844  0.3390  0.1000
   7423SM   C6S 9704   1.949   4.724  16.849 -0.2784 -0.5514 -0.5754
   7423SM   H6S 9705   1.907   4.823  16.878 -2.7135 -1.3104 -1.2224
   7423SM   H6T 9706   1.862   4.656  16.833 -0.1725 -0.6704 -0.6408
   7423SM   C7S 9707   2.043   4.726  16.728  0.6451  0.4977  0.6084
   7423SM   H7S 9708   2.099   4.630  16.722  3.1321  1.9511 -2.2212
   7423SM   H7T 9709   2.130   4.790  16.756  0.4390  0.7442  0.6837
   7423SM   C8S 9710   1.973   4.754  16.595  0.6861 -0.7241  0.3215
   7423SM   H8S 9711   1.948   4.862  16.595  0.7890 -0.6755 -1.3111
   7423SM   H8T 9712   1.879   4.696  16.586 -0.0540  0.4561  0.2876
   7423SM   C9S 9713   2.058   4.734  16.473 -0.7303 -0.0569 -0.1180
   7423SM   H9S 9714   2.060   4.625  16.450 -0.4400  0.1398 -1.0576
   7423SM   H9T 9715   2.162   4.763  16.500 -0.6130 -0.4388 -0.1430
   7423SM  C10S 9716   2.016   4.807  16.347 -0.0009 -0.1585  0.0710
   7423SM  H10S 9717   2.010   4.918  16.350 -2.5732 -0.2133 -0.5122
   7423SM  H10T 9718   1.915   4.773  16.317 -1.0974  2.9207 -0.0795
   7423SM  C11S 9719   2.107   4.779  16.226 -0.1167 -0.2170 -0.4899
   7423SM  H11S 9720   2.137   4.673  16.216 -0.6974 -0.6093  1.4406
   7423SM  H11T 9721   2.194   4.844  16.248 -1.2086  0.4963  2.1082
   7423SM  C12S 9722   2.063   4.837  16.092 -0.2732 -0.2976 -0.2191
   7423SM  H12S 9723   2.155   4.864  16.036 -0.8878  1.2193 -0.5474
   7423SM  H12T 9724   2.016   4.936  16.111  0.8473  0.0961  0.6106
   7423SM  C13S 9725   1.969   4.747  16.018  0.0481  0.0391 -0.1208
   7423SM  H13S 9726   1.895   4.705  16.090 -1.6797 -0.7252 -2.2282
   7423SM  H13T 9727   2.018   4.663  15.964  0.5302  0.9186 -1.0778
   7423SM  C14S 9728   1.875   4.830  15.930 -0.7479  0.5386 -0.4278
   7423SM  H14S 9729   1.934   4.888  15.855  1.7299 -0.6397  0.4894
   7423SM  H14T 9730   1.824   4.901  15.998  1.5642  0.3439  1.6519
   7423SM  C15S 9731   1.776   4.746  15.844 -0.2210  0.1216  0.5681
   7423SM  H15S 9732   1.705   4.820  15.803  2.0596  0.7727 -2.5471
   7423SM  H15T 9733   1.732   4.675  15.918 -0.4349 -0.1745  0.1589
   7423SM  C16S 9734   1.848   4.667  15.737  0.7250 -0.3327  0.0588
   7423SM  H16S 9735   1.926   4.599  15.779  0.1856 -1.0208 -0.0354
   7423SM  H16T 9736   1.902   4.733  15.665  0.0903  1.2034  0.9402
   7423SM  C17S 9737   1.750   4.582  15.660 -0.6241 -0.3229 -0.8253
   7423SM  H17S 9738   1.676   4.645  15.606  0.2195  0.3906 -1.1750
   7423SM  H17T 9739   1.690   4.515  15.725 -0.3754  1.4483  1.3539
   7423SM  C18S 9740   1.825   4.499  15.554  0.0306  0.4113 -0.6058
   7423SM  H18S 9741   1.889   4.558  15.486  0.3302  1.6424  0.7051
   7423SM  H18T 9742   1.748   4.446  15.494  0.0746  0.1697 -0.4526
   7423SM  H18U 9743   1.896   4.425  15.598  0.6818 -0.1446 -2.4771
   7423SM   C1F 9744   2.363   4.313  16.967 -0.0399 -0.0594  0.8160
   7423SM    OF 9745   2.343   4.192  16.990  0.2935  0.0258  0.1585
   7423SM   C2F 9746   2.466   4.359  16.873 -0.1725  0.1732 -1.0250
   7423SM   H2F 9747   2.549   4.396  16.937 -0.2747 -0.4568 -0.5210
   7423SM   H2G 9748   2.430   4.445  16.813 -0.7671 -0.1414 -1.1199
   7423SM   C3F 9749   2.516   4.248  16.771  0.0680  0.6050 -0.5307
   7423SM   H3F 9750   2.521   4.148  16.820  2.0480  1.5341  1.3415
   7423SM   H3G 9751   2.617   4.280  16.735  0.8250 -0.9041  0.1540
   7423SM   C4F 9752   2.432   4.234  16.647 -0.0435 -0.4959  0.4087
   7423SM   H4F 9753   2.414   4.334  16.601  2.8590  0.4636  1.1289
   7423SM   H4G 9754   2.337   4.194  16.688 -1.7164  0.6536 -2.1632
   7423SM   C5F 9755   2.494   4.150  16.533  0.1014  0.6654  0.7685
   7423SM   H5F 9756   2.527   4.051  16.570  3.4558  1.3620 -0.0462
   7423SM   H5G 9757   2.585   4.206  16.502 -0.1559  1.2792  1.0859
   7423SM   C6F 9758   2.400   4.145  16.408  0.2036 -0.2927 -0.0584
   7423SM   H6F 9759   2.366   4.249  16.389 -0.5184 -0.5490 -0.2097
   7423SM   H6G 9760   2.318   4.071  16.425  0.1976 -0.4234 -0.6424
   7423SM   C7F 9761   2.476   4.092  16.283  0.4293 -0.0367  0.1764
   7423SM   H7F 9762   2.501   3.985  16.297  0.7512  0.1695  1.2042
   7423SM   H7G 9763   2.566   4.155  16.267  0.9882 -1.2332 -1.7092
   7423SM   C8F 9764   2.397   4.095  16.146  0.6752  0.2410 -0.5047
   7423SM   H8F 9765   2.348   4.195  16.144  1.7268  0.7674 -0.8703
   7423SM   H8G 9766   2.318   4.019  16.160  2.1341 -1.0239  1.3437
   7423SM   C9F 9767   2.490   4.071  16.032  0.3223  0.0979  0.1615
   7423SM   H9F 9768   2.550   3.981  16.059 -1.0999 -0.5803  1.2651
   7423SM   H9G 9769   2.564   4.153  16.031  0.6609 -0.2156 -1.0941
   7423SM  C10F 9770   2.422   4.049  15.900 -0.0308 -0.6608 -0.3512
   7423SM  H10F 9771   2.358   4.132  15.863  0.4140  0.3679  1.1028
   7423SM  H10G 9772   2.365   3.954  15.915  0.0303 -0.8908 -1.5137
   7423SM  C11F 9773   2.528   4.033  15.790  0.0953 -0.3430  0.3897
   7423SM  H11F 9774   2.570   3.931  15.797 -0.0044 -0.3649  0.6770
   7423SM  H11G 9775   2.606   4.112  15.797  0.7406 -0.7753 -1.4980
   7423SM  C12F 9776   2.468   4.043  15.643  0.3145 -0.1293  0.0818
   7423SM  H12F 9777   2.443   4.150  15.625  1.7908  0.1014 -0.8330
   7423SM  H12G 9778   2.369   3.993  15.641 -1.3134  2.8512 -0.0672
   7423SM  C13F 9779   2.563   3.977  15.547  0.4871  0.4919  0.8480
   7423SM  H13F 9780   2.513   3.979  15.448  3.4440  1.0520 -0.7821
   7423SM  H13G 9781   2.580   3.869  15.568  0.3311 -0.0715 -1.6391
   7423SM  C14F 9782   2.695   4.041  15.526 -1.0886  0.6453 -0.4378
   7423SM  H14F 9783   2.762   3.990  15.454 -1.1194  0.5872 -0.4243
   7423SM  H14G 9784   2.755   4.046  15.620  0.1922  1.1146 -1.2577
   7423SM  C15F 9785   2.706   4.184  15.494  0.1707 -0.1366  0.0054
   7423SM  H15F 9786   2.813   4.213  15.501  0.6220 -1.4711 -0.7963
   7423SM  H15G 9787   2.658   4.254  15.564 -1.5462 -2.0734  0.8768
   7423SM  C16F 9788   2.655   4.222  15.348  0.0016  0.0902  0.3708
   7423SM  H16F 9789   2.672   4.326  15.313 -0.5801  0.3133  0.7213
   7423SM  H16G 9790   2.544   4.210  15.354  0.1228 -1.8345 -0.4843
   7423SM  C17F 9791   2.694   4.126  15.233  0.5279 -0.2874  0.0751
   7423SM  H17F 9792   2.694   4.016  15.250 -0.3292 -0.1755  0.9230
   7423SM  H17G 9793   2.799   4.157  15.213  0.1930  0.4964 -0.5083
   7423SM  C18F 9794   2.624   4.155  15.101  0.1270  0.3486  0.2295
   7423SM  H18F 9795   2.614   4.265  15.105 -0.9618  0.2440  0.7968
   7423SM  H18G 9796   2.520   4.116  15.100 -0.0101  0.5685  2.2573
   7423SM  C19F 9797   2.703   4.109  14.968  0.0212  0.1034  0.8563
   7423SM  H19F 9798   2.726   4.000  14.975  0.3051  0.0779 -0.2483
   7423SM  H19G 9799   2.803   4.156  14.984 -0.3531  1.6825 -1.0999
   7423SM  C20F 9800   2.629   4.140  14.834 -0.3934 -0.2871 -0.3147
   7423SM  H20F 9801   2.532   4.085  14.845 -0.4392 -0.2710 -0.6338
   7423SM  H20G 9802   2.687   4.093  14.752  0.9161 -0.3463  0.6135
   7423SM  C21F 9803   2.614   4.289  14.803  0.7417 -0.0985 -0.0636
   7423SM  H21F 9804   2.716   4.322  14.773  0.9501  0.4508  1.1860
   7423SM  H21G 9805   2.579   4.353  14.887 -0.5764 -0.1847 -0.5232
   7423SM  C22F 9806   2.509   4.318  14.694  0.1848 -0.3071  0.1355
   7423SM  H22F 9807   2.510   4.427  14.675  0.3268 -0.1477  1.0209
   7423SM  H22G 9808   2.406   4.297  14.730  0.1017  1.5594  1.1467
   7423SM  C23F 9809   2.526   4.236  14.570 -0.0156 -0.5855 -0.1982
   7423SM  H23F 9810   2.490   4.132  14.589  0.8938 -1.1364 -1.3849
   7423SM  H23G 9811   2.632   4.245  14.540  0.3575 -0.6700  1.0230
   7423SM  H23H 9812   2.461   4.270  14.487  0.3756  0.0578 -0.2457
   7523SM     N 9813   2.007   4.825  17.504 -0.0339  0.7549  0.0540
   7523SM   C15 9814   1.887   4.756  17.567  0.6715  0.4829 -0.6604
   7523SM  H15A 9815   1.856   4.671  17.508  0.0191  0.5806 -0.4729
   7523SM  H15B 9816   1.802   4.823  17.570 -0.3498 -0.7905 -0.6392
   7523SM  H15C 9817   1.908   4.731  17.670  0.2708 -1.6274 -1.0526
   7523SM   C14 9818   2.046   4.946  17.586 -0.4924 -0.2846 -0.0201
   7523SM  H14A 9819   1.963   5.014  17.590 -0.5029 -0.0921 -2.2887
   7523SM  H14B 9820   2.132   4.992  17.538 -1.8009  2.7399  0.3035
   7523SM  H14C 9821   2.074   4.912  17.684 -0.1950 -0.0196 -0.0139
   7523SM   C13 9822   2.120   4.729  17.496 -0.0150  1.4458 -0.5109
   7523SM  H13A 9823   2.205   4.780  17.454  0.8476  0.1693 -0.3906
   7523SM  H13B 9824   2.087   4.648  17.432  0.9390 -0.4894  1.3097
   7523SM  H13C 9825   2.142   4.690  17.594 -1.4427  1.3711 -0.1991
   7523SM   C12 9826   1.967   4.871  17.365  0.0836  0.0642  0.4885
   7523SM  H12A 9827   1.973   4.784  17.301  0.6120 -0.5015  1.2945
   7523SM  H12B 9828   2.053   4.921  17.322  0.4874 -1.1598 -0.1792
   7523SM   C11 9829   1.843   4.958  17.327  1.0641 -0.2626 -0.5199
   7523SM  H11A 9830   1.755   4.892  17.340  0.3122  1.0373  1.4847
   7523SM  H11B 9831   1.841   4.994  17.221 -0.7255 -1.7020 -1.0358
   7523SM     P 9832   1.728   5.174  17.416 -0.0999  0.3165 -0.3434
   7523SM   O13 9833   1.601   5.110  17.471  0.2735 -0.2834  0.5363
   7523SM   O14 9834   1.759   5.303  17.487 -0.0252 -0.3310  0.1389
   7523SM   O11 9835   1.714   5.213  17.270  0.1425 -0.2828  0.0975
   7523SM   O12 9836   1.844   5.072  17.414 -0.4923 -0.7536 -0.4696
   7523SM   C1S 9837   1.614   5.144  17.190 -0.0098 -0.1740  0.2374
   7523SM   H1S 9838   1.513   5.165  17.232 -0.1828  1.1812 -0.8126
   7523SM   H1T 9839   1.633   5.034  17.200  0.6182 -0.2830 -1.7470
   7523SM    NF 9840   1.515   5.094  16.968 -0.0047 -0.1112 -0.3648
   7523SM   HNF 9841   1.526   5.015  16.908  1.0773 -0.3551  0.1394
   7523SM   C2S 9842   1.622   5.165  17.037 -0.5782 -0.1340  0.6283
   7523SM   H2S 9843   1.618   5.275  17.024 -0.1233 -0.3989 -2.4039
   7523SM   C3S 9844   1.765   5.128  16.986 -0.7548 -0.0107  0.2692
   7523SM   H3S 9845   1.792   5.023  17.010  1.4032  0.5352  0.4481
   7523SM    O3 9846   1.875   5.198  17.051  0.1244 -0.2740  0.3679
   7523SM   HO3 9847   1.826   5.231  17.127 -1.2227  0.4087 -0.7553
   7523SM   C4S 9848   1.770   5.154  16.844  0.0503  0.0020  0.3820
   7523SM   H4S 9849   1.756   5.261  16.824  1.4311 -0.0818 -1.2567
   7523SM   C5S 9850   1.788   5.064  16.747 -0.1132  0.1200 -0.1176
   7523SM   H5S 9851   1.780   4.959  16.777 -1.4172 -0.0410 -0.9101
   7523SM   C6S 9852   1.789   5.101  16.599 -0.2990  0.3740  0.4332
   7523SM   H6S 9853   1.882   5.056  16.558 -1.1311 -2.7341  1.6262
   7523SM   H6T 9854   1.794   5.210  16.582  1.1185  0.1925 -0.4081
   7523SM   C7S 9855   1.672   5.041  16.520  0.4310 -0.1159 -0.2250
   7523SM   H7S 9856   1.583   5.088  16.565  1.0938  0.8669  0.1050
   7523SM   H7T 9857   1.682   4.932  16.538  1.9538 -0.0520 -0.4964
   7523SM   C8S 9858   1.688   5.061  16.371 -0.9934 -0.1192  0.3577
   7523SM   H8S 9859   1.792   5.029  16.348 -1.5332 -1.2985 -0.5400
   7523SM   H8T 9860   1.671   5.163  16.331 -0.7796 -1.1070 -2.5100
   7523SM   C9S 9861   1.579   4.966  16.313  0.6152  0.0128 -0.2123
   7523SM   H9S 9862   1.482   4.964  16.367  1.4549 -2.5633  1.3717
   7523SM   H9T 9863   1.623   4.865  16.330 -0.0997 -0.3457 -0.4404
   7523SM  C10S 9864   1.536   4.988  16.166 -0.3479  0.1814  0.4286
   7523SM  H10S 9865   1.436   4.941  16.160 -0.0374 -0.4045 -0.3729
   7523SM  H10T 9866   1.614   4.945  16.099 -1.7109 -3.1576  0.7688
   7523SM  C11S 9867   1.515   5.138  16.121  0.5410  0.1645  0.3399
   7523SM  H11S 9868   1.595   5.215  16.131  0.1968  0.6118 -0.3281
   7523SM  H11T 9869   1.433   5.174  16.186 -1.1784 -2.8949  0.0501
   7523SM  C12S 9870   1.462   5.138  15.977 -0.1197 -0.3674  0.1242
   7523SM  H12S 9871   1.386   5.215  15.952  0.7134  0.4617  0.1476
   7523SM  H12T 9872   1.404   5.043  15.966 -0.3878 -0.5600  2.6741
   7523SM  C13S 9873   1.571   5.143  15.868 -0.0503  0.4049  0.0486
   7523SM  H13S 9874   1.657   5.085  15.908 -0.9497 -0.3779  0.9179
   7523SM  H13T 9875   1.593   5.249  15.846  1.3474  0.1646  0.1730
   7523SM  C14S 9876   1.506   5.077  15.742  0.0060 -0.2952 -0.2405
   7523SM  H14S 9877   1.407   5.120  15.719 -0.9603 -2.5278 -0.5654
   7523SM  H14T 9878   1.509   4.966  15.753  5.2176 -0.3317  0.7955
   7523SM  C15S 9879   1.605   5.091  15.625 -0.7262  0.0336  0.3997
   7523SM  H15S 9880   1.695   5.034  15.656 -1.7332 -0.1474  3.3910
   7523SM  H15T 9881   1.637   5.198  15.630 -2.5363  0.6363 -0.0631
   7523SM  C16S 9882   1.541   5.064  15.487  0.4584  0.4971 -0.0893
   7523SM  H16S 9883   1.611   5.084  15.403  1.5935  2.3060  1.2207
   7523SM  H16T 9884   1.450   5.128  15.481 -0.2130 -0.4757 -0.5503
   7523SM  C17S 9885   1.488   4.918  15.472 -0.0744  0.2727 -0.4550
   7523SM  H17S 9886   1.393   4.908  15.530 -0.4770  0.6905 -1.0416
   7523SM  H17T 9887   1.561   4.845  15.513  1.0398 -0.1986 -3.1090
   7523SM  C18S 9888   1.453   4.888  15.326  0.1150 -0.0082  0.2436
   7523SM  H18S 9889   1.429   4.780  15.315  1.1838 -0.5931  2.9700
   7523SM  H18T 9890   1.538   4.896  15.254  0.9846 -2.7490  0.8435
   7523SM  H18U 9891   1.364   4.943  15.288 -0.3673 -0.3906  0.8109
   7523SM   C1F 9892   1.393   5.139  16.981 -0.1324 -0.8764  0.6374
   7523SM    OF 9893   1.365   5.249  17.033 -0.6957 -0.4173  0.6429
   7523SM   C2F 9894   1.276   5.068  16.919 -0.3812 -0.2132  0.1101
   7523SM   H2F 9895   1.193   5.075  16.992 -0.6293 -1.1359 -0.0682
   7523SM   H2G 9896   1.295   4.962  16.894  1.7276  0.2375 -0.4191
   7523SM   C3F 9897   1.239   5.151  16.790  0.4456  0.5488 -0.0530
   7523SM   H3F 9898   1.201   5.249  16.824  2.3072  1.5382 -0.6896
   7523SM   H3G 9899   1.159   5.094  16.738  1.3223 -1.5180  0.7523
   7523SM   C4F 9900   1.348   5.163  16.685 -0.5758  0.1108 -0.4435
   7523SM   H4F 9901   1.396   5.063  16.684 -1.4923 -0.3420 -0.2896
   7523SM   H4G 9902   1.424   5.232  16.729  1.9128 -1.6450 -1.7282
   7523SM   C5F 9903   1.302   5.210  16.547 -0.0745  0.7211 -0.4312
   7523SM   H5F 9904   1.395   5.239  16.493  0.1047  1.1288  0.0793
   7523SM   H5G 9905   1.224   5.289  16.555 -1.9105 -1.1613  1.2272
   7523SM   C6F 9906   1.229   5.100  16.474  0.1509  0.2039  0.4210
   7523SM   H6F 9907   1.139   5.076  16.534  0.1651  0.0236  0.3718
   7523SM   H6G 9908   1.291   5.008  16.463 -0.7007 -0.8456  3.5107
   7523SM   C7F 9909   1.175   5.145  16.333 -0.2246 -0.1034 -0.0713
   7523SM   H7F 9910   1.267   5.163  16.273  0.7550  0.2539  1.4680
   7523SM   H7G 9911   1.123   5.243  16.339  1.9097  1.1560 -0.7444
   7523SM   C8F 9912   1.086   5.041  16.259 -0.8984 -0.2346  0.4385
   7523SM   H8F 9913   0.987   5.029  16.309 -0.6291 -0.9022  0.8242
   7523SM   H8G 9914   1.143   4.949  16.284  0.3363  0.8935  1.9951
   7523SM   C9F 9915   1.080   5.079  16.115 -0.7933  0.0386  0.1361
   7523SM   H9F 9916   1.178   5.107  16.071 -1.0892 -1.7722 -1.8251
   7523SM   H9G 9917   1.005   5.161  16.102 -1.0339 -0.1423  0.3635
   7523SM  C10F 9918   1.031   4.970  16.027 -1.3379 -0.5800  0.1402
   7523SM  H10F 9919   0.929   4.938  16.056 -1.0903 -0.0416  1.7224
   7523SM  H10G 9920   1.091   4.878  16.040  1.0945  0.6634 -1.4460
   7523SM  C11F 9921   1.047   5.001  15.878  0.0007 -0.3299  0.1966
   7523SM  H11F 9922   1.145   5.046  15.852 -0.6281  0.1252 -1.5827
   7523SM  H11G 9923   0.972   5.080  15.854 -0.8775 -1.3576 -0.5373
   7523SM  C12F 9924   1.015   4.892  15.769  0.5261  0.0895 -0.5378
   7523SM  H12F 9925   0.905   4.900  15.752  0.7911 -1.3473 -3.5977
   7523SM  H12G 9926   1.027   4.791  15.812  1.4074  1.0823  1.7344
   7523SM  C13F 9927   1.076   4.908  15.634  0.4902  0.2054 -0.4922
   7523SM  H13F 9928   1.078   4.812  15.578  0.5460  0.7274 -1.4132
   7523SM  H13G 9929   1.185   4.930  15.648  0.5908  0.6835 -1.9112
   7523SM  C14F 9930   1.013   5.013  15.551 -0.7199  0.0906  0.2556
   7523SM  H14F 9931   1.008   5.105  15.613 -1.5925  0.7186 -0.7036
   7523SM  H14G 9932   0.908   4.999  15.516 -1.1540  3.6247 -0.1707
   7523SM  C15F 9933   1.099   5.046  15.420  0.1244 -0.5766  0.5480
   7523SM  H15F 9934   1.117   4.953  15.361  1.0026 -0.3482  0.4384
   7523SM  H15G 9935   1.200   5.086  15.445  0.2519  0.8654 -1.9597
   7523SM  C16F 9936   1.044   5.155  15.331  0.0301 -0.0085  0.6216
   7523SM  H16F 9937   1.099   5.252  15.337  0.1059 -0.0184  0.1023
   7523SM  H16G 9938   0.936   5.170  15.354  0.4741  2.1938  1.5160
   7523SM  C17F 9939   1.049   5.127  15.178  0.6366 -0.0690  0.2899
   7523SM  H17F 9940   1.019   5.020  15.169 -1.8408  0.6537 -0.8460
   7523SM  H17G 9941   1.156   5.132  15.148  0.7016  0.1515  0.5513
   7523SM  C18F 9942   0.955   5.222  15.103 -0.5170  0.0543  0.5917
   7523SM  H18F 9943   0.992   5.320  15.139  1.4930  0.2411 -1.6982
   7523SM  H18G 9944   0.846   5.198  15.107 -0.8449  0.9300 -1.4720
   7523SM  C19F 9945   0.985   5.239  14.953 -0.2633  0.2477  0.6290
   7523SM  H19F 9946   0.903   5.299  14.909  0.8006  0.2848 -1.4464
   7523SM  H19G 9947   0.993   5.147  14.890  1.1163  1.0310 -0.4155
   7523SM  C20F 9948   1.115   5.323  14.927  0.1084  0.0710  0.0004
   7523SM  H20F 9949   1.207   5.264  14.946  1.2534  1.9460  0.4678
   7523SM  H20G 9950   1.126   5.418  14.983  1.1109 -0.2138  0.3041
   7523SM  C21F 9951   1.126   5.357  14.773  0.4180 -0.8380  0.1414
   7523SM  H21F 9952   1.120   5.265  14.712  2.0798 -1.0699  0.2954
   7523SM  H21G 9953   1.225   5.405  14.760 -0.1036  0.2672  0.0944
   7523SM  C22F 9954   1.019   5.457  14.723  0.2639 -0.2987  0.0948
   7523SM  H22F 9955   1.003   5.536  14.799 -0.9997 -1.4160  1.0439
   7523SM  H22G 9956   0.919   5.410  14.717 -0.5069  1.4425 -3.7906
   7523SM  C23F 9957   1.054   5.510  14.585 -0.0551  0.1969  0.5979
   7523SM  H23F 9958   1.067   5.421  14.519 -1.4001  0.8992 -0.6784
   7523SM  H23G 9959   1.147   5.571  14.584 -0.0650  0.3185  2.6134
   7523SM  H23H 9960   0.968   5.565  14.542  0.6799 -0.8383 -2.4179
   7623SM     N 9961   2.679   5.387  17.233 -0.7653  0.5500  0.3522
   7623SM   C15 9962   2.795   5.320  17.168 -0.3871 -0.1154  0.1527
   7623SM  H15A 9963   2.769   5.219  17.138  0.0751  0.4928 -2.5380
   7623SM  H15B 9964   2.884   5.323  17.228 -1.0520 -1.1154  1.2429
   7623SM  H15C 9965   2.810   5.373  17.075 -0.3048  0.5560  0.5468
   7623SM   C14 9966   2.710   5.532  17.237  0.5662 -0.3164  0.2665
   7623SM  H14A 9967   2.719   5.570  17.137 -1.5327 -3.2095 -1.1602
   7623SM  H14B 9968   2.805   5.546  17.287  0.3959  0.1610  0.4606
   7623SM  H14C 9969   2.630   5.590  17.279  1.1942  0.7180  0.0675
   7623SM   C13 9970   2.563   5.359  17.144  0.2781 -0.4403 -0.3554
   7623SM  H13A 9971   2.471   5.411  17.167  1.3975  2.5618 -2.0210
   7623SM  H13B 9972   2.542   5.254  17.151 -0.3918 -0.5544 -3.0416
   7623SM  H13C 9973   2.596   5.391  17.045  1.0855 -1.3966 -0.4117
   7623SM   C12 9974   2.665   5.330  17.371  0.2107  0.1995  0.0882
   7623SM  H12A 9975   2.591   5.373  17.437  0.0878  1.5532 -0.8761
   7623SM  H12B 9976   2.757   5.360  17.418  1.8786 -1.9995 -1.5674
   7623SM   C11 9977   2.665   5.177  17.385  0.2550 -0.0560  0.2099
   7623SM  H11A 9978   2.683   5.158  17.493 -1.6713 -1.2749  0.3733
   7623SM  H11B 9979   2.745   5.134  17.321 -0.0829 -2.3415  1.2220
   7623SM     P 9980   2.428   5.105  17.467 -0.3022  0.3906 -0.1154
   7623SM   O13 9981   2.468   4.972  17.530  0.0221 -0.1439  0.1953
   7623SM   O14 9982   2.427   5.227  17.549 -0.2610  0.5390 -0.0446
   7623SM   O11 9983   2.285   5.080  17.401  0.3320  0.3326 -0.0656
   7623SM   O12 9984   2.538   5.131  17.346  0.1940  0.2416  0.0367
   7623SM   C1S 9985   2.202   5.182  17.345 -0.1003  0.4488 -0.6344
   7623SM   H1S 9986   2.241   5.282  17.373  0.0556  0.1325  0.3120
   7623SM   H1T 9987   2.097   5.165  17.376  0.2341 -0.8710 -0.1350
   7623SM    NF 9988   2.130   5.289  17.145 -0.3607 -1.0667 -0.6574
   7623SM   HNF 9989   2.047   5.269  17.094 -0.5442 -0.7243 -0.4942
   7623SM   C2S 9990   2.207   5.175  17.187  0.0531 -0.2469 -0.8364
   7623SM   H2S 9991   2.314   5.186  17.159  0.4340  0.1932  0.7058
   7623SM   C3S 9992   2.153   5.044  17.134 -0.0199  0.9343  0.0144
   7623SM   H3S 9993   2.046   5.027  17.156  0.1403  1.3055  1.1169
   7623SM    O3 9994   2.211   4.924  17.186 -0.2455  0.5515 -0.3997
   7623SM   HO3 9995   2.274   4.956  17.251  0.7287  3.5457 -2.5931
   7623SM   C4S 9996   2.169   5.057  16.983  0.0131 -0.2379 -0.2490
   7623SM   H4S 9997   2.076   5.092  16.937 -2.0104 -2.5053  1.8160
   7623SM   C5S 9998   2.286   5.038  16.912  1.4145  0.3620 -0.4201
   7623SM   H5S 9999   2.385   5.011  16.952  1.2682 -1.1693 -1.0190
   7623SM   C6S10000   2.286   5.062  16.765  0.0905 -0.1707 -0.2131
   7623SM   H6S10001   2.293   4.964  16.713  1.1149 -0.4272  0.3773
   7623SM   H6T10002   2.388   5.103  16.747  0.8346 -2.7830 -2.6578
   7623SM   C7S10003   2.177   5.136  16.689  0.8609 -0.7259 -0.3969
   7623SM   H7S10004   2.165   5.238  16.731  1.5256 -1.2151  1.0824
   7623SM   H7T10005   2.080   5.087  16.713  1.5293 -0.8204  2.5917
   7623SM   C8S10006   2.198   5.136  16.537 -0.9345  0.0366  0.2955
   7623SM   H8S10007   2.167   5.041  16.487 -0.9817  1.0260 -1.6644
   7623SM   H8T10008   2.305   5.153  16.512 -1.0316  0.5230  0.1967
   7623SM   C9S10009   2.116   5.240  16.464 -0.2532  0.0527  0.3557
   7623SM   H9S10010   2.151   5.337  16.503 -0.8538 -0.2068  1.6016
   7623SM   H9T10011   2.010   5.220  16.491  0.4380 -2.4266  1.5856
   7623SM  C10S10012   2.142   5.247  16.318  0.7718  0.0101  0.4417
   7623SM  H10S10013   2.140   5.144  16.275 -1.2889 -0.3752  1.3173
   7623SM  H10T10014   2.241   5.291  16.293  0.7475 -0.7900 -1.2578
   7623SM  C11S10015   2.036   5.330  16.242  0.0323  0.3739  0.3811
   7623SM  H11S10016   2.042   5.440  16.260 -0.2807  0.9196 -2.4415
   7623SM  H11T10017   1.936   5.293  16.271 -0.9798  2.6332 -0.0077
   7623SM  C12S10018   2.060   5.308  16.090  0.2881 -0.5937  0.0324
   7623SM  H12S10019   2.049   5.205  16.049 -1.4790  0.3976 -2.1838
   7623SM  H12T10020   2.162   5.341  16.061 -1.3467  4.0183 -1.3677
   7623SM  C13S10021   1.965   5.385  15.999  0.2380 -1.1119  0.2648
   7623SM  H13S10022   1.988   5.494  16.006  0.7890 -1.1740 -0.4278
   7623SM  H13T10023   1.863   5.353  16.030  0.4118 -2.4389 -0.4905
   7623SM  C14S10024   1.971   5.351  15.851  0.0183 -0.2436  0.0631
   7623SM  H14S10025   1.938   5.246  15.837 -2.0226  0.2433  0.9256
   7623SM  H14T10026   2.076   5.350  15.812 -0.0310  1.6700 -0.2155
   7623SM  C15S10027   1.889   5.433  15.751 -0.1398 -1.1032  0.5455
   7623SM  H15S10028   1.940   5.531  15.744 -1.0509 -0.6834 -0.5352
   7623SM  H15T10029   1.786   5.444  15.790 -0.5234  1.0022 -0.9204
   7623SM  C16S10030   1.886   5.369  15.615 -0.0667  0.2213  0.6460
   7623SM  H16S10031   1.829   5.276  15.638 -0.7713  0.8964  1.7126
   7623SM  H16T10032   1.986   5.337  15.578 -0.6023 -2.3677  1.2099
   7623SM  C17S10033   1.828   5.459  15.504 -0.2428 -0.6135 -0.3076
   7623SM  H17S10034   1.902   5.538  15.479 -2.2934  0.7417 -2.5004
   7623SM  H17T10035   1.734   5.508  15.538  0.0894 -1.0226  1.2639
   7623SM  C18S10036   1.803   5.393  15.367 -0.1067 -0.0709 -0.0933
   7623SM  H18S10037   1.893   5.361  15.311 -0.7206  0.2635 -1.3137
   7623SM  H18T10038   1.748   5.466  15.303 -0.8446  1.3502  2.0653
   7623SM  H18U10039   1.734   5.305  15.374  0.0889 -0.1923  0.2862
   7623SM   C1F10040   2.158   5.418  17.164  0.0770 -0.7916  0.2082
   7623SM    OF10041   2.271   5.452  17.202 -0.0887 -0.0657 -0.2116
   7623SM   C2F10042   2.054   5.514  17.109 -0.6721  0.3115 -0.4031
   7623SM   H2F10043   2.034   5.581  17.195 -2.8580 -1.0815  0.2480
   7623SM   H2G10044   1.962   5.454  17.090 -1.3807  0.4456  2.2410
   7623SM   C3F10045   2.086   5.605  16.990  0.0123  0.0429 -0.0569
   7623SM   H3F10046   2.191   5.637  17.011  0.8764 -2.8300  0.4835
   7623SM   H3G10047   2.015   5.690  16.991  0.3125  0.2915  0.8945
   7623SM   C4F10048   2.083   5.536  16.846 -0.1331 -0.3986  0.3238
   7623SM   H4F10049   2.155   5.453  16.862  1.4455  1.0324  0.8918
   7623SM   H4G10050   2.128   5.604  16.770  1.3240 -0.8352  0.7674
   7623SM   C5F10051   1.947   5.489  16.796  0.4823 -0.4124  0.1951
   7623SM   H5F10052   1.895   5.413  16.858 -2.6720  0.3473 -1.2643
   7623SM   H5G10053   1.954   5.436  16.698  1.2244  0.5960 -0.3170
   7623SM   C6F10054   1.852   5.612  16.769  0.1509  0.1898  0.1302
   7623SM   H6F10055   1.889   5.651  16.672 -1.9785  0.3118 -0.6841
   7623SM   H6G10056   1.859   5.686  16.852 -1.2914  1.7015 -1.0261
   7623SM   C7F10057   1.707   5.573  16.772  0.2999 -0.4355 -0.5842
   7623SM   H7F10058   1.647   5.666  16.777  0.9366 -0.0652  0.5477
   7623SM   H7G10059   1.685   5.515  16.865  0.3518  0.5256  0.0416
   7623SM   C8F10060   1.648   5.492  16.648  0.0649  0.7372 -0.1005
   7623SM   H8F10061   1.541   5.473  16.673  0.0708 -0.1970 -0.7340
   7623SM   H8G10062   1.694   5.392  16.660 -2.5769 -0.5151  0.4196
   7623SM   C9F10063   1.653   5.558  16.513 -1.4114  0.1139  0.6185
   7623SM   H9F10064   1.749   5.529  16.465 -0.6047  2.4313  0.7132
   7623SM   H9G10065   1.660   5.668  16.524  1.3461  0.0389  0.5172
   7623SM  C10F10066   1.542   5.512  16.421  0.3041  0.4609 -0.2542
   7623SM  H10F10067   1.441   5.544  16.454 -0.2791 -1.1703 -0.3457
   7623SM  H10G10068   1.545   5.401  16.411  0.1513  0.1729  2.2138
   7623SM  C11F10069   1.568   5.569  16.284  0.1765  0.3677  0.2574
   7623SM  H11F10070   1.662   5.528  16.241 -0.4178  0.4589 -1.2108
   7623SM  H11G10071   1.572   5.680  16.292  1.0065  0.2546  1.6750
   7623SM  C12F10072   1.463   5.537  16.179 -0.3067  0.0046  0.2023
   7623SM  H12F10073   1.376   5.604  16.194 -2.0136 -1.1126 -3.4724
   7623SM  H12G10074   1.430   5.433  16.199 -0.9347  0.2360  0.3700
   7623SM  C13F10075   1.521   5.544  16.033 -0.3104  0.4324  0.1503
   7623SM  H13F10076   1.602   5.469  16.023 -1.2302 -0.3797 -1.6626
   7623SM  H13G10077   1.564   5.642  16.004  1.3133 -0.5113 -0.7788
   7623SM  C14F10078   1.417   5.520  15.924 -0.4564  0.1644 -0.4305
   7623SM  H14F10079   1.321   5.575  15.928 -0.6589 -0.2803  1.4242
   7623SM  H14G10080   1.388   5.413  15.928 -1.6218  0.5004  0.3423
   7623SM  C15F10081   1.464   5.554  15.778 -0.1120 -0.5115 -0.5644
   7623SM  H15F10082   1.562   5.506  15.757  0.4079 -0.1232  0.8692
   7623SM  H15G10083   1.477   5.664  15.773 -0.2062 -0.5652 -3.3824
   7623SM  C16F10084   1.365   5.507  15.673 -0.0533 -0.6319  0.2788
   7623SM  H16F10085   1.280   5.579  15.667 -0.2745 -0.9856 -1.2807
   7623SM  H16G10086   1.326   5.410  15.709  0.5114 -0.9103  0.1536
   7623SM  C17F10087   1.426   5.469  15.540  0.6503 -0.0165  0.1632
   7623SM  H17F10088   1.510   5.396  15.543  0.1976 -0.5141  2.1755
   7623SM  H17G10089   1.480   5.557  15.499 -1.9590  1.2324 -0.8226
   7623SM  C18F10090   1.321   5.411  15.442 -0.4289  0.9680 -0.2252
   7623SM  H18F10091   1.227   5.471  15.442 -1.7205 -0.9881  0.0834
   7623SM  H18G10092   1.281   5.315  15.480  1.1517  0.1992 -0.4409
   7623SM  C19F10093   1.389   5.368  15.314 -0.1013 -0.4812 -0.2217
   7623SM  H19F10094   1.319   5.309  15.252  0.0457 -0.4606 -0.4066
   7623SM  H19G10095   1.476   5.306  15.346  1.3788  1.1361 -0.9616
   7623SM  C20F10096   1.449   5.471  15.214 -0.1068 -0.8075 -0.0627
   7623SM  H20F10097   1.544   5.517  15.249 -0.3710  0.2595 -0.6956
   7623SM  H20G10098   1.371   5.549  15.202 -0.4560 -1.1450  0.0111
   7623SM  C21F10099   1.483   5.415  15.071 -0.2356  0.4906  0.3769
   7623SM  H21F10100   1.390   5.374  15.025 -0.2307 -0.1013  0.8777
   7623SM  H21G10101   1.551   5.328  15.082 -1.6416 -0.9107 -1.4341
   7623SM  C22F10102   1.550   5.528  15.000 -0.4318 -0.7348 -0.2315
   7623SM  H22F10103   1.624   5.579  15.065  0.7460  1.2899 -2.9953
   7623SM  H22G10104   1.474   5.604  14.972  0.9103 -0.1107 -2.3632
   7623SM  C23F10105   1.622   5.473  14.876 -0.1584 -0.0817 -0.1013
   7623SM  H23F10106   1.719   5.422  14.897  0.7781  1.5663 -0.2426
   7623SM  H23G10107   1.636   5.561  14.810  0.0548  1.1462  1.5266
   7623SM  H23H10108   1.554   5.401  14.826 -0.3442  0.4332 -0.5951
   7723SM     N10109   1.910   1.727  17.773 -0.4008 -0.2162 -0.0560
   7723SM   C1510110   1.765   1.698  17.761  0.2498 -0.1818  1.1582
   7723SM  H15A10111   1.736   1.719  17.659 -0.3831 -0.0061  1.3704
   7723SM  H15B10112   1.699   1.763  17.816  1.6925  1.7364  0.6923
   7723SM  H15C10113   1.749   1.595  17.791  2.4250 -0.3717  1.8124
   7723SM   C1410114   1.919   1.877  17.767 -0.3528 -0.2326  0.7497
   7723SM  H14A10115   1.858   1.910  17.684 -0.0905  1.1510  1.0781
   7723SM  H14B10116   2.017   1.920  17.750 -0.4886  0.2433  1.1411
   7723SM  H14C10117   1.872   1.917  17.855 -2.5348 -0.2578 -0.3473
   7723SM   C1310118   1.955   1.687  17.905 -0.1139 -0.0946 -0.1452
   7723SM  H13A10119   1.914   1.596  17.946  0.9984 -0.2851  0.5830
   7723SM  H13B10120   1.930   1.772  17.967  0.0860  0.8614 -1.3348
   7723SM  H13C10121   2.062   1.678  17.905  0.1253  1.8942  1.8683
   7723SM   C1210122   1.991   1.658  17.675 -0.2136 -0.2851 -0.1664
   7723SM  H12A10123   2.019   1.565  17.722  1.6338  0.5217  0.4215
   7723SM  H12B10124   2.085   1.707  17.653 -0.7166  0.2592 -1.1988
   7723SM   C1110125   1.927   1.643  17.533  0.3578  0.2173 -0.5889
   7723SM  H11A10126   1.829   1.590  17.541  0.7631 -0.3658  0.8584
   7723SM  H11B10127   1.996   1.574  17.480 -0.2890 -0.6436 -0.3451
   7723SM     P10128   2.031   1.835  17.389 -0.2327 -0.1652 -0.1478
   7723SM   O1310129   1.973   1.955  17.326 -0.3785 -0.5624  0.4125
   7723SM   O1410130   2.148   1.856  17.473 -0.0945 -0.0971 -0.2488
   7723SM   O1110131   2.064   1.737  17.271  0.1955 -0.6787 -0.1671
   7723SM   O1210132   1.908   1.765  17.459  0.0967 -0.0328 -0.1724
   7723SM   C1S10133   1.976   1.674  17.179  0.0358 -0.5741 -0.4959
   7723SM   H1S10134   1.875   1.654  17.221 -0.1475 -0.2042 -0.7517
   7723SM   H1T10135   2.020   1.582  17.136  1.8344  0.2087 -0.3879
   7723SM    NF10136   1.838   1.690  16.976  0.0187  0.0062 -0.3619
   7723SM   HNF10137   1.869   1.649  16.891 -0.4264  0.6584 -0.8521
   7723SM   C2S10138   1.948   1.760  17.048 -0.2661 -0.0240  0.2247
   7723SM   H2S10139   1.923   1.864  17.079 -1.3195 -1.1279  3.5356
   7723SM   C3S10140   2.081   1.761  16.967 -0.2029  0.0226  0.1986
   7723SM   H3S10141   2.119   1.658  16.954  1.8658  0.9380 -1.8926
   7723SM    O310142   2.186   1.826  17.030 -0.2259  0.1087  0.2263
   7723SM   HO310143   2.176   1.824  17.126  1.8897  1.9568  0.5757
   7723SM   C4S10144   2.054   1.814  16.832  0.0947 -0.2612  0.2461
   7723SM   H4S10145   2.007   1.743  16.763 -2.3940  2.0464 -0.6440
   7723SM   C5S10146   2.078   1.937  16.785 -0.0087  0.1323  0.1238
   7723SM   H5S10147   2.111   2.016  16.855  0.1524 -0.8425  1.1750
   7723SM   C6S10148   2.039   1.975  16.641  0.4194 -0.1929  0.4763
   7723SM   H6S10149   2.126   2.008  16.580 -0.6367  0.8126 -0.5350
   7723SM   H6T10150   1.973   2.064  16.652  1.4406  0.6718 -0.1577
   7723SM   C7S10151   1.965   1.864  16.559  0.2165 -0.0100  0.5389
   7723SM   H7S10152   1.864   1.847  16.601 -1.3790  1.0345 -2.5627
   7723SM   H7T10153   2.028   1.773  16.558 -0.7620 -0.7057 -1.3697
   7723SM   C8S10154   1.935   1.880  16.406  0.6316  0.1775 -0.3880
   7723SM   H8S10155   1.876   1.974  16.398 -0.0825 -0.1927  0.3366
   7723SM   H8T10156   1.866   1.801  16.370  0.7679  0.2556 -0.8240
   7723SM   C9S10157   2.056   1.881  16.320  0.2041 -0.2482  0.4179
   7723SM   H9S10158   2.125   1.797  16.341 -0.0126  0.0533  2.5492
   7723SM   H9T10159   2.106   1.975  16.351  0.5017 -0.5493  0.8456
   7723SM  C10S10160   2.017   1.885  16.175  0.0514  0.2614  0.5039
   7723SM  H10S10161   1.957   1.978  16.168  2.6886  2.0040 -0.8703
   7723SM  H10T10162   1.956   1.802  16.136  0.1365  0.4651 -0.0701
   7723SM  C11S10163   2.138   1.895  16.079  0.1572  0.3877 -0.9108
   7723SM  H11S10164   2.199   1.803  16.093 -1.9846 -0.7978  1.5198
   7723SM  H11T10165   2.198   1.978  16.123 -2.0546  1.3976  0.3933
   7723SM  C12S10166   2.098   1.929  15.933 -0.5013 -0.2064 -0.4763
   7723SM  H12S10167   2.033   2.019  15.934 -0.3107  0.0459 -3.3835
   7723SM  H12T10168   2.043   1.843  15.888  1.4379 -0.8601 -1.7242
   7723SM  C13S10169   2.218   1.968  15.846 -0.6377 -0.0628  0.4620
   7723SM  H13S10170   2.251   2.070  15.877  1.4569 -0.1475 -1.3418
   7723SM  H13T10171   2.195   1.976  15.738  2.8961  1.1457 -0.3202
   7723SM  C14S10172   2.344   1.882  15.861  0.4200  0.5155 -0.1051
   7723SM  H14S10173   2.324   1.775  15.838  0.0718  1.2724 -4.2259
   7723SM  H14T10174   2.389   1.896  15.961 -0.6404 -1.0847  0.6458
   7723SM  C15S10175   2.439   1.909  15.741 -0.3970 -0.5273 -0.1805
   7723SM  H15S10176   2.482   2.011  15.747  0.5157 -0.6070 -3.5009
   7723SM  H15T10177   2.389   1.894  15.643  1.9460 -1.2288 -1.3326
   7723SM  C16S10178   2.557   1.811  15.742  0.1109  0.2961  0.1434
   7723SM  H16S10179   2.513   1.712  15.767  0.1322 -0.1961 -1.6261
   7723SM  H16T10180   2.618   1.833  15.831  0.3112  1.7662 -0.3162
   7723SM  C17S10181   2.628   1.795  15.606  0.2817  0.3905 -0.4069
   7723SM  H17S10182   2.559   1.825  15.524  0.5991 -0.0871 -0.8587
   7723SM  H17T10183   2.674   1.696  15.587  1.3191  1.0035 -1.2600
   7723SM  C18S10184   2.748   1.892  15.591  1.0475 -0.4057 -0.7078
   7723SM  H18S10185   2.707   1.995  15.600  2.5167  0.4525 -3.0173
   7723SM  H18T10186   2.786   1.882  15.487  2.0145  0.2934 -0.4340
   7723SM  H18U10187   2.825   1.862  15.665  0.5720 -0.7500 -0.3446
   7723SM   C1F10188   1.716   1.689  17.017 -0.3983 -0.2784  0.1314
   7723SM    OF10189   1.672   1.751  17.111 -0.0098 -0.6203  0.0872
   7723SM   C2F10190   1.628   1.618  16.925 -0.0095 -0.4364  0.0555
   7723SM   H2F10191   1.574   1.544  16.989 -0.8203 -0.3458 -0.5251
   7723SM   H2G10192   1.693   1.570  16.849 -0.4578 -1.5338  0.3307
   7723SM   C3F10193   1.528   1.712  16.859 -0.1473 -0.0441  0.2173
   7723SM   H3F10194   1.465   1.745  16.945 -1.9131 -3.8645  0.5929
   7723SM   H3G10195   1.475   1.640  16.793 -0.3483  0.8169 -0.5912
   7723SM   C4F10196   1.589   1.821  16.767  0.1996  0.1215 -0.2222
   7723SM   H4F10197   1.659   1.755  16.711 -0.6991 -0.8411 -0.2374
   7723SM   H4G10198   1.643   1.899  16.825  0.6129  0.6891 -1.3336
   7723SM   C5F10199   1.483   1.879  16.671 -0.3469  0.1543 -0.1499
   7723SM   H5F10200   1.407   1.947  16.715 -0.0623 -0.7731  1.9169
   7723SM   H5G10201   1.415   1.798  16.636 -1.4456  0.2136  1.7418
   7723SM   C6F10202   1.534   1.955  16.547  0.2203  0.2258  0.6445
   7723SM   H6F10203   1.453   1.995  16.482  1.6594  1.1498 -0.6353
   7723SM   H6G10204   1.598   1.895  16.479 -0.9010 -0.0625 -0.1942
   7723SM   C7F10205   1.617   2.074  16.593 -0.3575  0.4083  0.2253
   7723SM   H7F10206   1.707   2.028  16.639 -0.3343  0.2985  0.0719
   7723SM   H7G10207   1.565   2.133  16.672  0.8194  1.1759  0.4545
   7723SM   C8F10208   1.646   2.176  16.475  0.4792  0.6212  0.5047
   7723SM   H8F10209   1.552   2.212  16.428  0.4684  0.1443  0.1594
   7723SM   H8G10210   1.698   2.114  16.399 -1.0612 -2.4903  1.8336
   7723SM   C9F10211   1.741   2.289  16.497  0.0213 -0.5364 -0.2803
   7723SM   H9F10212   1.839   2.237  16.500  0.6357  0.6374  0.6713
   7723SM   H9G10213   1.729   2.350  16.589 -1.1608  0.4925 -1.0897
   7723SM  C10F10214   1.745   2.380  16.376 -0.9996 -0.2581 -0.2530
   7723SM  H10F10215   1.641   2.418  16.364 -0.3659  1.1568 -1.5266
   7723SM  H10G10216   1.774   2.326  16.284 -2.4511 -0.1869 -0.7813
   7723SM  C11F10217   1.840   2.503  16.376 -0.0709 -0.7216 -0.1174
   7723SM  H11F10218   1.947   2.475  16.371 -0.3328 -2.6656  2.7986
   7723SM  H11G10219   1.836   2.541  16.480 -1.8084  1.3179 -0.8657
   7723SM  C12F10220   1.811   2.616  16.269 -0.3793 -0.7338  1.0710
   7723SM  H12F10221   1.898   2.686  16.266 -2.3144  1.8173  1.4565
   7723SM  H12G10222   1.727   2.685  16.292 -1.2500 -1.0174 -1.0561
   7723SM  C13F10223   1.784   2.557  16.129  0.1935  0.2269 -0.6720
   7723SM  H13F10224   1.701   2.483  16.131  1.2787 -1.0096  0.8426
   7723SM  H13G10225   1.877   2.500  16.107  0.6596  1.0782 -0.9444
   7723SM  C14F10226   1.757   2.668  16.026 -0.6142 -0.1235  0.7285
   7723SM  H14F10227   1.853   2.722  16.011 -0.6941 -0.4978 -1.5180
   7723SM  H14G10228   1.677   2.735  16.063 -0.2118  3.1283 -3.4945
   7723SM  C15F10229   1.717   2.613  15.885  0.1534 -1.4785  0.0391
   7723SM  H15F10230   1.785   2.534  15.849 -1.1033 -2.1504 -0.9442
   7723SM  H15G10231   1.743   2.697  15.817  0.2617 -1.7724 -0.2842
   7723SM  C16F10232   1.570   2.580  15.857 -1.0280 -0.6772 -0.2448
   7723SM  H16F10233   1.508   2.666  15.892 -0.1633 -0.9710  2.1532
   7723SM  H16G10234   1.545   2.496  15.925 -0.0377 -1.9983 -1.4445
   7723SM  C17F10235   1.543   2.533  15.713 -0.5988 -0.2641 -0.6449
   7723SM  H17F10236   1.610   2.446  15.694  0.1198  0.0569  0.3713
   7723SM  H17G10237   1.578   2.615  15.647 -2.0581  2.0199  1.2961
   7723SM  C18F10238   1.395   2.510  15.692 -1.1099  0.1085 -0.0622
   7723SM  H18F10239   1.337   2.601  15.722 -0.7075 -0.4496  2.6929
   7723SM  H18G10240   1.360   2.438  15.769 -0.7601 -0.0013 -0.0088
   7723SM  C19F10241   1.350   2.481  15.546 -0.8281  0.1588  0.6015
   7723SM  H19F10242   1.413   2.399  15.505  0.0819 -0.4013  2.9491
   7723SM  H19G10243   1.388   2.570  15.491  0.4704 -0.2443  0.8125
   7723SM  C20F10244   1.199   2.456  15.527  0.6127  0.0483 -0.1194
   7723SM  H20F10245   1.131   2.524  15.583 -1.5174 -1.1125 -1.1539
   7723SM  H20G10246   1.177   2.352  15.561  0.3692 -0.1414 -0.8452
   7723SM  C21F10247   1.160   2.450  15.383 -0.1365  0.1358  0.4284
   7723SM  H21F10248   1.215   2.367  15.334  2.3024  2.2434 -0.6893
   7723SM  H21G10249   1.184   2.548  15.336 -0.0431  0.7692  1.7227
   7723SM  C22F10250   1.009   2.427  15.358 -0.7141  0.1685  0.2820
   7723SM  H22F10251   0.980   2.329  15.401  1.1677  0.1756  1.6983
   7723SM  H22G10252   0.996   2.428  15.248 -2.9599  2.1833  0.4698
   7723SM  C23F10253   0.921   2.538  15.409  0.7311 -0.6569 -0.5456
   7723SM  H23F10254   0.815   2.508  15.393  0.7340 -0.9180 -0.0961
   7723SM  H23G10255   0.947   2.631  15.354  0.4848 -0.5073 -0.4125
   7723SM  H23H10256   0.937   2.571  15.514  1.7592  0.9109 -1.1615
   7823SM     N10257   2.489   7.457  17.585  0.0083 -0.1172  0.2604
   7823SM   C1510258   2.374   7.364  17.608 -0.0141 -0.2494  0.6245
   7823SM  H15A10259   2.396   7.266  17.648 -3.8923 -0.9475  1.4954
   7823SM  H15B10260   2.329   7.348  17.511  2.2615 -0.2212 -0.4916
   7823SM  H15C10261   2.296   7.404  17.671  0.6845  0.3337  1.1405
   7823SM   C1410262   2.450   7.581  17.506  0.0762  0.9791  1.0202
   7823SM  H14A10263   2.446   7.558  17.400  1.7268  0.9298  0.9435
   7823SM  H14B10264   2.524   7.659  17.514  2.5298 -1.2102  1.2008
   7823SM  H14C10265   2.352   7.616  17.535 -1.6789 -1.1476 -1.7189
   7823SM   C1310266   2.529   7.522  17.719 -0.2167 -0.1474 -0.2322
   7823SM  H13A10267   2.562   7.442  17.783 -1.6343 -0.9918 -0.5158
   7823SM  H13B10268   2.439   7.566  17.761 -2.2248 -1.7225 -2.5730
   7823SM  H13C10269   2.602   7.600  17.710 -0.0442 -0.0449  1.6433
   7823SM   C1210270   2.606   7.388  17.525  0.0217  0.9981  0.1313
   7823SM  H12A10271   2.645   7.317  17.596 -1.1867 -1.2116 -1.3034
   7823SM  H12B10272   2.678   7.467  17.505  0.2336  0.7278 -0.1885
   7823SM   C1110273   2.585   7.309  17.389 -0.0580  0.3197 -0.0453
   7823SM  H11A10274   2.537   7.375  17.314 -1.8268 -0.4582  0.3378
   7823SM  H11B10275   2.520   7.221  17.409 -0.7521  1.1992  1.9380
   7823SM     P10276   2.814   7.372  17.281 -0.4482 -0.0436 -0.3541
   7823SM   O1310277   2.772   7.504  17.321 -0.1852 -0.8998 -0.1377
   7823SM   O1410278   2.954   7.332  17.300  0.0750  0.0783  0.0662
   7823SM   O1110279   2.791   7.350  17.129 -0.1713 -0.3959 -0.1890
   7823SM   O1210280   2.716   7.269  17.357 -0.1317 -0.0985  0.4932
   7823SM   C1S10281   2.676   7.399  17.067  0.3612 -0.6755  0.5327
   7823SM   H1S10282   2.678   7.510  17.063 -1.4579 -0.6367 -0.7310
   7823SM   H1T10283   2.585   7.356  17.115  1.2051 -1.6851  1.2523
   7823SM    NF10284   2.562   7.401  16.838 -0.3499  0.4887 -0.0036
   7823SM   HNF10285   2.481   7.350  16.810  1.5051 -1.7680 -1.6348
   7823SM   C2S10286   2.665   7.337  16.916 -0.5464 -0.0615 -0.3569
   7823SM   H2S10287   2.760   7.354  16.860 -0.1823  0.1645  0.3123
   7823SM   C3S10288   2.645   7.183  16.921  0.2109  0.3328 -1.0504
   7823SM   H3S10289   2.538   7.165  16.943  0.4136  0.3624  0.0359
   7823SM    O310290   2.720   7.120  17.027  0.3976 -0.4353 -0.9253
   7823SM   HO310291   2.751   7.191  17.084 -1.4827  0.0532 -0.4598
   7823SM   C4S10292   2.684   7.118  16.791 -0.0262 -0.1584  0.3327
   7823SM   H4S10293   2.769   7.162  16.737  0.9787 -0.7239  1.4306
   7823SM   C5S10294   2.604   7.035  16.720 -0.0847 -0.5372  0.1566
   7823SM   H5S10295   2.505   7.002  16.754 -2.1326  1.5816 -3.1771
   7823SM   C6S10296   2.639   6.982  16.585  0.2997  0.0491  0.4229
   7823SM   H6S10297   2.601   6.877  16.576  1.1284 -0.2141 -0.1037
   7823SM   H6T10298   2.747   6.976  16.561  0.3492 -2.2216  0.9321
   7823SM   C7S10299   2.566   7.064  16.469 -0.2334 -0.1593  0.7636
   7823SM   H7S10300   2.619   7.161  16.473  0.6422 -0.6424  1.1637
   7823SM   H7T10301   2.458   7.071  16.491 -0.5510 -0.7162 -0.5171
   7823SM   C8S10302   2.603   7.013  16.328 -0.2729  1.0296 -0.2478
   7823SM   H8S10303   2.543   6.920  16.316  1.3586 -0.5742  2.7374
   7823SM   H8T10304   2.709   6.979  16.323 -0.7261 -0.8707  1.7517
   7823SM   C9S10305   2.581   7.122  16.218  0.7374  0.2407  0.6415
   7823SM   H9S10306   2.656   7.202  16.233  0.3903  0.5537  0.7066
   7823SM   H9T10307   2.481   7.167  16.233  1.5978  3.0314 -1.1779
   7823SM  C10S10308   2.600   7.069  16.072 -0.3557 -0.0379 -0.4771
   7823SM  H10S10309   2.520   6.993  16.064 -1.9432  1.4595  0.4162
   7823SM  H10T10310   2.698   7.019  16.055 -0.5876 -0.5376 -0.3454
   7823SM  C11S10311   2.575   7.171  15.964  0.0146 -0.2864 -0.2449
   7823SM  H11S10312   2.639   7.259  15.987 -0.3883  0.1343 -0.6879
   7823SM  H11T10313   2.475   7.218  15.977  0.3843  0.2602  0.7230
   7823SM  C12S10314   2.605   7.142  15.817  0.3607 -0.2092  0.1002
   7823SM  H12S10315   2.711   7.112  15.807  0.0702 -1.1986 -0.1087
   7823SM  H12T10316   2.605   7.229  15.748 -1.1374 -0.7456 -0.6200
   7823SM  C13S10317   2.501   7.037  15.760 -0.3481 -0.3829  0.1679
   7823SM  H13S10318   2.427   7.098  15.704  0.7871  1.0309  0.1323
   7823SM  H13T10319   2.452   6.994  15.849 -0.2215  2.0535  1.4986
   7823SM  C14S10320   2.549   6.942  15.648 -0.1061 -0.1092  0.7700
   7823SM  H14S10321   2.468   6.874  15.615 -1.0178  1.0214  0.6195
   7823SM  H14T10322   2.634   6.884  15.691  0.9089  0.6653 -0.1130
   7823SM  C15S10323   2.607   7.002  15.516 -0.4402 -0.0812 -0.4429
   7823SM  H15S10324   2.675   7.088  15.531  1.5409 -1.2732 -2.0230
   7823SM  H15T10325   2.520   7.027  15.452 -0.7887 -1.3427 -0.5033
   7823SM  C16S10326   2.691   6.896  15.445  0.2619 -0.0228 -0.1241
   7823SM  H16S10327   2.614   6.831  15.398 -1.1533  1.0140  0.7144
   7823SM  H16T10328   2.753   6.826  15.505 -0.9465 -1.8237 -0.8949
   7823SM  C17S10329   2.795   6.948  15.340  0.0598 -0.6049  0.4226
   7823SM  H17S10330   2.844   6.859  15.297 -0.8521  0.0910 -2.2400
   7823SM  H17T10331   2.868   7.017  15.388  1.0539 -0.7683 -0.8117
   7823SM  C18S10332   2.732   7.024  15.222 -0.9173  0.0951 -0.2548
   7823SM  H18S10333   2.647   6.971  15.174 -1.4545  0.2046  0.5533
   7823SM  H18T10334   2.813   7.045  15.149 -1.6476 -0.2875 -1.1959
   7823SM  H18U10335   2.676   7.118  15.244  0.8544  1.0908  0.2377
   7823SM   C1F10336   2.567   7.534  16.824  0.9778  0.1418 -0.0830
   7823SM    OF10337   2.669   7.595  16.836 -0.5681 -0.0728 -0.1858
   7823SM   C2F10338   2.430   7.599  16.811 -0.6196 -0.1912  0.1284
   7823SM   H2F10339   2.420   7.670  16.896  3.9719  0.8115  0.0868
   7823SM   H2G10340   2.354   7.524  16.841 -0.9744  0.4038  0.7284
   7823SM   C3F10341   2.403   7.683  16.690  0.2406 -0.4958  0.0760
   7823SM   H3F10342   2.479   7.763  16.678 -0.2195 -0.1788 -0.8014
   7823SM   H3G10343   2.309   7.740  16.701 -0.6275 -1.7014 -0.8517
   7823SM   C4F10344   2.394   7.588  16.573  0.4810 -0.3826  0.3590
   7823SM   H4F10345   2.311   7.516  16.591 -0.8674  1.1697  0.5366
   7823SM   H4G10346   2.486   7.525  16.565  1.4418  1.2206 -2.5034
   7823SM   C5F10347   2.378   7.658  16.439 -0.2434  0.5670  0.5779
   7823SM   H5F10348   2.470   7.718  16.425  0.7883 -1.4101 -2.0658
   7823SM   H5G10349   2.289   7.724  16.438 -0.0600  0.8309  1.2782
   7823SM   C6F10350   2.357   7.557  16.325  0.6457 -0.2358  0.3140
   7823SM   H6F10351   2.256   7.516  16.349  0.9091 -0.4889  1.0107
   7823SM   H6G10352   2.426   7.470  16.327  2.4460  1.0979 -0.9615
   7823SM   C7F10353   2.362   7.627  16.194  0.5783  0.6901 -0.0098
   7823SM   H7F10354   2.456   7.684  16.178 -0.5952  2.3797 -1.2127
   7823SM   H7G10355   2.282   7.703  16.188 -0.5854 -0.4760  0.1927
   7823SM   C8F10356   2.354   7.538  16.066  0.0896  0.0845 -0.4568
   7823SM   H8F10357   2.253   7.492  16.062  0.6815 -1.2281 -0.7999
   7823SM   H8G10358   2.423   7.451  16.064 -0.6334 -0.5312  0.5399
   7823SM   C9F10359   2.379   7.622  15.938  0.1856  0.1348 -0.2570
   7823SM   H9F10360   2.465   7.691  15.953  0.5202  0.3254 -2.5998
   7823SM   H9G10361   2.294   7.692  15.927  0.6047  0.9812  1.6099
   7823SM  C10F10362   2.396   7.534  15.812  0.5391 -0.1483  0.5124
   7823SM  H10F10363   2.317   7.456  15.802  0.8464 -0.1978 -2.2005
   7823SM  H10G10364   2.495   7.487  15.826  1.0962  1.2636  1.5071
   7823SM  C11F10365   2.401   7.607  15.676  0.2183 -0.3774  0.0094
   7823SM  H11F10366   2.504   7.648  15.675  0.0005  0.1719 -0.8437
   7823SM  H11G10367   2.329   7.691  15.686  2.2943  1.2732  2.3408
   7823SM  C12F10368   2.376   7.524  15.557 -0.1087  0.6726 -0.2420
   7823SM  H12F10369   2.268   7.499  15.564  0.0996 -0.6276 -1.3152
   7823SM  H12G10370   2.434   7.430  15.555 -1.5588 -0.2465 -0.5670
   7823SM  C13F10371   2.392   7.598  15.427  0.3436  0.6047  0.3436
   7823SM  H13F10372   2.371   7.705  15.446  1.6350  0.9542 -0.1013
   7823SM  H13G10373   2.335   7.562  15.339  3.3798 -1.1749 -1.0575
   7823SM  C14F10374   2.540   7.596  15.385  0.1547 -0.2267  0.6045
   7823SM  H14F10375   2.556   7.497  15.337 -0.4448 -0.3305  0.6113
   7823SM  H14G10376   2.599   7.617  15.477  1.0902  2.1322 -0.4834
   7823SM  C15F10377   2.565   7.703  15.281 -0.5335 -0.7285  1.0257
   7823SM  H15F10378   2.676   7.717  15.287 -0.5515 -0.4146  0.6505
   7823SM  H15G10379   2.517   7.796  15.319  1.4279 -0.2522  2.5335
   7823SM  C16F10380   2.524   7.676  15.134 -0.1319  0.5625  0.1861
   7823SM  H16F10381   2.539   7.768  15.074 -1.3978 -0.1258 -1.2355
   7823SM  H16G10382   2.415   7.655  15.141 -0.3016  1.8818  2.7637
   7823SM  C17F10383   2.611   7.565  15.063 -0.4313 -0.3169  0.0997
   7823SM  H17F10384   2.567   7.466  15.088 -1.4626  0.1679  0.2869
   7823SM  H17G10385   2.714   7.571  15.105 -0.4001 -2.8882  0.5253
   7823SM  C18F10386   2.630   7.580  14.914 -0.1125  0.1050  0.9311
   7823SM  H18F10387   2.709   7.515  14.870 -0.5492  0.4750 -0.4466
   7823SM  H18G10388   2.652   7.686  14.888 -2.6425  0.4239 -0.1841
   7823SM  C19F10389   2.504   7.535  14.847  0.7502 -0.4482 -0.6076
   7823SM  H19F10390   2.414   7.583  14.889  1.1229 -0.4851  0.2592
   7823SM  H19G10391   2.505   7.424  14.855  0.9252 -0.5049 -1.3000
   7823SM  C20F10392   2.510   7.564  14.695 -0.0294 -0.3970  0.2230
   7823SM  H20F10393   2.607   7.523  14.658 -0.3032  0.2797 -1.3443
   7823SM  H20G10394   2.523   7.674  14.686 -0.3368 -0.5095 -2.8184
   7823SM  C21F10395   2.391   7.515  14.606  0.9136  0.0752  0.0588
   7823SM  H21F10396   2.418   7.523  14.499  0.6281 -0.4506 -0.0577
   7823SM  H21G10397   2.307   7.586  14.621 -0.0912 -0.6374 -1.8336
   7823SM  C22F10398   2.344   7.371  14.631  0.4108 -0.0980  0.0404
   7823SM  H22F10399   2.312   7.347  14.734 -0.8527  1.0979 -0.0388
   7823SM  H22G10400   2.427   7.298  14.621  0.1745 -0.2785 -0.7311
   7823SM  C23F10401   2.232   7.338  14.535 -0.1215 -0.0075  0.2023
   7823SM  H23F10402   2.263   7.377  14.436  1.0275  1.7970  1.2152
   7823SM  H23G10403   2.144   7.401  14.563  0.9402  0.8443  1.7343
   7823SM  H23H10404   2.213   7.229  14.526  0.8014 -0.1834  0.3706
   7923SM     N10405   1.623   7.562  17.382 -0.2098 -0.0910 -0.1540
   7923SM   C1510406   1.760   7.520  17.429 -0.0918  0.1003  0.0425
   7923SM  H15A10407   1.802   7.437  17.375 -2.0117  1.2109 -3.5144
   7923SM  H15B10408   1.759   7.514  17.537  2.0413  0.2549  0.1161
   7923SM  H15C10409   1.828   7.603  17.414  0.8983 -0.5802  0.6653
   7923SM   C1410410   1.638   7.643  17.251  0.1969 -0.2651 -0.2001
   7923SM  H14A10411   1.705   7.725  17.274  1.7151 -0.7818 -2.4084
   7923SM  H14B10412   1.546   7.682  17.211  0.1878 -1.1471 -1.0861
   7923SM  H14C10413   1.675   7.575  17.175  0.6011 -0.2501 -0.0227
   7923SM   C1310414   1.537   7.442  17.356  0.1475 -0.6159 -0.8529
   7923SM  H13A10415   1.543   7.372  17.437  1.6383  2.0516  1.5544
   7923SM  H13B10416   1.556   7.405  17.256  2.1759  1.4276 -1.3175
   7923SM  H13C10417   1.431   7.462  17.364  0.0785 -1.4680  0.5775
   7923SM   C1210418   1.559   7.648  17.484  0.1124  0.3909  0.3890
   7923SM  H12A10419   1.639   7.710  17.523  1.3442 -0.4422 -0.7080
   7923SM  H12B10420   1.530   7.582  17.563  0.1419 -1.3891 -1.0286
   7923SM   C1110421   1.436   7.735  17.446 -0.4891  0.1740 -0.0220
   7923SM  H11A10422   1.442   7.792  17.351  1.6285  0.9483  0.5279
   7923SM  H11B10423   1.399   7.805  17.524 -0.6300  0.1340 -0.0530
   7923SM     P10424   1.191   7.684  17.387  0.0238 -0.0635 -0.4055
   7923SM   O1310425   1.106   7.560  17.381  0.7206 -0.7148  0.3789
   7923SM   O1410426   1.147   7.784  17.487 -0.3750 -0.3798 -0.3611
   7923SM   O1110427   1.200   7.742  17.239 -0.0628  0.1282 -0.4307
   7923SM   O1210428   1.328   7.642  17.424  0.2569  0.3321 -0.2229
   7923SM   C1S10429   1.247   7.657  17.135 -0.4632 -0.8689  0.4401
   7923SM   H1S10430   1.189   7.565  17.113  0.3467 -1.2130 -0.2776
   7923SM   H1T10431   1.347   7.614  17.158 -0.9786 -2.0904  0.4608
   7923SM    NF10432   1.314   7.645  16.900  0.0677  0.4940 -0.2618
   7923SM   HNF10433   1.412   7.626  16.910  0.1756  0.4704 -1.2637
   7923SM   C2S10434   1.263   7.742  16.999 -0.3012  0.1108  0.4744
   7923SM   H2S10435   1.163   7.779  16.969 -0.2858 -0.2129  0.0166
   7923SM   C3S10436   1.357   7.863  17.007  0.2172  0.3146 -0.4331
   7923SM   H3S10437   1.467   7.851  17.019  0.4349  2.5771  0.2612
   7923SM    O310438   1.319   7.936  17.123 -0.3379  0.1866 -0.0731
   7923SM   HO310439   1.285   7.870  17.184 -1.0332 -1.7679 -2.4612
   7923SM   C4S10440   1.345   7.954  16.884  0.3811  0.0937 -0.5150
   7923SM   H4S10441   1.242   7.990  16.873  0.0953 -1.2046 -2.8840
   7923SM   C5S10442   1.437   7.969  16.783 -0.0102  0.1991  0.1726
   7923SM   H5S10443   1.527   7.907  16.777  0.0803  0.4219 -0.8462
   7923SM   C6S10444   1.403   8.061  16.664  0.0227 -0.1110  0.0798
   7923SM   H6S10445   1.470   8.147  16.680 -1.1651  0.9038 -0.2091
   7923SM   H6T10446   1.297   8.093  16.674  0.2249  0.3280  0.9175
   7923SM   C7S10447   1.431   7.981  16.539  0.9902 -0.7546  0.5081
   7923SM   H7S10448   1.363   7.893  16.546 -0.2051  0.1348  0.2467
   7923SM   H7T10449   1.541   7.967  16.528  1.4189  2.6102 -0.4821
   7923SM   C8S10450   1.389   8.066  16.414  1.2943 -0.2188  0.3088
   7923SM   H8S10451   1.458   8.153  16.408  3.0101 -1.6136 -1.7742
   7923SM   H8T10452   1.290   8.114  16.431  1.4095  0.8106 -1.6906
   7923SM   C9S10453   1.390   7.998  16.276  0.2148 -0.5072 -0.1944
   7923SM   H9S10454   1.492   7.956  16.261  0.7715  0.8715 -0.4482
   7923SM   H9T10455   1.361   8.074  16.200 -0.7658 -0.5861  0.0853
   7923SM  C10S10456   1.290   7.888  16.252  0.3991 -0.2039  0.0800
   7923SM  H10S10457   1.186   7.930  16.254 -0.0415 -1.2862  0.4501
   7923SM  H10T10458   1.312   7.813  16.331  0.3848 -0.2905  0.0014
   7923SM  C11S10459   1.307   7.829  16.113 -0.1727 -0.2089 -0.0128
   7923SM  H11S10460   1.414   7.803  16.096  0.1118  1.3292 -0.6941
   7923SM  H11T10461   1.284   7.907  16.038 -1.0275 -0.7117 -0.2910
   7923SM  C12S10462   1.235   7.692  16.097 -0.3778  0.1232  0.5421
   7923SM  H12S10463   1.131   7.709  16.133 -0.7273  3.3801 -1.5695
   7923SM  H12T10464   1.285   7.616  16.161  2.4832  0.1017 -1.5247
   7923SM  C13S10465   1.232   7.645  15.951  0.1650  0.1641 -0.0886
   7923SM  H13S10466   1.175   7.550  15.957  2.3469 -1.3083 -1.3326
   7923SM  H13T10467   1.328   7.609  15.909 -1.7318 -3.0070 -2.1801
   7923SM  C14S10468   1.167   7.739  15.850 -0.1062 -0.5872 -0.1591
   7923SM  H14S10469   1.222   7.835  15.857  1.8752 -1.5560 -1.4597
   7923SM  H14T10470   1.063   7.759  15.884 -0.4456 -2.1558 -0.2039
   7923SM  C15S10471   1.176   7.692  15.708 -0.1439 -0.5197  0.2511
   7923SM  H15S10472   1.267   7.632  15.689 -0.4186 -1.3770  1.5553
   7923SM  H15T10473   1.186   7.781  15.641 -0.0879 -0.5463  0.2251
   7923SM  C16S10474   1.047   7.614  15.656 -0.7232 -0.1256 -0.6788
   7923SM  H16S10475   0.997   7.659  15.567  0.1686 -0.8619 -1.5835
   7923SM  H16T10476   0.975   7.622  15.739 -2.0793 -1.3676 -1.6991
   7923SM  C17S10477   1.070   7.474  15.609  0.7185 -0.4120  1.1400
   7923SM  H17S10478   1.106   7.401  15.684 -0.5318 -1.4640  0.7536
   7923SM  H17T10479   1.138   7.466  15.521 -1.0469  0.3864 -0.3748
   7923SM  C18S10480   0.937   7.419  15.560  0.3919 -0.3125 -1.0311
   7923SM  H18S10481   0.868   7.435  15.645  1.1925  1.2470 -0.6308
   7923SM  H18T10482   0.953   7.313  15.531  2.8296  0.7580 -4.3597
   7923SM  H18U10483   0.896   7.480  15.476  0.1503  2.3089  0.8620
   7923SM   C1F10484   1.239   7.558  16.840 -0.7518  0.8949 -0.4684
   7923SM    OF10485   1.119   7.557  16.853  0.4232  0.7199  0.1297
   7923SM   C2F10486   1.302   7.445  16.761 -0.1900 -0.6423 -0.3084
   7923SM   H2F10487   1.333   7.360  16.825 -0.6681 -0.2083  0.5097
   7923SM   H2G10488   1.399   7.490  16.731  0.3623 -1.6721 -0.1002
   7923SM   C3F10489   1.219   7.394  16.639  0.3210  0.3832  0.4734
   7923SM   H3F10490   1.120   7.352  16.667  0.8341 -1.7366 -0.7283
   7923SM   H3G10491   1.276   7.323  16.576 -1.0742  0.7954 -1.3506
   7923SM   C4F10492   1.179   7.504  16.536  0.5298  0.3384  0.1238
   7923SM   H4F10493   1.264   7.572  16.512  1.0047  0.1081  1.0818
   7923SM   H4G10494   1.120   7.583  16.587  1.5213  1.7315 -0.8118
   7923SM   C5F10495   1.112   7.457  16.403  0.3517 -0.4893  0.2812
   7923SM   H5F10496   1.075   7.553  16.361 -0.7506 -0.3277  1.5417
   7923SM   H5G10497   1.020   7.405  16.436 -0.7898  0.3462 -1.4359
   7923SM   C6F10498   1.208   7.372  16.310  0.3274  0.0815 -0.3426
   7923SM   H6F10499   1.243   7.282  16.365  1.4021  0.3276 -0.5956
   7923SM   H6G10500   1.299   7.435  16.296 -0.3164  1.1097 -0.0220
   7923SM   C7F10501   1.134   7.336  16.180  0.0097  0.8564  1.4160
   7923SM   H7F10502   1.107   7.425  16.118 -1.0617 -0.1546  0.3827
   7923SM   H7G10503   1.037   7.284  16.200 -0.0118  1.1541  2.1174
   7923SM   C8F10504   1.214   7.241  16.087 -0.6448  0.2829  0.5928
   7923SM   H8F10505   1.228   7.145  16.141  0.9375 -0.0644 -0.3628
   7923SM   H8G10506   1.317   7.275  16.063 -0.9622  1.7678  1.1942
   7923SM   C9F10507   1.135   7.198  15.958 -0.4895 -0.1763 -0.6130
   7923SM   H9F10508   1.113   7.291  15.901 -0.0793  1.5271  1.8665
   7923SM   H9G10509   1.043   7.144  15.990  1.0887 -2.0247  1.1010
   7923SM  C10F10510   1.219   7.109  15.860  0.0915  0.1625 -0.2250
   7923SM  H10F10511   1.190   7.011  15.902 -1.4302 -0.6389 -2.8887
   7923SM  H10G10512   1.328   7.129  15.869 -0.2450  2.1082 -0.0267
   7923SM  C11F10513   1.162   7.105  15.717 -0.7494  0.1482  0.3747
   7923SM  H11F10514   1.194   7.198  15.665  1.0732  0.4476  1.9517
   7923SM  H11G10515   1.051   7.091  15.718 -0.9297  0.8960 -2.0143
   7923SM  C12F10516   1.219   6.987  15.637 -0.7130 -0.8114 -0.1118
   7923SM  H12F10517   1.208   6.894  15.697 -0.3022  1.0642  3.0604
   7923SM  H12G10518   1.327   7.012  15.650 -0.8067  0.2375 -1.2200
   7923SM  C13F10519   1.177   6.987  15.491 -0.6112  0.6406  0.2335
   7923SM  H13F10520   1.202   7.087  15.449  1.5926  0.5261  1.1743
   7923SM  H13G10521   1.068   6.966  15.477 -0.9171  1.5801  1.1135
   7923SM  C14F10522   1.271   6.892  15.410 -0.2192  0.7577 -0.5225
   7923SM  H14F10523   1.377   6.918  15.433 -0.4586 -0.3546  2.2398
   7923SM  H14G10524   1.247   6.915  15.304 -0.6934 -0.3144 -0.6680
   7923SM  C15F10525   1.249   6.746  15.441  0.0043 -0.0494 -0.2332
   7923SM  H15F10526   1.311   6.715  15.528  1.4563 -0.2121 -1.2857
   7923SM  H15G10527   1.292   6.700  15.350 -0.3557  0.4675 -0.6646
   7923SM  C16F10528   1.107   6.690  15.458  0.1481 -0.1222 -0.6390
   7923SM  H16F10529   1.046   6.719  15.369  1.5569  3.8816 -0.4901
   7923SM  H16G10530   1.056   6.728  15.549  1.6764  0.7919 -0.1297
   7923SM  C17F10531   1.119   6.540  15.478 -0.2103  0.2987  0.2185
   7923SM  H17F10532   1.179   6.518  15.569  0.1202  4.1360  1.0855
   7923SM  H17G10533   1.165   6.489  15.390 -0.7690  1.2898 -0.6749
   7923SM  C18F10534   0.982   6.471  15.493 -0.2353 -0.0204  0.2113
   7923SM  H18F10535   0.924   6.519  15.412  0.4557  0.8719  0.2280
   7923SM  H18G10536   0.957   6.497  15.598 -0.8846 -2.1119  0.6275
   7923SM  C19F10537   0.995   6.316  15.489 -0.5939 -0.2775 -0.1229
   7923SM  H19F10538   1.071   6.274  15.557 -1.3788  0.0142  0.9680
   7923SM  H19G10539   1.019   6.287  15.384 -1.6031  1.0518 -0.7630
   7923SM  C20F10540   0.858   6.253  15.522  0.0353 -0.6381  0.2781
   7923SM  H20F10541   0.794   6.276  15.433  0.9164  1.1570  0.0523
   7923SM  H20G10542   0.821   6.316  15.606  0.6497 -2.5652  2.0646
   7923SM  C21F10543   0.870   6.105  15.553  0.1733  0.4846 -0.5329
   7923SM  H21F10544   0.925   6.096  15.649 -1.6580 -0.9135  0.4552
   7923SM  H21G10545   0.918   6.058  15.464  0.9255 -2.2854  1.2076
   7923SM  C22F10546   0.736   6.023  15.574 -0.7724 -0.6856 -0.0993
   7923SM  H22F10547   0.700   5.990  15.474  0.2103  0.1126 -0.7415
   7923SM  H22G10548   0.659   6.096  15.608 -1.6935 -1.0718 -1.3103
   7923SM  C23F10549   0.743   5.904  15.661 -0.2087  0.3831  0.1767
   7923SM  H23F10550   0.806   5.838  15.597  1.4447  1.8099  0.2544
   7923SM  H23G10551   0.652   5.843  15.681  0.0465  0.2228  0.9143
   7923SM  H23H10552   0.785   5.927  15.762  1.4306  0.1413 -0.4139
   8023SM     N10553   1.905   0.623  17.750  0.0214  0.0321  0.7261
   8023SM   C1510554   1.945   0.631  17.887  0.1114  0.4880  0.4827
   8023SM  H15A10555   1.880   0.570  17.948 -2.0106  2.2810  0.1368
   8023SM  H15B10556   1.920   0.725  17.936 -2.0035 -0.1993  0.8395
   8023SM  H15C10557   2.050   0.611  17.903 -0.1819 -0.0539  1.9353
   8023SM   C1410558   1.756   0.640  17.731  0.1027  1.1704 -0.6317
   8023SM  H14A10559   1.694   0.578  17.793 -0.7391  1.6947 -0.9369
   8023SM  H14B10560   1.724   0.633  17.629  0.7527 -0.0862 -0.7647
   8023SM  H14C10561   1.721   0.738  17.762 -0.8561  0.8501 -0.6651
   8023SM   C1310562   1.968   0.726  17.664  0.3680 -0.3124 -0.2954
   8023SM  H13A10563   1.956   0.827  17.702  2.0463  0.7347 -2.3264
   8023SM  H13B10564   1.928   0.737  17.564 -0.4481 -1.2548 -0.0883
   8023SM  H13C10565   2.076   0.720  17.665  0.3592 -1.8255  2.8445
   8023SM   C1210566   1.930   0.483  17.688  0.0040 -0.4575  0.2366
   8023SM  H12A10567   1.869   0.409  17.737 -0.8974 -0.2498 -0.5454
   8023SM  H12B10568   2.031   0.452  17.711  0.4339  0.2395 -0.6275
   8023SM   C1110569   1.905   0.468  17.536 -0.2097 -0.3851 -0.2838
   8023SM  H11A10570   1.960   0.378  17.500 -0.4523 -0.3556 -0.7411
   8023SM  H11B10571   1.968   0.545  17.488 -0.8283  0.7004  0.6200
   8023SM     P10572   1.675   0.349  17.516 -0.3679 -0.1755  0.4274
   8023SM   O1310573   1.709   0.266  17.635 -0.3043 -0.1087 -0.4012
   8023SM   O1410574   1.531   0.383  17.509 -0.6958 -0.9161  0.0439
   8023SM   O1110575   1.713   0.265  17.387 -0.0904  0.0610  0.0440
   8023SM   O1210576   1.766   0.478  17.505  0.3165 -0.2887 -0.4152
   8023SM   C1S10577   1.699   0.315  17.252  0.0335 -0.0467 -0.8499
   8023SM   H1S10578   1.644   0.412  17.248  2.2732  1.4032  0.8413
   8023SM   H1T10579   1.631   0.250  17.193 -0.2516 -1.8015  1.2685
   8023SM    NF10580   1.804   0.393  17.041 -0.4049  0.5519  0.0523
   8023SM   HNF10581   1.812   0.329  16.965 -0.6529 -1.7397  1.8176
   8023SM   C2S10582   1.832   0.338  17.177  0.1247  0.5657  0.4712
   8023SM   H2S10583   1.888   0.408  17.242  1.9398  0.1251 -0.5470
   8023SM   C3S10584   1.914   0.200  17.176  0.2375 -0.1334  0.7148
   8023SM   H3S10585   1.855   0.144  17.100 -3.1617  2.9217  0.7948
   8023SM    O310586   1.923   0.132  17.299  0.0878 -0.2992  1.2911
   8023SM   HO310587   1.849   0.154  17.358  1.0312 -0.4322  2.5702
   8023SM   C4S10588   2.049   0.237  17.129  0.5659 -0.1234 -0.6058
   8023SM   H4S10589   2.094   0.306  17.202  1.7186 -1.5332  0.0684
   8023SM   C5S10590   2.113   0.192  17.020  0.3546 -0.4216  0.7850
   8023SM   H5S10591   2.053   0.136  16.946 -0.5586  2.0752 -0.4585
   8023SM   C6S10592   2.247   0.234  16.968 -0.5292 -0.0758 -0.0235
   8023SM   H6S10593   2.310   0.151  16.930  0.6482  1.0589 -0.6157
   8023SM   H6T10594   2.303   0.287  17.047 -0.4356 -1.3838  0.8242
   8023SM   C7S10595   2.240   0.335  16.851  0.1227 -0.7114  0.3325
   8023SM   H7S10596   2.188   0.430  16.878  2.6157  1.0945 -0.8260
   8023SM   H7T10597   2.182   0.286  16.770  1.0820 -0.2506 -0.6559
   8023SM   C8S10598   2.380   0.363  16.792 -0.3661  0.0696 -0.4139
   8023SM   H8S10599   2.450   0.284  16.826 -1.8861 -1.0360  0.2897
   8023SM   H8T10600   2.413   0.455  16.846 -1.3812 -0.7435  1.7180
   8023SM   C9S10601   2.389   0.381  16.643  0.1047  0.3350 -0.0967
   8023SM   H9S10602   2.361   0.290  16.586  0.8380 -0.6321  1.0319
   8023SM   H9T10603   2.493   0.415  16.624  0.0429  0.8137  0.3912
   8023SM  C10S10604   2.304   0.502  16.583 -0.7058  0.0683 -0.4137
   8023SM  H10S10605   2.328   0.598  16.634 -2.0594 -0.3928  1.1757
   8023SM  H10T10606   2.195   0.496  16.605 -0.4612 -0.4169  0.7835
   8023SM  C11S10607   2.323   0.523  16.434 -0.6666  0.1148  0.3134
   8023SM  H11S10608   2.431   0.536  16.413 -1.1534  0.5696 -2.1756
   8023SM  H11T10609   2.276   0.616  16.395  0.9596 -0.2073 -2.6619
   8023SM  C12S10610   2.271   0.406  16.346  0.9263  0.9081  0.2064
   8023SM  H12S10611   2.164   0.393  16.372  0.5423 -0.2806 -1.7514
   8023SM  H12T10612   2.325   0.309  16.357 -2.1136 -1.4227 -2.9830
   8023SM  C13S10613   2.293   0.439  16.197 -0.6083  0.1060 -1.2649
   8023SM  H13S10614   2.400   0.469  16.190 -0.2114 -1.2878 -1.3862
   8023SM  H13T10615   2.239   0.532  16.168  0.5627  0.6457 -1.7712
   8023SM  C14S10616   2.236   0.334  16.104  0.1880  0.1308  0.2593
   8023SM  H14S10617   2.144   0.300  16.157  1.3923 -0.8943  1.7945
   8023SM  H14T10618   2.309   0.252  16.090 -0.9533 -0.6004 -1.8541
   8023SM  C15S10619   2.197   0.383  15.968 -0.8853 -0.3559 -0.3318
   8023SM  H15S10620   2.289   0.434  15.933  0.5903 -2.2027  0.6440
   8023SM  H15T10621   2.113   0.455  15.961 -0.6775 -0.1491 -0.7078
   8023SM  C16S10622   2.188   0.274  15.858  0.9125  0.3583  0.4768
   8023SM  H16S10623   2.088   0.228  15.868 -0.1888  2.3924 -0.7034
   8023SM  H16T10624   2.274   0.207  15.879  2.0228  1.1497 -1.2754
   8023SM  C17S10625   2.196   0.321  15.717 -0.1497  0.2058  0.2354
   8023SM  H17S10626   2.212   0.232  15.653  2.9480 -0.4303  1.7264
   8023SM  H17T10627   2.273   0.399  15.701  1.9081 -2.2656 -3.2511
   8023SM  C18S10628   2.058   0.367  15.666  0.2219 -0.3026 -0.4163
   8023SM  H18S10629   2.008   0.444  15.727  1.2963  0.1052 -0.0241
   8023SM  H18T10630   2.002   0.273  15.649  0.1040 -0.1976 -0.6126
   8023SM  H18U10631   2.063   0.422  15.569 -2.7291  2.2323  0.7073
   8023SM   C1F10632   1.761   0.511  17.018  0.3618 -0.0906  0.6647
   8023SM    OF10633   1.727   0.585  17.112  0.5337  0.0166  0.2679
   8023SM   C2F10634   1.739   0.540  16.871  0.3803 -0.1457 -0.7824
   8023SM   H2F10635   1.640   0.588  16.861  0.6802  0.6233 -0.1719
   8023SM   H2G10636   1.739   0.446  16.813 -0.4324 -1.1042  0.7175
   8023SM   C3F10637   1.834   0.641  16.821 -0.5497 -0.4673 -0.1707
   8023SM   H3F10638   1.934   0.594  16.812  0.5541  1.4387  1.2971
   8023SM   H3G10639   1.846   0.730  16.887 -2.2175 -0.5790  0.3465
   8023SM   C4F10640   1.781   0.692  16.685 -0.2254  0.4608  0.1687
   8023SM   H4F10641   1.859   0.761  16.645  0.8298  0.1861  1.6664
   8023SM   H4G10642   1.686   0.746  16.706 -0.0366  0.2481  1.6535
   8023SM   C5F10643   1.779   0.580  16.582  0.5366  0.5451  0.4959
   8023SM   H5F10644   1.687   0.518  16.586  1.6144 -1.1529  0.0070
   8023SM   H5G10645   1.868   0.516  16.596  0.7731  1.2579  2.5347
   8023SM   C6F10646   1.771   0.639  16.438 -0.6799  0.0288  0.5044
   8023SM   H6F10647   1.869   0.690  16.429 -1.5059  1.9082  1.5081
   8023SM   H6G10648   1.697   0.721  16.426  0.2013  0.8574  0.6852
   8023SM   C7F10649   1.760   0.531  16.333 -0.0873 -0.0318 -0.0152
   8023SM   H7F10650   1.678   0.457  16.343 -0.5123  0.4510  0.1552
   8023SM   H7G10651   1.848   0.464  16.329 -0.5681 -0.6717 -0.0050
   8023SM   C8F10652   1.761   0.582  16.191  0.0368  0.3618 -0.0467
   8023SM   H8F10653   1.823   0.674  16.196  0.2087  0.2125  0.8136
   8023SM   H8G10654   1.658   0.611  16.159 -1.9447 -3.5860  2.0555
   8023SM   C9F10655   1.815   0.491  16.076 -0.4805  0.5222 -0.1499
   8023SM   H9F10656   1.923   0.475  16.096 -0.9836 -1.0472  1.6049
   8023SM   H9G10657   1.800   0.540  15.978 -2.7886 -1.2079 -0.7383
   8023SM  C10F10658   1.740   0.356  16.077 -0.2697  0.3145 -0.0580
   8023SM  H10F10659   1.645   0.367  16.134  0.6613  0.9863  1.4218
   8023SM  H10G10660   1.796   0.275  16.128 -2.4641 -1.8066 -0.8144
   8023SM  C11F10661   1.686   0.309  15.940 -0.4276 -0.0822 -0.8251
   8023SM  H11F10662   1.653   0.203  15.941  0.9506 -0.5482 -1.4992
   8023SM  H11G10663   1.764   0.324  15.863 -0.9750 -0.5644 -1.4842
   8023SM  C12F10664   1.558   0.393  15.893 -0.2442 -0.0434  0.4586
   8023SM  H12F10665   1.595   0.492  15.860  0.2774 -0.7106 -1.0522
   8023SM  H12G10666   1.481   0.405  15.972 -0.3837  1.3432  0.1397
   8023SM  C13F10667   1.477   0.311  15.792  0.3773  0.9613 -0.4282
   8023SM  H13F10668   1.391   0.375  15.762 -1.8424 -1.0575  1.2212
   8023SM  H13G10669   1.421   0.233  15.848  2.0003 -0.2568 -0.4247
   8023SM  C14F10670   1.560   0.262  15.667  0.2631 -1.1503 -0.1265
   8023SM  H14F10671   1.499   0.201  15.597 -0.3041 -0.5660 -0.1397
   8023SM  H14G10672   1.652   0.213  15.706  0.2400 -0.0838  1.3689
   8023SM  C15F10673   1.605   0.376  15.580  0.5339  0.5483 -0.0219
   8023SM  H15F10674   1.662   0.447  15.643 -1.5225  3.2434 -0.9722
   8023SM  H15G10675   1.517   0.431  15.540 -0.2274 -0.2274  0.5402
   8023SM  C16F10676   1.668   0.330  15.443  0.0165 -0.2428 -0.2835
   8023SM  H16F10677   1.599   0.255  15.399 -0.7300 -0.5816  1.4100
   8023SM  H16G10678   1.766   0.282  15.465  0.6391  1.2337  0.2802
   8023SM  C17F10679   1.707   0.441  15.341 -0.0069 -0.2948  0.1105
   8023SM  H17F10680   1.791   0.492  15.393  0.9206  1.5352 -2.9256
   8023SM  H17G10681   1.620   0.509  15.323 -1.4742 -2.2843 -0.7091
   8023SM  C18F10682   1.759   0.395  15.207  0.1374  0.0716 -0.3020
   8023SM  H18F10683   1.679   0.350  15.143  0.5446  2.0354 -2.3299
   8023SM  H18G10684   1.840   0.319  15.216 -0.2570 -0.0718  3.4786
   8023SM  C19F10685   1.801   0.517  15.126  0.1060 -0.0141 -0.4025
   8023SM  H19F10686   1.876   0.577  15.180 -2.1075  2.8467 -0.2575
   8023SM  H19G10687   1.722   0.593  15.142 -0.7010 -0.8743 -0.2077
   8023SM  C20F10688   1.843   0.504  14.977  0.4564 -0.4671  0.1544
   8023SM  H20F10689   1.931   0.436  14.978 -0.6917 -1.9990 -0.0450
   8023SM  H20G10690   1.866   0.604  14.934 -0.0137  0.0571  1.0901
   8023SM  C21F10691   1.743   0.441  14.890 -0.5472 -0.0027 -0.5717
   8023SM  H21F10692   1.650   0.498  14.869 -1.5609 -0.8981  1.2465
   8023SM  H21G10693   1.708   0.348  14.940  1.3569 -0.9974 -0.9643
   8023SM  C22F10694   1.803   0.387  14.756 -0.4020  0.4117  0.3644
   8023SM  H22F10695   1.881   0.310  14.774 -0.9533 -0.3738 -0.4817
   8023SM  H22G10696   1.846   0.470  14.695 -0.8661  1.3595  1.3027
   8023SM  C23F10697   1.698   0.314  14.670 -0.9588 -0.0010 -0.0884
   8023SM  H23F10698   1.731   0.321  14.565 -1.8139  1.0114 -0.3107
   8023SM  H23G10699   1.607   0.368  14.704 -0.2162  0.4809  1.2070
   8023SM  H23H10700   1.696   0.210  14.710 -0.4089  0.5780  1.5309
   8123SM     N10701   4.097   3.312  12.731  0.7445  0.4078  0.7399
   8123SM   C1510702   4.165   3.194  12.672 -0.7945 -0.4211  0.2326
   8123SM  H15A10703   4.108   3.102  12.670  0.7254 -1.4169  0.5566
   8123SM  H15B10704   4.250   3.163  12.731  0.9645  1.9898 -0.8616
   8123SM  H15C10705   4.193   3.228  12.574 -2.1490  2.0314  0.6207
   8123SM   C1410706   4.012   3.368  12.627  0.2963  0.3708  0.0399
   8123SM  H14A10707   3.928   3.310  12.591  0.1189  0.4786  0.2765
   8123SM  H14B10708   4.072   3.400  12.543  0.7490 -0.6031 -0.0323
   8123SM  H14C10709   3.956   3.449  12.671 -1.5084 -0.9373  0.3212
   8123SM   C1310710   4.005   3.269  12.846  0.0761 -0.4779  0.5127
   8123SM  H13A10711   3.920   3.217  12.803 -2.2357  1.6599  2.2275
   8123SM  H13B10712   3.956   3.352  12.895  0.9584  0.3757 -0.0234
   8123SM  H13C10713   4.055   3.203  12.916 -4.0958 -2.1111  2.3188
   8123SM   C1210714   4.198   3.412  12.778 -0.2513 -0.4672  0.1778
   8123SM  H12A10715   4.266   3.438  12.698 -0.2541  2.6754  1.0807
   8123SM  H12B10716   4.260   3.363  12.852  0.5780 -0.5730 -0.5728
   8123SM   C1110717   4.145   3.537  12.833 -0.1466 -0.2499  0.8904
   8123SM  H11A10718   4.238   3.587  12.868  1.0433 -0.3296 -1.9589
   8123SM  H11B10719   4.079   3.514  12.919  0.1015 -0.2177  1.0915
   8123SM     P10720   4.153   3.666  12.604 -0.1898 -0.3201  0.0775
   8123SM   O1310721   4.232   3.564  12.529  0.4421 -0.2459 -0.5409
   8123SM   O1410722   4.042   3.739  12.536  0.3535 -0.2207 -0.2816
   8123SM   O1110723   4.258   3.767  12.665 -0.8416 -0.6692  0.0298
   8123SM   O1210724   4.077   3.612  12.738 -0.2284 -0.1590 -0.1345
   8123SM   C1S10725   4.227   3.868  12.758 -0.1175 -0.0139 -0.5143
   8123SM   H1S10726   4.119   3.881  12.783 -0.0871  3.9472 -1.6898
   8123SM   H1T10727   4.253   3.963  12.707  0.3135 -1.3588 -2.9514
   8123SM    NF10728   4.277   3.969  12.981 -0.7841 -0.5990 -0.3852
   8123SM   HNF10729   4.332   4.048  12.952  1.2221 -1.8444 -0.1788
   8123SM   C2S10730   4.305   3.854  12.894 -0.2721  0.6755 -0.4263
   8123SM   H2S10731   4.261   3.771  12.955 -0.0485  0.2700 -0.8084
   8123SM   C3S10732   4.456   3.835  12.866 -0.4852  0.8991 -0.0116
   8123SM   H3S10733   4.496   3.917  12.803  0.0430  1.2155  0.7161
   8123SM    O310734   4.480   3.707  12.811 -0.4738 -0.1172 -0.2655
   8123SM   HO310735   4.410   3.702  12.746 -1.7891 -1.5833  1.1710
   8123SM   C4S10736   4.523   3.832  13.003  0.5040 -0.0901  0.5901
   8123SM   H4S10737   4.533   3.731  13.047  1.4387 -0.2749 -0.0077
   8123SM   C5S10738   4.567   3.937  13.063  0.4231  0.3050  0.3341
   8123SM   H5S10739   4.565   4.034  13.011  1.6650  0.5220  0.6586
   8123SM   C6S10740   4.639   3.932  13.193 -0.1242  0.0198 -0.1413
   8123SM   H6S10741   4.735   3.987  13.184 -1.0082  1.2833 -3.2780
   8123SM   H6T10742   4.659   3.830  13.231 -0.2271  0.0741  0.0597
   8123SM   C7S10743   4.557   3.992  13.309 -0.0120  0.4545 -0.6904
   8123SM   H7S10744   4.466   3.930  13.324 -0.4501  0.9367 -1.3295
   8123SM   H7T10745   4.511   4.091  13.289 -1.9717  0.7123  3.7897
   8123SM   C8S10746   4.634   4.013  13.440 -0.5919  0.0514  0.0363
   8123SM   H8S10747   4.708   4.096  13.432  0.2295 -0.5219  1.4452
   8123SM   H8T10748   4.706   3.932  13.462 -0.6604  0.1718  0.7091
   8123SM   C9S10749   4.547   4.039  13.559  0.0363 -0.7350 -0.0318
   8123SM   H9S10750   4.461   3.969  13.561 -0.5900  0.0237  1.6800
   8123SM   H9T10751   4.505   4.143  13.557  1.3480 -0.1767  0.5189
   8123SM  C10S10752   4.624   4.022  13.690  0.2332 -0.2369  0.3072
   8123SM  H10S10753   4.699   4.103  13.686  0.9178 -0.7600  1.9243
   8123SM  H10T10754   4.677   3.925  13.685  4.6319  1.9674  0.1386
   8123SM  C11S10755   4.526   4.040  13.805  0.2949  0.1100 -0.1031
   8123SM  H11S10756   4.439   3.972  13.789 -0.4127  0.2803  2.4734
   8123SM  H11T10757   4.472   4.136  13.796 -0.5568 -0.4298 -0.9601
   8123SM  C12S10758   4.591   4.011  13.939  0.0561  0.1835  0.4320
   8123SM  H12S10759   4.665   4.088  13.969 -1.0980  1.2574  0.5555
   8123SM  H12T10760   4.651   3.917  13.943 -1.9452 -1.3513 -2.2841
   8123SM  C13S10761   4.490   4.002  14.051  0.2233 -0.3499 -0.2057
   8123SM  H13S10762   4.437   3.906  14.038  0.8201 -0.6051 -0.8529
   8123SM  H13T10763   4.424   4.088  14.027 -0.8303 -0.9922  0.3500
   8123SM  C14S10764   4.551   4.023  14.184 -0.5806  0.2568  0.0397
   8123SM  H14S10765   4.609   4.118  14.183  1.7146 -0.9883  1.9101
   8123SM  H14T10766   4.622   3.939  14.199 -3.2537 -2.3647 -1.0669
   8123SM  C15S10767   4.459   4.031  14.311  0.3780 -0.0159  0.9282
   8123SM  H15S10768   4.392   3.943  14.317 -0.0928  0.4363  3.1512
   8123SM  H15T10769   4.398   4.124  14.302  0.9920  0.3010 -0.2345
   8123SM  C16S10770   4.551   4.036  14.441 -0.5466 -0.3935  0.5411
   8123SM  H16S10771   4.622   4.120  14.424 -1.9772  0.5608 -0.9749
   8123SM  H16T10772   4.611   3.942  14.442 -2.1726 -1.4915 -0.3745
   8123SM  C17S10773   4.479   4.060  14.573  0.1405 -0.3820  0.0723
   8123SM  H17S10774   4.389   4.121  14.550 -0.6172 -0.9910  1.2785
   8123SM  H17T10775   4.548   4.116  14.640 -2.2013  2.2117  0.5007
   8123SM  C18S10776   4.427   3.931  14.648  0.4326 -0.0184 -0.0043
   8123SM  H18S10777   4.363   3.866  14.584 -0.4953 -0.2949  1.1560
   8123SM  H18T10778   4.363   3.971  14.730 -0.9871 -0.3012 -0.9284
   8123SM  H18U10779   4.502   3.866  14.698  0.4778 -2.6780 -3.2218
   8123SM   C1F10780   4.169   3.982  13.055 -0.6589  0.1505 -0.8933
   8123SM    OF10781   4.078   3.904  13.042  0.2522 -0.0290  0.2914
   8123SM   C2F10782   4.161   4.100  13.148  0.5486  0.1182 -0.0997
   8123SM   H2F10783   4.078   4.169  13.123 -0.3578 -0.6911  0.6008
   8123SM   H2G10784   4.252   4.164  13.143  1.3460 -1.0583 -3.1104
   8123SM   C3F10785   4.137   4.065  13.296 -0.5588  0.2522 -0.5745
   8123SM   H3F10786   4.225   4.014  13.341 -0.9602 -0.4977 -0.6403
   8123SM   H3G10787   4.048   3.999  13.301  0.0340 -0.5413 -0.2223
   8123SM   C4F10788   4.117   4.191  13.386 -0.0135  0.4746  0.3943
   8123SM   H4F10789   4.012   4.216  13.361  0.5049  0.0142 -2.6159
   8123SM   H4G10790   4.169   4.284  13.356 -0.8987  1.6671  2.3396
   8123SM   C5F10791   4.125   4.159  13.537 -1.4008 -0.5191 -0.0625
   8123SM   H5F10792   4.222   4.105  13.546 -1.5951 -1.1137 -1.2484
   8123SM   H5G10793   4.042   4.089  13.562 -1.9683  0.5216  1.0594
   8123SM   C6F10794   4.119   4.287  13.625  0.2559  0.5721 -0.5238
   8123SM   H6F10795   4.017   4.331  13.619  0.6457  1.5964  0.0289
   8123SM   H6G10796   4.202   4.357  13.598  1.3244 -0.6713 -0.5362
   8123SM   C7F10797   4.140   4.253  13.773 -0.0212 -0.0578 -0.4744
   8123SM   H7F10798   4.245   4.250  13.808  0.9405 -0.7780 -3.2241
   8123SM   H7G10799   4.085   4.158  13.791 -0.4620  0.0209 -1.3529
   8123SM   C8F10800   4.079   4.364  13.860  0.3226 -0.4329  0.1575
   8123SM   H8F10801   3.982   4.376  13.806 -0.0277  0.2694  0.9217
   8123SM   H8G10802   4.139   4.454  13.836  2.1123 -2.0176 -1.6384
   8123SM   C9F10803   4.068   4.355  14.013 -0.0327 -0.4135 -0.0341
   8123SM   H9F10804   4.166   4.378  14.058 -0.2793  0.5029  0.0537
   8123SM   H9G10805   4.046   4.249  14.042  0.9577 -0.6948 -0.2686
   8123SM  C10F10806   3.952   4.448  14.054 -0.0507 -0.0055  0.1792
   8123SM  H10F10807   3.871   4.450  13.978  0.9184 -0.7798 -0.9107
   8123SM  H10G10808   3.994   4.551  14.054  1.7947 -0.6653 -2.2394
   8123SM  C11F10809   3.885   4.410  14.187 -0.6856 -0.4736 -0.7894
   8123SM  H11F10810   3.864   4.301  14.185 -0.0703 -0.5934 -1.6471
   8123SM  H11G10811   3.789   4.462  14.202 -1.5185 -2.0342 -0.4898
   8123SM  C12F10812   3.979   4.432  14.317 -0.1353  0.1457  0.1293
   8123SM  H12F10813   4.012   4.537  14.330 -3.0028  1.2092 -0.2926
   8123SM  H12G10814   4.060   4.357  14.305 -0.4843 -0.3471  0.7502
   8123SM  C13F10815   3.919   4.388  14.447 -0.3065 -0.1125 -0.7147
   8123SM  H13F10816   3.889   4.282  14.438  1.5380 -0.5337 -2.6185
   8123SM  H13G10817   3.827   4.441  14.480 -1.4834 -2.9012  0.8086
   8123SM  C14F10818   4.021   4.397  14.573  0.1751 -0.1422  0.9358
   8123SM  H14F10819   4.070   4.497  14.577 -0.4537  0.1867  0.7019
   8123SM  H14G10820   4.099   4.321  14.556 -0.7780 -1.0524  0.5533
   8123SM  C15F10821   3.955   4.381  14.711  0.6141  0.2947  0.6287
   8123SM  H15F10822   3.865   4.447  14.708 -0.7404 -1.4207  1.5050
   8123SM  H15G10823   4.027   4.413  14.789  1.9647  0.7834 -0.7803
   8123SM  C16F10824   3.909   4.234  14.728  0.4193 -0.7836 -0.1587
   8123SM  H16F10825   4.008   4.183  14.733  1.8588  1.7944 -0.7836
   8123SM  H16G10826   3.854   4.189  14.643  1.8012 -1.9216 -0.4954
   8123SM  C17F10827   3.834   4.208  14.860 -0.0793  0.5081 -0.2937
   8123SM  H17F10828   3.728   4.241  14.855 -0.2376  0.0934  0.2373
   8123SM  H17G10829   3.878   4.257  14.949  1.4657 -1.8783  0.3499
   8123SM  C18F10830   3.840   4.061  14.908  0.3317  0.3705  0.4737
   8123SM  H18F10831   3.776   4.005  14.837 -0.2791  3.5251 -1.6552
   8123SM  H18G10832   3.804   4.051  15.013  2.0943  2.6349  1.3707
   8123SM  C19F10833   3.980   4.000  14.909  0.1224  0.2390 -0.0367
   8123SM  H19F10834   4.054   4.061  14.964  1.1168  0.6198 -1.7163
   8123SM  H19G10835   4.016   3.984  14.805 -0.0860  0.5080 -0.1517
   8123SM  C20F10836   3.978   3.865  14.970 -0.4060  0.2045 -0.5015
   8123SM  H20F10837   3.950   3.876  15.077 -2.0443  1.1186 -0.9855
   8123SM  H20G10838   4.080   3.821  14.977  0.1016  1.3313 -0.4987
   8123SM  C21F10839   3.868   3.774  14.909 -0.3109  1.2442  0.0036
   8123SM  H21F10840   3.872   3.795  14.800  0.0287 -2.0100 -0.7145
   8123SM  H21G10841   3.763   3.793  14.943 -0.8425 -1.1311 -0.1362
   8123SM  C22F10842   3.905   3.627  14.921  0.0719  0.4231  0.9212
   8123SM  H22F10843   3.922   3.597  15.026  0.4441 -1.9570  0.2363
   8123SM  H22G10844   4.005   3.619  14.874 -0.3678  0.6156 -0.0796
   8123SM  C23F10845   3.800   3.529  14.869  1.0622  0.1178  0.3294
   8123SM  H23F10846   3.806   3.427  14.914  1.4098  0.0716  0.1828
   8123SM  H23G10847   3.802   3.511  14.759  1.6031  0.7170  0.2326
   8123SM  H23H10848   3.700   3.573  14.888  0.7049 -0.5196 -0.0376
   8223SM     N10849   4.355   3.916  12.344 -0.2459  0.0992  0.2811
   8223SM   C1510850   4.206   3.934  12.347 -0.0375 -0.1807  0.5911
   8223SM  H15A10851   4.172   4.036  12.342 -1.3309 -0.5581  1.1674
   8223SM  H15B10852   4.155   3.873  12.421  1.4571 -0.8849  1.0781
   8223SM  H15C10853   4.178   3.885  12.254  0.5513 -0.6589  0.6588
   8223SM   C1410854   4.387   3.786  12.289  0.4278  0.7046 -0.3798
   8223SM  H14A10855   4.395   3.702  12.357  2.3203 -0.0879 -1.4688
   8223SM  H14B10856   4.485   3.799  12.245  0.7077 -1.3410 -0.4903
   8223SM  H14C10857   4.318   3.760  12.211 -1.3616  1.6935  0.8219
   8223SM   C1310858   4.412   4.009  12.250  0.2904 -0.0471  0.5358
   8223SM  H13A10859   4.400   3.987  12.146  2.3648  0.5374  0.1125
   8223SM  H13B10860   4.520   4.019  12.252  0.2826  0.2502 -0.3182
   8223SM  H13C10861   4.364   4.105  12.243 -0.2016 -0.2555  1.0231
   8223SM   C1210862   4.411   3.951  12.484 -0.0715 -0.1954  0.6242
   8223SM  H12A10863   4.362   3.880  12.549 -1.4669  0.3375  0.2010
   8223SM  H12B10864   4.362   4.045  12.506 -2.6692  0.2223 -5.0622
   8223SM   C1110865   4.565   3.951  12.504  0.0827 -0.2719  0.6285
   8223SM  H11A10866   4.601   3.858  12.454  1.0077  1.2228 -1.6111
   8223SM  H11B10867   4.588   3.948  12.613  1.5527 -0.9593  0.3280
   8223SM     P10868   4.631   4.197  12.520 -0.3764  0.0797  0.1973
   8223SM   O1310869   4.700   4.298  12.435 -0.1432  0.2684 -0.0772
   8223SM   O1410870   4.505   4.235  12.589 -0.0556 -0.4977  0.5841
   8223SM   O1110871   4.736   4.147  12.619 -0.1264  0.4394 -0.3920
   8223SM   O1210872   4.611   4.067  12.434  0.3917  0.2147  0.3290
   8223SM   C1S10873   4.775   4.236  12.722 -0.0493 -0.1685 -0.3767
   8223SM   H1S10874   4.688   4.292  12.764  1.6150  1.7084  0.7891
   8223SM   H1T10875   4.849   4.313  12.690 -1.6642  0.8271 -1.9348
   8223SM    NF10876   4.832   4.229  12.964  0.1359 -0.1523 -0.3794
   8223SM   HNF10877   4.912   4.287  12.969  0.6630 -0.7819 -1.2706
   8223SM   C2S10878   4.823   4.149  12.848  0.3429 -0.3575 -0.1780
   8223SM   H2S10879   4.742   4.076  12.871 -0.9506  0.6075 -1.4430
   8223SM   C3S10880   4.958   4.085  12.817 -0.3875 -0.6342 -0.4900
   8223SM   H3S10881   5.032   4.165  12.799  0.4996 -1.2871  0.1676
   8223SM    O310882   4.955   4.010  12.695 -0.6008  0.3972  0.4370
   8223SM   HO310883   4.870   4.031  12.655 -1.2825  1.4172  2.2859
   8223SM   C4S10884   5.005   4.002  12.935  0.6542  0.0661 -0.1715
   8223SM   H4S10885   5.077   4.063  12.992  1.1898 -0.0068 -0.7625
   8223SM   C5S10886   4.969   3.880  12.966 -0.1782  0.6964 -0.4253
   8223SM   H5S10887   4.910   3.814  12.901  0.0230 -0.3292  0.4136
   8223SM   C6S10888   5.011   3.804  13.092 -1.2662  0.1631 -0.5020
   8223SM   H6S10889   5.109   3.759  13.064 -1.2199 -0.0540 -0.0112
   8223SM   H6T10890   4.949   3.714  13.109  0.8571 -1.4417 -0.7455
   8223SM   C7S10891   5.016   3.899  13.211  0.0825  0.5614  0.1543
   8223SM   H7S10892   4.912   3.934  13.227 -0.4279 -0.8084 -0.0461
   8223SM   H7T10893   5.083   3.982  13.179  1.0528 -0.3529 -0.2578
   8223SM   C8S10894   5.064   3.833  13.333  0.0391 -0.5860  0.2045
   8223SM   H8S10895   5.166   3.791  13.322 -1.1141 -3.8613  0.7974
   8223SM   H8T10896   4.999   3.745  13.352  1.4071 -1.8673 -0.8679
   8223SM   C9S10897   5.049   3.921  13.458 -0.3392  0.5319  0.0859
   8223SM   H9S10898   4.943   3.955  13.467 -0.1978  0.4344  3.6258
   8223SM   H9T10899   5.112   4.012  13.452  0.7633 -0.1263  1.1772
   8223SM  C10S10900   5.075   3.829  13.580 -0.5382  0.6896 -0.3620
   8223SM  H10S10901   5.177   3.789  13.594 -1.0180 -0.3106  0.4142
   8223SM  H10T10902   5.007   3.741  13.577  2.4978 -1.8271 -0.9964
   8223SM  C11S10903   5.042   3.901  13.715  0.0711 -0.3529 -0.0765
   8223SM  H11S10904   4.949   3.959  13.697  0.3598  0.7854  1.7858
   8223SM  H11T10905   5.127   3.962  13.752  0.6732 -0.6084 -1.0266
   8223SM  C12S10906   4.987   3.809  13.828  0.0453  0.3251 -0.4465
   8223SM  H12S10907   4.930   3.729  13.777  0.8757  0.0854 -1.0159
   8223SM  H12T10908   4.923   3.869  13.896 -0.5380  1.7675 -2.1967
   8223SM  C13S10909   5.105   3.751  13.898 -0.9777  0.4089  0.1830
   8223SM  H13S10910   5.157   3.838  13.944  1.7496  0.0811 -1.9899
   8223SM  H13T10911   5.167   3.697  13.823  0.1412 -0.8127  1.8895
   8223SM  C14S10912   5.066   3.661  14.016 -0.8523 -0.3339 -0.0995
   8223SM  H14S10913   5.156   3.621  14.068 -1.9698 -2.4766  0.3143
   8223SM  H14T10914   5.010   3.569  13.989  1.6124 -1.9612 -0.0456
   8223SM  C15S10915   4.985   3.739  14.123 -0.2048 -0.5124  0.4033
   8223SM  H15S10916   4.887   3.759  14.075  0.8584  0.0898 -1.6166
   8223SM  H15T10917   5.031   3.840  14.135 -0.4158 -0.1965 -1.2063
   8223SM  C16S10918   4.956   3.654  14.243  0.1486 -0.2025 -0.3636
   8223SM  H16S10919   5.057   3.645  14.288 -0.2678  1.7317  1.1102
   8223SM  H16T10920   4.919   3.551  14.221 -0.1572  0.1361 -1.4632
   8223SM  C17S10921   4.876   3.722  14.352 -0.1023 -0.1089 -0.4882
   8223SM  H17S10922   4.769   3.711  14.324  0.0104 -0.1802 -0.8887
   8223SM  H17T10923   4.900   3.830  14.359 -0.1665 -0.1219 -0.0425
   8223SM  C18S10924   4.898   3.654  14.491 -0.4922 -0.2702  0.2194
   8223SM  H18S10925   5.002   3.619  14.506  0.3177  1.1825 -1.6673
   8223SM  H18T10926   4.831   3.565  14.501  1.3303 -1.6553  0.6227
   8223SM  H18U10927   4.884   3.726  14.575  1.5596  0.2757  0.1296
   8223SM   C1F10928   4.732   4.281  13.037 -0.1957  0.1897 -0.5291
   8223SM    OF10929   4.618   4.263  13.003 -0.3619 -0.0190 -0.7332
   8223SM   C2F10930   4.776   4.370  13.154 -0.3620 -0.2554 -0.0944
   8223SM   H2F10931   4.690   4.412  13.209  0.3390 -1.0351  1.6917
   8223SM   H2G10932   4.828   4.454  13.102  0.1348 -0.9104 -0.6833
   8223SM   C3F10933   4.869   4.304  13.256 -0.8536  0.1455  0.0782
   8223SM   H3F10934   4.954   4.258  13.202 -2.9154 -0.2762 -3.0528
   8223SM   H3G10935   4.814   4.224  13.312  0.0686  1.1107  2.5047
   8223SM   C4F10936   4.919   4.399  13.364 -0.1901 -0.8245 -0.3500
   8223SM   H4F10937   4.828   4.408  13.427 -0.8862  1.5818 -1.5685
   8223SM   H4G10938   4.949   4.500  13.328 -0.4696 -0.4569  0.4176
   8223SM   C5F10939   5.021   4.331  13.464  0.1099  0.0146 -0.1968
   8223SM   H5F10940   5.128   4.342  13.437  0.5670  1.0646  1.8384
   8223SM   H5G10941   4.991   4.224  13.468 -0.7558  0.2411 -0.5135
   8223SM   C6F10942   4.998   4.386  13.607  0.0836 -0.7677  0.2295
   8223SM   H6F10943   4.888   4.403  13.614  0.2642  0.7424 -0.3355
   8223SM   H6G10944   5.042   4.487  13.619 -0.9376  0.1564 -2.9858
   8223SM   C7F10945   5.027   4.282  13.721  0.4399 -0.4663  0.2485
   8223SM   H7F10946   5.135   4.264  13.735  0.6103 -0.6164 -1.1232
   8223SM   H7G10947   4.997   4.184  13.678 -0.4878 -0.8470  1.7116
   8223SM   C8F10948   4.960   4.317  13.858 -0.1967  0.1833  0.8202
   8223SM   H8F10949   4.853   4.339  13.839 -0.8006 -2.1874  1.0918
   8223SM   H8G10950   4.999   4.416  13.891  1.9794 -0.7092  1.0929
   8223SM   C9F10951   4.980   4.208  13.958 -0.2155  0.2038 -0.3178
   8223SM   H9F10952   5.085   4.178  13.975 -0.4837  0.2193  1.5276
   8223SM   H9G10953   4.930   4.111  13.937  1.1042 -0.6718  0.4280
   8223SM  C10F10954   4.926   4.254  14.094  0.2558 -0.0449  0.2890
   8223SM  H10F10955   4.829   4.304  14.076 -0.9944 -1.6601  2.0611
   8223SM  H10G10956   4.997   4.331  14.131  0.2326  0.5431 -0.8580
   8223SM  C11F10957   4.929   4.145  14.204 -0.4087  0.5493  0.6234
   8223SM  H11F10958   5.034   4.107  14.212 -0.5974  0.2136  1.5813
   8223SM  H11G10959   4.862   4.068  14.161  1.0269 -1.7476  2.2159
   8223SM  C12F10960   4.876   4.191  14.344 -1.1972 -0.0996 -0.7654
   8223SM  H12F10961   4.857   4.106  14.413 -3.4467  1.6489  0.8895
   8223SM  H12G10962   4.784   4.250  14.325 -1.3597  0.0184  0.3259
   8223SM  C13F10963   4.981   4.260  14.433  0.7432 -0.7699  0.0376
   8223SM  H13F10964   5.033   4.338  14.375 -1.0204  0.6399  0.2582
   8223SM  H13G10965   5.060   4.185  14.456  0.1307 -0.9168  1.8418
   8223SM  C14F10966   4.945   4.314  14.575  0.8374  0.8167 -0.6397
   8223SM  H14F10967   4.891   4.236  14.634  0.1481  0.1880 -2.0493
   8223SM  H14G10968   4.888   4.407  14.556 -0.7162  0.4191  1.6081
   8223SM  C15F10969   5.064   4.356  14.660  0.6414 -0.0772  0.4417
   8223SM  H15F10970   5.129   4.268  14.683 -2.1008 -2.4110 -0.1631
   8223SM  H15G10971   5.035   4.385  14.763 -3.5182 -0.9007 -0.3207
   8223SM  C16F10972   5.139   4.475  14.595 -0.2161 -0.4038 -0.4296
   8223SM  H16F10973   5.060   4.551  14.577 -0.2825 -0.1726  0.7205
   8223SM  H16G10974   5.179   4.454  14.494 -0.7854  0.1796 -0.7855
   8223SM  C17F10975   5.252   4.541  14.686  0.4469  0.0130  0.0041
   8223SM  H17F10976   5.298   4.460  14.746 -0.8344  0.7104  2.0428
   8223SM  H17G10977   5.198   4.605  14.759 -0.7635 -2.6872  1.6550
   8223SM  C18F10978   5.351   4.624  14.603 -0.2134  0.4039 -0.0389
   8223SM  H18F10979   5.420   4.673  14.675 -1.9474  2.8423  0.1100
   8223SM  H18G10980   5.287   4.700  14.552 -1.3465  0.0115  0.7740
   8223SM  C19F10981   5.424   4.547  14.488 -0.4158  0.5242  0.2522
   8223SM  H19F10982   5.386   4.571  14.386  0.8673 -0.7341 -0.5628
   8223SM  H19G10983   5.397   4.440  14.501 -0.4090  0.6588  1.4813
   8223SM  C20F10984   5.576   4.570  14.485  0.0891 -0.4734 -0.1929
   8223SM  H20F10985   5.614   4.556  14.589  0.1140 -0.0682 -0.1449
   8223SM  H20G10986   5.598   4.674  14.452  2.0092 -1.0758 -0.9363
   8223SM  C21F10987   5.656   4.465  14.404  0.3208 -0.7245 -0.1130
   8223SM  H21F10988   5.618   4.469  14.300 -0.0672  1.5545  0.0659
   8223SM  H21G10989   5.640   4.365  14.449  2.4322 -0.5100  1.2727
   8223SM  C22F10990   5.809   4.484  14.400 -0.0833 -0.7089  0.7784
   8223SM  H22F10991   5.854   4.490  14.501  0.5936  0.4414  0.4350
   8223SM  H22G10992   5.831   4.585  14.358 -0.7588 -0.1571  1.7105
   8223SM  C23F10993   5.874   4.376  14.313 -0.0449  0.2495  0.3873
   8223SM  H23F10994   5.879   4.281  14.370  1.7076  0.1386  0.0857
   8223SM  H23G10995   5.977   4.409  14.291  0.0229 -0.4273 -0.3659
   8223SM  H23H10996   5.832   4.371  14.210  0.5523  1.9045  0.0358
   8323SM     N10997   5.850   4.080  12.271  0.7962  0.1849 -0.4140
   8323SM   C1510998   5.993   4.093  12.247 -0.8451 -0.3014  0.4017
   8323SM  H15A10999   6.026   4.017  12.179  0.3842  0.7815 -0.2551
   8323SM  H15B11000   6.059   4.087  12.332  1.4810 -1.1652 -1.3585
   8323SM  H15C11001   6.010   4.186  12.195 -0.0189 -0.2295  0.7817
   8323SM   C1411002   5.812   4.187  12.369  0.5287  0.0370  0.0043
   8323SM  H14A11003   5.863   4.185  12.464  2.2051 -0.0218 -0.8584
   8323SM  H14B11004   5.706   4.189  12.390  0.7709  1.0855  1.2238
   8323SM  H14C11005   5.844   4.284  12.335  1.3911 -0.1271  0.3308
   8323SM   C1311006   5.780   4.112  12.144  0.0166  0.0875  0.2623
   8323SM  H13A11007   5.810   4.052  12.060  0.8444 -2.4024  2.2107
   8323SM  H13B11008   5.797   4.211  12.104  0.3524 -0.1932 -0.2996
   8323SM  H13C11009   5.675   4.103  12.169  0.9132 -0.7385  4.5348
   8323SM   C1211010   5.806   3.946  12.327  0.2384  0.5558 -0.1200
   8323SM  H12A11011   5.843   3.865  12.264  0.0564 -0.2940  0.8383
   8323SM  H12B11012   5.698   3.943  12.323  0.1956  0.2979  0.9802
   8323SM   C1111013   5.846   3.911  12.478 -0.1366 -0.3411  0.3041
   8323SM  H11A11014   5.952   3.945  12.477 -0.0158 -0.6729 -1.5139
   8323SM  H11B11015   5.829   3.803  12.500 -1.0758  0.0421  1.5562
   8323SM     P11016   5.621   3.945  12.594  0.3331  0.0640 -0.1617
   8323SM   O1311017   5.557   4.028  12.696  0.0620 -0.0457 -0.5362
   8323SM   O1411018   5.552   3.935  12.462  0.9060  0.3953  0.9711
   8323SM   O1111019   5.644   3.799  12.657  0.1076 -0.0888  0.2144
   8323SM   O1211020   5.770   3.988  12.572 -0.4839 -0.1572 -0.1704
   8323SM   C1S11021   5.753   3.772  12.748 -0.4166  0.2344 -0.1843
   8323SM   H1S11022   5.845   3.833  12.737  0.7916 -1.4862  0.0867
   8323SM   H1T11023   5.796   3.673  12.722 -0.8026  0.3871 -1.4731
   8323SM    NF11024   5.817   3.786  12.992 -0.1152 -0.4851  0.4207
   8323SM   HNF11025   5.853   3.701  13.031 -0.1013 -0.2347  0.9458
   8323SM   C2S11026   5.708   3.775  12.899  0.1576 -0.0287 -0.3277
   8323SM   H2S11027   5.642   3.861  12.923  0.7946  0.4243 -0.1968
   8323SM   C3S11028   5.617   3.648  12.931  1.0957  0.2697 -0.0120
   8323SM   H3S11029   5.678   3.558  12.909 -2.4001 -1.8741 -1.8453
   8323SM    O311030   5.499   3.616  12.853 -0.2835  0.2538  0.8478
   8323SM   HO311031   5.530   3.634  12.764 -0.9855  0.0637  0.5573
   8323SM   C4S11032   5.582   3.644  13.076 -0.5007 -0.0037 -0.4391
   8323SM   H4S11033   5.652   3.592  13.142  0.9531 -0.3321 -2.1729
   8323SM   C5S11034   5.468   3.705  13.117 -0.1252 -0.0797 -1.0274
   8323SM   H5S11035   5.401   3.760  13.049 -0.9972 -0.0757 -0.1848
   8323SM   C6S11036   5.424   3.712  13.263 -0.0728 -0.1262  0.2263
   8323SM   H6S11037   5.330   3.653  13.275 -0.1529 -0.0378  0.0486
   8323SM   H6T11038   5.404   3.820  13.282  3.5888  0.5556  0.8979
   8323SM   C7S11039   5.513   3.665  13.375 -1.0098  0.7965 -0.4642
   8323SM   H7S11040   5.608   3.722  13.374 -0.3088 -0.3514 -0.1913
   8323SM   H7T11041   5.534   3.559  13.348  1.7771  1.3177 -0.5579
   8323SM   C8S11042   5.437   3.666  13.512  0.4313  0.0514  0.2102
   8323SM   H8S11043   5.350   3.597  13.517  0.9537 -0.6852 -0.6496
   8323SM   H8T11044   5.400   3.768  13.535  1.8480  0.6077  0.0887
   8323SM   C9S11045   5.526   3.641  13.631 -0.4575  0.2911 -0.5502
   8323SM   H9S11046   5.602   3.722  13.645 -1.2417  0.5605  3.1744
   8323SM   H9T11047   5.579   3.547  13.607 -0.5655  0.3505 -1.0173
   8323SM  C10S11048   5.456   3.613  13.764  0.7092  1.2025 -0.0924
   8323SM  H10S11049   5.361   3.557  13.748  0.3157  2.3391 -2.1107
   8323SM  H10T11050   5.439   3.716  13.803  0.6657  0.6035  1.5581
   8323SM  C11S11051   5.542   3.536  13.864 -0.0778  0.0576 -0.2698
   8323SM  H11S11052   5.642   3.577  13.840  0.8352 -2.3439 -0.8685
   8323SM  H11T11053   5.550   3.428  13.839 -0.0504  0.2239 -1.0076
   8323SM  C12S11054   5.509   3.576  14.010 -0.0146 -0.1730  0.8700
   8323SM  H12S11055   5.411   3.540  14.047 -0.8351  1.1956  0.1130
   8323SM  H12T11056   5.514   3.687  14.015 -1.7455  0.0861 -1.5787
   8323SM  C13S11057   5.622   3.527  14.103 -0.5625 -0.2435 -0.8516
   8323SM  H13S11058   5.718   3.547  14.049  0.1187 -0.4637  0.2391
   8323SM  H13T11059   5.621   3.416  14.108  0.4955 -0.2369  0.1261
   8323SM  C14S11060   5.619   3.594  14.246  0.6957  0.1962 -0.1480
   8323SM  H14S11061   5.607   3.704  14.234  2.0974  0.1742 -2.2491
   8323SM  H14T11062   5.715   3.585  14.300  0.2126 -2.4569  0.3728
   8323SM  C15S11063   5.508   3.533  14.341 -0.0450 -0.0302  0.9048
   8323SM  H15S11064   5.543   3.428  14.340 -0.6829 -0.2819  2.6499
   8323SM  H15T11065   5.409   3.546  14.291  0.0169 -0.8172  0.5527
   8323SM  C16S11066   5.484   3.590  14.480 -0.2617 -0.0181  0.4961
   8323SM  H16S11067   5.455   3.695  14.460 -1.0571 -0.6660 -2.2498
   8323SM  H16T11068   5.577   3.580  14.540 -0.4124 -0.3021  0.6824
   8323SM  C17S11069   5.362   3.524  14.551  0.0921 -0.1035 -0.5223
   8323SM  H17S11070   5.372   3.414  14.562  0.2222  0.1584  2.7997
   8323SM  H17T11071   5.273   3.532  14.485 -1.7293 -0.8053  1.7382
   8323SM  C18S11072   5.320   3.587  14.686 -0.1445  0.9235  0.1637
   8323SM  H18S11073   5.255   3.674  14.665 -2.0573  0.2279  2.7755
   8323SM  H18T11074   5.413   3.627  14.733  0.4763  0.3684 -0.5535
   8323SM  H18U11075   5.262   3.515  14.747 -2.6901  1.8715 -0.9861
   8323SM   C1F11076   5.884   3.897  13.013  0.1924 -0.5661 -0.2302
   8323SM    OF11077   5.853   4.006  12.958  0.3661  0.1991 -0.7904
   8323SM   C2F11078   6.012   3.883  13.101  0.0065  0.6382  0.1874
   8323SM   H2F11079   6.091   3.857  13.028  0.8187 -0.9162  1.5345
   8323SM   H2G11080   5.998   3.786  13.152  2.7491  0.0069 -0.1273
   8323SM   C3F11081   6.035   3.997  13.207  0.0663 -0.0513  0.1200
   8323SM   H3F11082   6.066   4.088  13.151  3.4046 -0.6262  0.8092
   8323SM   H3G11083   6.132   3.978  13.258  0.8134  1.9589 -0.4592
   8323SM   C4F11084   5.926   4.017  13.319 -0.6474 -0.7382  0.7004
   8323SM   H4F11085   5.824   4.034  13.278 -0.3951 -0.0085  0.3606
   8323SM   H4G11086   5.970   4.110  13.361 -0.5658 -0.1728 -0.5902
   8323SM   C5F11087   5.939   3.908  13.424  0.3587  0.1117 -0.3435
   8323SM   H5F11088   6.048   3.901  13.448  0.7359  0.8292 -1.7467
   8323SM   H5G11089   5.921   3.804  13.392  0.8540 -1.1995  3.1658
   8323SM   C6F11090   5.857   3.940  13.552  0.3696  0.2754 -0.0410
   8323SM   H6F11091   5.751   3.913  13.532  0.2444 -0.8465  1.8999
   8323SM   H6G11092   5.846   4.047  13.578  3.5920  0.5123  0.7983
   8323SM   C7F11093   5.914   3.851  13.667  0.0431  0.1241  0.6364
   8323SM   H7F11094   6.022   3.870  13.683  0.0835 -1.3045  2.3166
   8323SM   H7G11095   5.919   3.743  13.642  1.3632 -0.0958  1.7580
   8323SM   C8F11096   5.856   3.876  13.808  0.0222  0.0129 -0.4008
   8323SM   H8F11097   5.746   3.862  13.804 -0.0032  0.5251 -2.6806
   8323SM   H8G11098   5.876   3.985  13.821  1.7298  0.1197 -3.1777
   8323SM   C9F11099   5.923   3.791  13.914  0.8360 -1.0290  0.1871
   8323SM   H9F11100   6.034   3.805  13.910  0.7808  0.7166  2.7299
   8323SM   H9G11101   5.903   3.684  13.890  0.5887 -0.6192 -1.6021
   8323SM  C10F11102   5.864   3.823  14.054 -0.0304  0.4327 -0.4801
   8323SM  H10F11103   5.755   3.801  14.059 -0.5041  2.6908  0.2612
   8323SM  H10G11104   5.877   3.932  14.070  2.3868 -0.0915  1.8328
   8323SM  C11F11105   5.940   3.771  14.180 -0.0400 -0.2322 -0.4380
   8323SM  H11F11106   6.046   3.802  14.164 -0.1454  0.6074  0.4521
   8323SM  H11G11107   5.935   3.660  14.181  0.1333 -0.2388 -0.1912
   8323SM  C12F11108   5.892   3.829  14.313  0.5027  0.2339 -0.1137
   8323SM  H12F11109   5.783   3.809  14.318  0.1495  2.1750  0.5795
   8323SM  H12G11110   5.898   3.940  14.317  0.7777  0.3329 -2.1221
   8323SM  C13F11111   5.962   3.782  14.441 -0.3292  0.2041  0.5636
   8323SM  H13F11112   6.071   3.802  14.431  0.1235 -2.2174  0.0227
   8323SM  H13G11113   5.951   3.672  14.452  0.2345  0.1900  1.0503
   8323SM  C14F11114   5.921   3.853  14.572 -0.1849 -0.0757 -0.6769
   8323SM  H14F11115   5.958   3.788  14.655  1.7161  1.7157 -0.0518
   8323SM  H14G11116   5.810   3.853  14.578 -0.2560 -0.6836 -1.8315
   8323SM  C15F11117   5.986   3.985  14.587 -0.0126 -0.4369  0.3784
   8323SM  H15F11118   5.959   4.053  14.503 -3.3731 -0.8581  0.9901
   8323SM  H15G11119   6.097   3.983  14.585  0.0676  1.3207  0.7571
   8323SM  C16F11120   5.939   4.062  14.719  1.4271  0.4489 -0.3354
   8323SM  H16F11121   5.835   4.097  14.701  1.2095  0.5309  0.9674
   8323SM  H16G11122   5.993   4.154  14.749 -2.0746  2.2466  1.1440
   8323SM  C17F11123   5.939   3.976  14.846 -0.3923  0.0957 -0.0417
   8323SM  H17F11124   5.974   4.046  14.925 -0.6447 -0.1078  0.2518
   8323SM  H17G11125   6.014   3.895  14.840 -0.1210  0.3829 -0.6567
   8323SM  C18F11126   5.804   3.917  14.873 -0.9334 -0.1773 -0.3621
   8323SM  H18F11127   5.772   3.848  14.792  0.4879 -0.0136 -1.1087
   8323SM  H18G11128   5.730   3.999  14.868 -0.1658  0.6448  1.2236
   8323SM  C19F11129   5.791   3.852  15.014 -0.1013 -0.3217  0.4472
   8323SM  H19F11130   5.717   3.772  14.992  2.2847 -2.2613 -1.1555
   8323SM  H19G11131   5.754   3.923  15.091 -1.7591 -0.5418 -0.0955
   8323SM  C20F11132   5.915   3.782  15.070  0.3097  0.0992 -0.3339
   8323SM  H20F11133   6.006   3.846  15.067  1.0014 -0.7608  1.1368
   8323SM  H20G11134   5.923   3.690  15.008  0.1548  1.4117 -2.4182
   8323SM  C21F11135   5.890   3.744  15.219  0.0804 -0.2766  0.2245
   8323SM  H21F11136   5.784   3.712  15.228  0.4231 -1.7470 -0.7324
   8323SM  H21G11137   5.894   3.834  15.285 -0.7724 -0.3672  0.4106
   8323SM  C22F11138   5.975   3.629  15.262  0.0659 -0.6250 -0.3993
   8323SM  H22F11139   5.955   3.545  15.192 -0.1307  0.5198 -1.7986
   8323SM  H22G11140   5.956   3.600  15.367  3.5431  0.9734  0.8116
   8323SM  C23F11141   6.119   3.662  15.244 -0.3397 -0.0064 -0.0227
   8323SM  H23F11142   6.143   3.688  15.139  0.7746  0.1731  0.2661
   8323SM  H23G11143   6.191   3.583  15.275  1.2534  0.3027 -2.6553
   8323SM  H23H11144   6.150   3.749  15.306  0.6045  0.2718 -0.8621
   8423SM     N11145   5.768   2.559  12.559 -0.0885 -0.1093  0.2642
   8423SM   C1511146   5.676   2.659  12.502 -0.2126 -0.3188 -0.2159
   8423SM  H15A11147   5.597   2.660  12.575 -0.6884  2.4802 -0.6526
   8423SM  H15B11148   5.632   2.627  12.409  1.8295 -2.9117 -0.4017
   8423SM  H15C11149   5.720   2.758  12.496 -2.1747  0.6197 -0.1756
   8423SM   C1411150   5.897   2.556  12.481  0.1046  0.3368 -0.0658
   8423SM  H14A11151   5.870   2.541  12.378  0.6718  0.5478 -0.2468
   8423SM  H14B11152   5.956   2.471  12.511 -0.2087  0.0514 -0.2469
   8423SM  H14C11153   5.957   2.642  12.507  1.1683 -0.4348  0.0660
   8423SM   C1311154   5.803   2.596  12.697  0.0647  0.4337 -0.5565
   8423SM  H13A11155   5.844   2.696  12.698  0.6539  0.2074  1.1062
   8423SM  H13B11156   5.868   2.524  12.744 -0.1360  1.4706  1.4201
   8423SM  H13C11157   5.711   2.595  12.754  0.1785  0.1792 -0.3771
   8423SM   C1211158   5.702   2.421  12.558 -0.6744 -0.2639  0.2898
   8423SM  H12A11159   5.774   2.348  12.593 -1.0401 -1.6406 -1.7029
   8423SM  H12B11160   5.677   2.394  12.457  0.2530 -1.0163  0.2463
   8423SM   C1111161   5.585   2.389  12.643 -0.2728  0.0457 -0.3442
   8423SM  H11A11162   5.504   2.461  12.618 -0.9146 -0.1881  0.9810
   8423SM  H11B11163   5.616   2.411  12.747 -1.7545  0.4416  0.0381
   8423SM     P11164   5.435   2.191  12.566  0.2388 -0.4503 -0.0140
   8423SM   O1311165   5.431   2.253  12.431 -0.1441  0.1918 -0.2023
   8423SM   O1411166   5.435   2.041  12.574  0.3546 -0.1031  0.5532
   8423SM   O1111167   5.318   2.240  12.661  0.3327  0.8092  0.3558
   8423SM   O1211168   5.562   2.246  12.636 -0.6726  0.5633  0.0907
   8423SM   C1S11169   5.316   2.179  12.796  0.4128 -0.0082  0.2320
   8423SM   H1S11170   5.357   2.076  12.797 -1.7473 -0.9907 -1.9754
   8423SM   H1T11171   5.214   2.179  12.841  1.0387  1.7214  1.7754
   8423SM    NF11172   5.390   2.207  13.045  0.3704 -0.0184  0.3623
   8423SM   HNF11173   5.338   2.235  13.125 -2.3811 -2.5211 -0.3627
   8423SM   C2S11174   5.379   2.272  12.908  0.2278  0.5329 -0.1542
   8423SM   H2S11175   5.482   2.299  12.878  1.4325 -0.0194  3.1404
   8423SM   C3S11176   5.308   2.407  12.924 -0.1217 -0.0828 -0.1313
   8423SM   H3S11177   5.204   2.392  12.960 -0.2904  0.5601 -0.3457
   8423SM    O311178   5.287   2.472  12.798  0.2830 -0.2452  0.8060
   8423SM   HO311179   5.284   2.390  12.748 -1.3746 -0.1127  0.6286
   8423SM   C4S11180   5.386   2.496  13.017  0.4309 -0.2452  0.3047
   8423SM   H4S11181   5.493   2.510  12.997  0.0775  0.7453 -1.0844
   8423SM   C5S11182   5.338   2.547  13.132 -0.2293 -0.5556  0.5720
   8423SM   H5S11183   5.239   2.517  13.168 -0.1120  0.8117  2.1472
   8423SM   C6S11184   5.407   2.633  13.232  0.7071  0.9832  0.4831
   8423SM   H6S11185   5.346   2.726  13.226  1.7509  1.7550  1.4362
   8423SM   H6T11186   5.516   2.648  13.216  0.9470  0.0009  1.1235
   8423SM   C7S11187   5.378   2.573  13.367  0.5607 -0.1474  0.1128
   8423SM   H7S11188   5.417   2.469  13.372 -2.8966 -1.6430 -0.7265
   8423SM   H7T11189   5.269   2.577  13.389  0.2927 -0.1628 -1.1040
   8423SM   C8S11190   5.453   2.661  13.470 -0.4719  0.3897  0.0551
   8423SM   H8S11191   5.407   2.763  13.469 -0.2671  0.4878  0.3352
   8423SM   H8T11192   5.560   2.672  13.442  0.3172  0.1382  2.6463
   8423SM   C9S11193   5.430   2.598  13.604 -0.0591 -0.3086 -0.2351
   8423SM   H9S11194   5.477   2.498  13.596 -2.0315 -1.3321  0.2592
   8423SM   H9T11195   5.321   2.582  13.619  0.2447 -0.7521  1.8931
   8423SM  C10S11196   5.491   2.688  13.721 -0.1477  0.5005 -0.4311
   8423SM  H10S11197   5.440   2.786  13.725 -1.4005 -0.1657  1.0367
   8423SM  H10T11198   5.599   2.695  13.697  0.5994 -0.9412  2.0856
   8423SM  C11S11199   5.482   2.611  13.862 -0.2767 -0.5717  0.0141
   8423SM  H11S11200   5.521   2.508  13.851  0.7256 -0.1804 -0.1233
   8423SM  H11T11201   5.373   2.625  13.882  0.0549  2.7077  0.1129
   8423SM  C12S11202   5.573   2.681  13.969 -0.0973 -0.2647  0.0207
   8423SM  H12S11203   5.544   2.784  13.998 -1.4166 -1.1455  2.0708
   8423SM  H12T11204   5.679   2.684  13.938  0.5663  0.0788  2.1510
   8423SM  C13S11205   5.572   2.610  14.104  0.6506 -0.1884  0.3865
   8423SM  H13S11206   5.604   2.504  14.097 -2.5961 -1.2347 -0.3727
   8423SM  H13T11207   5.470   2.615  14.149  0.2299 -0.5858 -0.5088
   8423SM  C14S11208   5.669   2.674  14.201 -0.3911  0.0415  0.0694
   8423SM  H14S11209   5.632   2.776  14.222  0.4729  0.2505  0.5973
   8423SM  H14T11210   5.766   2.684  14.147  0.8192  1.9733  2.4149
   8423SM  C15S11211   5.694   2.605  14.332  0.4272 -0.0523  0.4224
   8423SM  H15S11212   5.607   2.607  14.401  0.6236  0.2207  0.6647
   8423SM  H15T11213   5.772   2.665  14.384 -0.6863  1.4190  0.4793
   8423SM  C16S11214   5.742   2.456  14.319 -0.7776 -0.5024 -0.0317
   8423SM  H16S11215   5.845   2.459  14.277 -1.5000  0.2136 -1.8345
   8423SM  H16T11216   5.678   2.391  14.256 -1.9287  0.3473  0.2124
   8423SM  C17S11217   5.757   2.383  14.456 -0.1140  0.2098  0.3275
   8423SM  H17S11218   5.792   2.283  14.423  0.9588  1.2872 -2.0040
   8423SM  H17T11219   5.658   2.379  14.506  0.0772 -1.4476  0.6310
   8423SM  C18S11220   5.871   2.449  14.547 -0.0189 -0.0039  0.5650
   8423SM  H18S11221   5.842   2.555  14.564 -1.3218 -0.1828 -0.3597
   8423SM  H18T11222   5.965   2.448  14.488  0.1941 -1.4882  0.9115
   8423SM  H18U11223   5.884   2.393  14.641  0.2434  0.3538  0.7429
   8423SM   C1F11224   5.464   2.100  13.052  0.4251 -0.0467 -0.2481
   8423SM    OF11225   5.523   2.049  12.954  0.2859  0.0610  0.1869
   8423SM   C2F11226   5.479   2.039  13.191  0.6318 -0.2811 -0.0936
   8423SM   H2F11227   5.449   1.932  13.194 -0.1879 -0.0475  0.5263
   8423SM   H2G11228   5.406   2.090  13.258  2.0013  1.4289  0.1727
   8423SM   C3F11229   5.627   2.033  13.241 -0.4073  0.0803  0.8171
   8423SM   H3F11230   5.662   2.136  13.261  0.6804  0.2243 -1.4755
   8423SM   H3G11231   5.693   1.987  13.164 -0.8566  1.6330 -0.5552
   8423SM   C4F11232   5.645   1.949  13.368 -0.5718 -0.3269 -0.2667
   8423SM   H4F11233   5.643   1.842  13.337 -1.3422  0.3189 -2.5891
   8423SM   H4G11234   5.571   1.952  13.451 -1.0247 -2.0486 -0.5780
   8423SM   C5F11235   5.785   1.972  13.440  0.1370 -0.2150  0.4750
   8423SM   H5F11236   5.787   2.081  13.460 -2.1214  0.6812 -3.2504
   8423SM   H5G11237   5.874   1.962  13.375  0.6800 -0.1156  1.1861
   8423SM   C6F11238   5.811   1.880  13.568  1.2239 -0.4074 -0.0940
   8423SM   H6F11239   5.816   1.776  13.529  0.8710 -0.1267 -0.9212
   8423SM   H6G11240   5.736   1.898  13.648 -0.0404  0.8707 -1.5071
   8423SM   C7F11241   5.945   1.931  13.610  0.2671  0.1147 -0.4031
   8423SM   H7F11242   5.942   2.042  13.615  0.5002  0.2100 -1.7948
   8423SM   H7G11243   6.019   1.912  13.529  0.3635  1.4379 -0.6626
   8423SM   C8F11244   5.993   1.851  13.728  0.2780 -0.7057 -0.0557
   8423SM   H8F11245   6.103   1.869  13.739  0.1234  2.0666 -2.1032
   8423SM   H8G11246   5.971   1.743  13.713 -1.3289 -0.7767  2.1892
   8423SM   C9F11247   5.923   1.886  13.858 -0.1279 -0.7250 -0.1500
   8423SM   H9F11248   5.823   1.838  13.856 -0.5678  0.1675 -2.3200
   8423SM   H9G11249   5.908   1.996  13.861  3.2151 -0.0839 -1.9047
   8423SM  C10F11250   5.990   1.843  13.989  0.1516 -0.5353 -0.2372
   8423SM  H10F11251   5.919   1.887  14.062  0.6797  1.8245 -1.0527
   8423SM  H10G11252   6.088   1.892  14.009  0.7183 -1.7772  0.1498
   8423SM  C11F11253   6.009   1.695  13.994  0.6405  0.2834  0.1824
   8423SM  H11F11254   6.081   1.662  13.915  2.4669  0.1808  1.8173
   8423SM  H11G11255   5.914   1.648  13.960 -0.1023  1.5017  0.4864
   8423SM  C12F11256   6.038   1.639  14.130 -0.2368 -0.1532 -0.4960
   8423SM  H12F11257   6.033   1.528  14.127  0.5303 -0.2307  0.7840
   8423SM  H12G11258   5.955   1.677  14.193 -0.9506 -0.5808 -1.1471
   8423SM  C13F11259   6.174   1.697  14.192  0.0739  0.6190  0.1233
   8423SM  H13F11260   6.184   1.807  14.175  1.0669  0.5694  0.3316
   8423SM  H13G11261   6.261   1.654  14.138 -0.7925 -0.4479 -0.4765
   8423SM  C14F11262   6.188   1.664  14.342  0.1546 -0.2915  0.9818
   8423SM  H14F11263   6.163   1.555  14.346  0.5168 -0.3924  0.5553
   8423SM  H14G11264   6.122   1.724  14.408  1.4544  1.5506  0.6753
   8423SM  C15F11265   6.329   1.679  14.401  0.6700 -0.4262  0.3086
   8423SM  H15F11266   6.358   1.785  14.379 -0.9831  0.0961  0.4939
   8423SM  H15G11267   6.393   1.611  14.341 -2.1164 -0.9950 -2.3442
   8423SM  C16F11268   6.322   1.648  14.549 -0.5170  0.0519  0.5895
   8423SM  H16F11269   6.278   1.546  14.549 -0.1372 -0.1773 -1.7750
   8423SM  H16G11270   6.254   1.721  14.599 -0.1633  1.8862 -1.4291
   8423SM  C17F11271   6.467   1.669  14.603  0.7948 -0.1766 -0.1569
   8423SM  H17F11272   6.481   1.779  14.593 -0.5534  0.5797  4.2765
   8423SM  H17G11273   6.534   1.617  14.531  0.3969 -1.2453  0.2325
   8423SM  C18F11274   6.475   1.616  14.743  0.4604 -0.3721  0.5731
   8423SM  H18F11275   6.458   1.507  14.750  0.8362 -0.6512 -1.9009
   8423SM  H18G11276   6.393   1.663  14.801  0.1827 -2.1975  1.7196
   8423SM  C19F11277   6.613   1.644  14.795 -0.0373 -0.0043  0.5530
   8423SM  H19F11278   6.627   1.754  14.805 -0.8010 -0.0247  2.4096
   8423SM  H19G11279   6.701   1.602  14.742 -0.4181 -1.3163  0.9387
   8423SM  C20F11280   6.632   1.575  14.941  0.3643 -0.4109 -0.6513
   8423SM  H20F11281   6.643   1.468  14.916  0.9099 -0.2050 -1.3069
   8423SM  H20G11282   6.543   1.586  15.007  0.7617  0.1463 -0.1930
   8423SM  C21F11283   6.756   1.639  15.007  0.5402 -0.1462 -0.0083
   8423SM  H21F11284   6.836   1.658  14.932  1.4766  0.7119  1.1748
   8423SM  H21G11285   6.779   1.560  15.082 -1.0659  0.4990  1.2005
   8423SM  C22F11286   6.730   1.767  15.088 -0.0298 -0.0747  0.2400
   8423SM  H22F11287   6.639   1.755  15.151 -0.6143  0.3285 -0.5180
   8423SM  H22G11288   6.713   1.852  15.019  1.7399  0.4774  0.4447
   8423SM  C23F11289   6.847   1.792  15.189  0.4165  0.0762  0.0569
   8423SM  H23F11290   6.939   1.832  15.142 -0.1325  0.6959 -0.5030
   8423SM  H23G11291   6.880   1.698  15.239  1.6855  0.6235  0.2830
   8423SM  H23H11292   6.813   1.862  15.267 -0.8382  1.1090 -1.3470
   8523SM     N11293   0.862   2.564  12.393 -0.4102  0.2432  0.0117
   8523SM   C1511294   0.863   2.419  12.340  0.4770 -0.0072  0.2398
   8523SM  H15A11295   0.768   2.397  12.293 -0.2942  1.9815  0.7880
   8523SM  H15B11296   0.879   2.342  12.415 -1.7208 -1.7453 -0.9193
   8523SM  H15C11297   0.940   2.402  12.266  1.3603 -0.9068  1.3343
   8523SM   C1411298   0.789   2.558  12.517 -0.3402 -0.0548  0.2439
   8523SM  H14A11299   0.831   2.493  12.593 -0.8415  0.2328  0.7700
   8523SM  H14B11300   0.692   2.516  12.495  0.0948  0.3940 -2.8723
   8523SM  H14C11301   0.781   2.660  12.551  0.5604  1.7087 -4.2333
   8523SM   C1311302   1.002   2.592  12.415  0.5490 -0.1863 -0.3165
   8523SM  H13A11303   1.057   2.590  12.321  3.1939  0.9963  1.0960
   8523SM  H13B11304   1.051   2.518  12.476 -0.8102  0.1845  1.2815
   8523SM  H13C11305   1.023   2.686  12.464  1.6329 -0.5190 -0.1037
   8523SM   C1211306   0.806   2.663  12.287 -0.0361  0.3277  0.5803
   8523SM  H12A11307   0.701   2.652  12.266  0.5117 -1.7421 -1.4644
   8523SM  H12B11308   0.861   2.652  12.194 -1.0728  0.3558 -0.0501
   8523SM   C1111309   0.825   2.814  12.330  0.7304 -0.0067  0.3350
   8523SM  H11A11310   0.811   2.868  12.233  2.6970  0.1702  0.0925
   8523SM  H11B11311   0.934   2.828  12.347  1.2249 -1.3889 -1.3663
   8523SM     P11312   0.595   2.908  12.394  0.0273  0.1746  0.2947
   8523SM   O1311313   0.604   3.016  12.291 -0.4796 -0.8669  0.5708
   8523SM   O1411314   0.519   2.788  12.351  0.2647  0.5816  0.3768
   8523SM   O1111315   0.535   2.958  12.536  0.0025 -0.5856 -0.0402
   8523SM   O1211316   0.738   2.859  12.427 -0.2104 -0.3978  0.0835
   8523SM   C1S11317   0.574   2.904  12.659  0.3414  0.3262  0.3048
   8523SM   H1S11318   0.685   2.901  12.666  0.2855  0.3687  1.4330
   8523SM   H1T11319   0.531   2.802  12.663 -2.3996  1.3992  0.2775
   8523SM    NF11320   0.586   2.916  12.909  0.2833 -0.4275  0.0950
   8523SM   HNF11321   0.532   2.857  12.968  1.9545  0.5965  2.8132
   8523SM   C2S11322   0.523   2.973  12.789  0.5306 -0.5420 -0.0216
   8523SM   H2S11323   0.553   3.079  12.779  0.9153 -0.6792 -0.3648
   8523SM   C3S11324   0.373   2.964  12.802 -0.4118 -0.2713  0.0611
   8523SM   H3S11325   0.345   2.856  12.800 -1.0468 -0.1178  0.4513
   8523SM    O311326   0.308   3.024  12.693 -0.0015 -0.1105 -0.0746
   8523SM   HO311327   0.377   3.060  12.637 -0.9259  0.0157 -1.1739
   8523SM   C4S11328   0.326   3.030  12.929 -0.4189 -0.0403 -0.1407
   8523SM   H4S11329   0.353   3.137  12.937 -0.2531  0.1062 -2.0867
   8523SM   C5S11330   0.258   2.975  13.029 -0.2163 -0.0969 -0.2557
   8523SM   H5S11331   0.228   2.869  13.028 -1.4417  0.2358 -0.9807
   8523SM   C6S11332   0.213   3.056  13.149 -0.0707  0.4887 -0.4393
   8523SM   H6S11333   0.102   3.069  13.150 -0.0662  1.2934  3.2917
   8523SM   H6T11334   0.257   3.157  13.142  0.8693  0.0933 -0.3275
   8523SM   C7S11335   0.260   2.988  13.278 -0.1116  0.9415 -0.0051
   8523SM   H7S11336   0.364   2.949  13.270 -0.4918 -0.0551 -0.2597
   8523SM   H7T11337   0.187   2.905  13.294 -0.5274  1.5152  1.1857
   8523SM   C8S11338   0.267   3.081  13.399 -0.1750 -0.4243  0.1126
   8523SM   H8S11339   0.170   3.131  13.419  0.7482  1.8231 -0.6506
   8523SM   H8T11340   0.344   3.159  13.381  0.7868 -1.3170  0.2079
   8523SM   C9S11341   0.322   3.008  13.521 -0.7891 -0.5371 -0.5269
   8523SM   H9S11342   0.428   2.979  13.500 -0.8011 -1.0914  0.1561
   8523SM   H9T11343   0.272   2.910  13.535 -1.6930 -0.1811 -1.1960
   8523SM  C10S11344   0.336   3.101  13.644  0.3019  0.4900  0.0172
   8523SM  H10S11345   0.238   3.138  13.682  0.2463 -1.3624  1.8396
   8523SM  H10T11346   0.398   3.188  13.614 -0.3957  1.0584  0.1777
   8523SM  C11S11347   0.394   3.031  13.771  0.0384  0.1639  0.2193
   8523SM  H11S11348   0.503   3.015  13.756 -0.3632 -3.1596  0.0711
   8523SM  H11T11349   0.345   2.933  13.787  0.1659  0.4801  3.1761
   8523SM  C12S11350   0.380   3.109  13.893 -0.0643 -0.3609 -0.5591
   8523SM  H12S11351   0.273   3.134  13.904  0.2079 -0.0665  1.9297
   8523SM  H12T11352   0.437   3.204  13.890  2.0957 -1.4037  2.3703
   8523SM  C13S11353   0.424   3.038  14.012 -0.3471 -0.0331 -0.4146
   8523SM  H13S11354   0.511   2.978  13.975 -0.1411  1.1793 -2.0101
   8523SM  H13T11355   0.346   2.965  14.042  1.1506 -1.3568  0.4630
   8523SM  C14S11356   0.456   3.122  14.128  0.3076 -0.1721  0.2777
   8523SM  H14S11357   0.528   3.198  14.091  0.1501  0.6612  1.6155
   8523SM  H14T11358   0.517   3.057  14.195  2.2964  0.6384 -0.6693
   8523SM  C15S11359   0.337   3.183  14.195 -0.0002 -0.3764 -0.4550
   8523SM  H15S11360   0.254   3.111  14.206 -0.3104 -0.1484 -1.2835
   8523SM  H15T11361   0.294   3.274  14.148  0.8387  0.4344  0.2890
   8523SM  C16S11362   0.371   3.233  14.342 -0.0325  1.1972  0.4734
   8523SM  H16S11363   0.313   3.327  14.352 -1.2009  0.3750  1.7378
   8523SM  H16T11364   0.481   3.245  14.337  0.0637  0.7996  1.4259
   8523SM  C17S11365   0.345   3.135  14.456  0.7390 -0.3691 -0.2378
   8523SM  H17S11366   0.396   3.037  14.443 -0.7893 -0.9720 -2.1547
   8523SM  H17T11367   0.238   3.110  14.444  1.0569 -1.1301 -1.7070
   8523SM  C18S11368   0.387   3.211  14.582 -0.0829 -0.0207  0.0342
   8523SM  H18S11369   0.494   3.203  14.611  0.1007  1.3202 -0.2024
   8523SM  H18T11370   0.339   3.163  14.670  0.7163  0.4087  0.7264
   8523SM  H18U11371   0.366   3.320  14.570  0.9440  0.0052 -1.8967
   8523SM   C1F11372   0.717   2.918  12.932 -1.1522  0.4991 -0.6595
   8523SM    OF11373   0.797   2.963  12.849 -0.3435 -0.3669 -0.2178
   8523SM   C2F11374   0.764   2.854  13.058  0.1719 -0.6595  0.0525
   8523SM   H2F11375   0.873   2.834  13.052  0.5973  1.7633 -1.2133
   8523SM   H2G11376   0.715   2.755  13.076 -1.3671  0.1460  0.4601
   8523SM   C3F11377   0.735   2.948  13.171  0.0029 -0.1365  0.2846
   8523SM   H3F11378   0.629   2.980  13.184  0.8147  1.9434  2.6213
   8523SM   H3G11379   0.784   3.047  13.157 -0.0211 -0.3399 -1.4008
   8523SM   C4F11380   0.761   2.865  13.298 -0.2990  0.6722 -0.4910
   8523SM   H4F11381   0.869   2.839  13.302 -0.0540  1.1823 -2.5478
   8523SM   H4G11382   0.715   2.764  13.284 -2.4131  1.8203 -2.7645
   8523SM   C5F11383   0.721   2.939  13.433  0.4168  0.2624  0.6389
   8523SM   H5F11384   0.699   2.858  13.505 -0.7811 -0.4460 -0.4696
   8523SM   H5G11385   0.620   2.981  13.417  0.4412 -0.2192 -1.0492
   8523SM   C6F11386   0.824   3.042  13.477  0.7130  0.1387 -0.1341
   8523SM   H6F11387   0.822   3.120  13.398 -3.9693 -1.0571 -1.4861
   8523SM   H6G11388   0.924   2.994  13.462 -1.0724 -3.8890 -0.3794
   8523SM   C7F11389   0.793   3.098  13.615  0.2871 -0.7412 -0.3098
   8523SM   H7F11390   0.684   3.119  13.620  0.6456  0.9700  1.3217
   8523SM   H7G11391   0.842   3.194  13.643 -1.0766 -0.5233  1.4886
   8523SM   C8F11392   0.849   2.994  13.721 -0.2217 -0.2635 -0.0757
   8523SM   H8F11393   0.959   3.006  13.710 -0.4056  1.4988 -0.1686
   8523SM   H8G11394   0.826   2.889  13.690  0.6398 -0.3754 -0.3717
   8523SM   C9F11395   0.818   3.013  13.871 -0.2579  0.7847  0.5851
   8523SM   H9F11396   0.748   2.932  13.902 -1.3787  1.0779 -1.0758
   8523SM   H9G11397   0.790   3.120  13.877 -0.5774  0.8618 -1.5317
   8523SM  C10F11398   0.939   2.987  13.964  0.5641  0.0186 -0.3008
   8523SM  H10F11399   1.021   3.057  13.936  1.6564 -0.9443  0.3810
   8523SM  H10G11400   0.969   2.880  13.957 -1.8576 -0.7862  0.6107
   8523SM  C11F11401   0.910   3.019  14.108 -0.2270 -0.1755 -0.1580
   8523SM  H11F11402   0.833   2.958  14.160  1.0680 -0.5802  1.3818
   8523SM  H11G11403   0.881   3.126  14.114 -1.1548 -0.2521 -2.1928
   8523SM  C12F11404   1.039   2.995  14.197  0.0719  0.6209 -0.0533
   8523SM  H12F11405   1.115   3.051  14.139  1.1712  1.1138  1.7854
   8523SM  H12G11406   1.076   2.891  14.184 -0.9673  0.2493 -0.1611
   8523SM  C13F11407   1.037   3.031  14.349  0.1478  0.1337 -0.4347
   8523SM  H13F11408   1.040   3.140  14.369 -2.2982 -0.0538  1.4707
   8523SM  H13G11409   1.133   2.986  14.382 -0.4004 -1.3814 -0.8448
   8523SM  C14F11410   0.928   2.971  14.447 -0.3855 -0.0812 -0.2330
   8523SM  H14F11411   0.920   2.864  14.418  2.6165 -0.1731 -1.0175
   8523SM  H14G11412   0.833   3.023  14.423  0.2612  2.0305  1.5304
   8523SM  C15F11413   0.966   2.986  14.596  0.2779  0.1733  0.0784
   8523SM  H15F11414   1.076   2.968  14.607  0.1790 -0.7512 -0.3348
   8523SM  H15G11415   0.921   2.900  14.651  0.4758 -0.6968 -1.0669
   8523SM  C16F11416   0.908   3.115  14.660 -0.2555 -0.1547 -0.4285
   8523SM  H16F11417   0.904   3.210  14.602  2.0250  0.2490 -0.0331
   8523SM  H16G11418   0.975   3.133  14.747  0.4373 -3.0195 -0.2581
   8523SM  C17F11419   0.761   3.083  14.710 -0.0225 -0.2279  0.6693
   8523SM  H17F11420   0.699   3.002  14.668 -2.4055 -0.3278  3.9641
   8523SM  H17G11421   0.707   3.171  14.669  2.4759  0.6660 -0.8916
   8523SM  C18F11422   0.752   3.089  14.863  0.6271  0.1401  0.1343
   8523SM  H18F11423   0.790   3.179  14.917  1.8845 -0.2361 -0.1010
   8523SM  H18G11424   0.815   3.010  14.908 -0.7885  0.3577  2.6873
   8523SM  C19F11425   0.611   3.056  14.917 -0.2986 -0.1916  0.3418
   8523SM  H19F11426   0.571   2.980  14.847  2.2287 -1.1181 -0.1923
   8523SM  H19G11427   0.548   3.147  14.901 -0.5577 -0.4567 -0.1678
   8523SM  C20F11428   0.606   3.010  15.062  0.3372 -0.4963  0.2270
   8523SM  H20F11429   0.685   3.059  15.123  0.5439 -1.0796  0.4338
   8523SM  H20G11430   0.621   2.900  15.058  1.8814 -0.2659 -1.3468
   8523SM  C21F11431   0.478   3.056  15.137  0.0589 -0.0133 -0.4321
   8523SM  H21F11432   0.426   3.140  15.087  1.4201  0.3791 -1.2163
   8523SM  H21G11433   0.504   3.093  15.238 -0.6875  0.1059 -0.2783
   8523SM  C22F11434   0.368   2.947  15.126  0.3945 -0.0246 -0.9109
   8523SM  H22F11435   0.350   2.913  15.022 -1.5199  0.9064 -0.9306
   8523SM  H22G11436   0.270   2.985  15.162  0.5769  3.1479 -3.3725
   8523SM  C23F11437   0.408   2.825  15.222  0.7117 -0.8875  0.2308
   8523SM  H23F11438   0.315   2.765  15.234  0.1627  0.0508  0.8755
   8523SM  H23G11439   0.437   2.868  15.321 -0.5825 -1.6269  0.9561
   8523SM  H23H11440   0.491   2.767  15.177  0.3243 -1.3306  0.0759
   8623SM     N11441   5.590   0.813  12.373 -0.4944 -0.0704  0.4335
   8623SM   C1511442   5.448   0.767  12.360  0.0612 -0.3234  0.4558
   8623SM  H15A11443   5.409   0.791  12.458 -0.0226  0.3993  0.2483
   8623SM  H15B11444   5.431   0.662  12.339  0.0166 -0.1460 -0.4389
   8623SM  H15C11445   5.390   0.818  12.284 -0.4345 -0.4329  0.7524
   8623SM   C1411446   5.665   0.747  12.481  0.9668  0.5334  0.1035
   8623SM  H14A11447   5.671   0.642  12.459 -2.5169  0.1462  0.5315
   8623SM  H14B11448   5.616   0.770  12.575 -0.8145  1.7347 -1.0624
   8623SM  H14C11449   5.767   0.784  12.483  1.2462  0.1061 -2.4899
   8623SM   C1311450   5.658   0.790  12.238  0.1084 -0.0426 -0.2298
   8623SM  H13A11451   5.703   0.692  12.231 -0.7497 -0.3850 -1.1446
   8623SM  H13B11452   5.754   0.839  12.243  0.2554 -0.4365  1.7398
   8623SM  H13C11453   5.595   0.817  12.155 -0.6386  0.8309  0.6052
   8623SM   C1211454   5.589   0.958  12.397 -0.6143  0.5143  0.2670
   8623SM  H12A11455   5.544   1.009  12.313 -1.3868 -2.3592 -1.1937
   8623SM  H12B11456   5.691   0.994  12.390 -0.7369  1.1666  1.5582
   8623SM   C1111457   5.532   1.011  12.531 -0.0496  0.0601  0.4998
   8623SM  H11A11458   5.538   1.122  12.519 -2.8068  0.3195  0.7032
   8623SM  H11B11459   5.596   0.985  12.618  1.0641 -0.6488 -0.5145
   8623SM     P11460   5.288   1.071  12.528  0.4405 -0.0649  0.0736
   8623SM   O1311461   5.304   1.140  12.406 -0.4870 -0.5604 -0.4075
   8623SM   O1411462   5.150   1.020  12.554  0.0756 -0.0792 -0.2290
   8623SM   O1111463   5.323   1.171  12.637  0.0433  0.0177 -0.4783
   8623SM   O1211464   5.397   0.966  12.549  0.3847 -0.1814 -0.0906
   8623SM   C1S11465   5.292   1.125  12.775  0.4320  0.1664  0.3134
   8623SM   H1S11466   5.371   1.054  12.806 -0.0487 -0.5283 -0.0109
   8623SM   H1T11467   5.193   1.073  12.782  0.1928  0.7569  1.4203
   8623SM    NF11468   5.217   1.174  13.013  0.4746  0.2751  0.0215
   8623SM   HNF11469   5.117   1.175  13.020  0.1338 -0.1132 -3.0957
   8623SM   C2S11470   5.274   1.233  12.886  0.1710 -0.0665  0.3848
   8623SM   H2S11471   5.367   1.294  12.894 -2.3220  4.2718 -0.3356
   8623SM   C3S11472   5.171   1.338  12.834  0.3397 -0.3089  0.0875
   8623SM   H3S11473   5.067   1.302  12.815  0.5166 -0.7549 -0.0510
   8623SM    O311474   5.205   1.385  12.709  0.2469 -0.0109  0.3687
   8623SM   HO311475   5.268   1.320  12.676  0.2383  0.3748 -0.4468
   8623SM   C4S11476   5.172   1.452  12.924 -0.1186  0.3059  0.4835
   8623SM   H4S11477   5.072   1.464  12.969  0.3523  2.3172  1.1009
   8623SM   C5S11478   5.268   1.537  12.939 -0.1905  0.0678 -0.0732
   8623SM   H5S11479   5.358   1.526  12.877 -0.1958 -2.3456  0.2700
   8623SM   C6S11480   5.269   1.649  13.034  0.4123 -0.5122 -0.5277
   8623SM   H6S11481   5.259   1.745  12.980 -1.4911 -0.8603 -0.8613
   8623SM   H6T11482   5.368   1.644  13.084  0.0206 -1.5120  0.1872
   8623SM   C7S11483   5.160   1.660  13.142 -0.3084 -0.5170  0.0298
   8623SM   H7S11484   5.125   1.567  13.192  1.7800 -1.0420  0.6453
   8623SM   H7T11485   5.069   1.708  13.100 -0.0379 -1.2967 -1.5480
   8623SM   C8S11486   5.209   1.755  13.257 -0.3451 -0.5222  0.3143
   8623SM   H8S11487   5.121   1.771  13.323 -0.0904 -0.8104  0.7315
   8623SM   H8T11488   5.248   1.855  13.231  2.1292 -0.6211  3.1037
   8623SM   C9S11489   5.306   1.674  13.346 -0.1118 -0.0756  0.7802
   8623SM   H9S11490   5.404   1.666  13.295 -0.2100  2.6620 -0.0289
   8623SM   H9T11491   5.265   1.571  13.350 -0.1388 -0.0510  1.2285
   8623SM  C10S11492   5.324   1.725  13.489  0.7067  0.1599  0.6797
   8623SM  H10S11493   5.229   1.725  13.546  0.5746  1.1361  0.4751
   8623SM  H10T11494   5.360   1.830  13.483  1.0452 -0.0353 -2.0919
   8623SM  C11S11495   5.431   1.646  13.569  0.2700 -0.1841 -0.2254
   8623SM  H11S11496   5.524   1.659  13.509 -0.7130  0.6866 -1.5966
   8623SM  H11T11497   5.396   1.541  13.567 -0.2067 -0.0418  0.3832
   8623SM  C12S11498   5.455   1.698  13.707  0.7808 -0.1181 -0.3269
   8623SM  H12S11499   5.369   1.706  13.777 -0.9814 -0.6381 -2.3199
   8623SM  H12T11500   5.480   1.806  13.698  0.3531 -0.0481 -0.7257
   8623SM  C13S11501   5.578   1.640  13.775  0.0482 -0.1021  0.1221
   8623SM  H13S11502   5.633   1.718  13.833 -1.9869  0.3778  1.5453
   8623SM  H13T11503   5.650   1.604  13.699 -0.8550 -0.9380 -0.3627
   8623SM  C14S11504   5.550   1.510  13.865 -0.0841  0.0853 -0.1067
   8623SM  H14S11505   5.535   1.424  13.797  1.2684 -0.3200  0.0683
   8623SM  H14T11506   5.463   1.527  13.932  1.0638 -0.0992  1.5009
   8623SM  C15S11507   5.677   1.484  13.951  0.8682 -0.1039 -0.4044
   8623SM  H15S11508   5.708   1.564  14.022  1.1142 -1.8720  1.5779
   8623SM  H15T11509   5.758   1.477  13.875  0.5108  1.7067 -0.9800
   8623SM  C16S11510   5.691   1.349  14.027  0.1254 -0.1257 -0.3971
   8623SM  H16S11511   5.792   1.349  14.074 -0.1862  1.9131  0.3644
   8623SM  H16T11512   5.689   1.263  13.956  1.3212 -0.2252 -0.3391
   8623SM  C17S11513   5.580   1.340  14.133 -1.2189  0.2141 -0.6808
   8623SM  H17S11514   5.596   1.254  14.201 -1.6168  0.6541 -0.0176
   8623SM  H17T11515   5.486   1.333  14.074 -0.8925  1.5963 -1.4198
   8623SM  C18S11516   5.564   1.461  14.224  0.3781  0.9245 -0.2798
   8623SM  H18S11517   5.499   1.438  14.311  3.7185 -0.0128  2.1942
   8623SM  H18T11518   5.512   1.546  14.176 -1.4244  1.0630  1.7836
   8623SM  H18U11519   5.658   1.494  14.274  0.1885 -1.9497  2.2819
   8623SM   C1F11520   5.286   1.094  13.093  0.4265  0.3255  0.0136
   8623SM    OF11521   5.391   1.054  13.052 -0.5692  0.1002 -0.0751
   8623SM   C2F11522   5.217   1.062  13.226 -0.2653  0.0841 -0.0922
   8623SM   H2F11523   5.160   0.967  13.225 -0.3713  0.1261  0.9169
   8623SM   H2G11524   5.151   1.145  13.261 -0.2694 -0.1667  0.5027
   8623SM   C3F11525   5.321   1.029  13.335  0.4469  0.0839  0.1776
   8623SM   H3F11526   5.395   1.110  13.353  2.3647 -0.9129 -2.6055
   8623SM   H3G11527   5.390   0.945  13.312  1.8121  0.3359  2.9352
   8623SM   C4F11528   5.253   0.988  13.462  0.7502 -0.7565  1.0595
   8623SM   H4F11529   5.294   0.890  13.493  0.5016 -0.8062  1.2354
   8623SM   H4G11530   5.146   0.965  13.445  0.9952 -0.5085 -1.0121
   8623SM   C5F11531   5.278   1.089  13.576  0.0080  0.8701 -0.6791
   8623SM   H5F11532   5.384   1.121  13.590 -0.4053  1.4629  1.5212
   8623SM   H5G11533   5.250   1.034  13.669  0.1553  1.6028 -0.1870
   8623SM   C6F11534   5.189   1.217  13.574  0.3484  0.1501 -0.1149
   8623SM   H6F11535   5.082   1.203  13.547  0.9057 -0.7445 -2.0471
   8623SM   H6G11536   5.225   1.288  13.496  0.8283  0.8177  0.6955
   8623SM   C7F11537   5.190   1.297  13.711 -0.5997  0.2398 -0.0260
   8623SM   H7F11538   5.299   1.316  13.721  0.1672 -2.1088 -2.7044
   8623SM   H7G11539   5.175   1.232  13.799 -1.9295  1.2957  0.5601
   8623SM   C8F11540   5.105   1.421  13.718 -0.3834 -0.2871 -0.7957
   8623SM   H8F11541   4.997   1.398  13.705 -0.7469  1.3776 -0.8783
   8623SM   H8G11542   5.122   1.475  13.623 -2.8600  0.3448 -0.9471
   8623SM   C9F11543   5.118   1.505  13.845  0.3601 -0.6629 -0.6646
   8623SM   H9F11544   5.043   1.586  13.836  0.3359 -0.6880 -0.6921
   8623SM   H9G11545   5.218   1.550  13.861  0.2508 -0.3154 -0.9510
   8623SM  C10F11546   5.073   1.417  13.964  0.0613 -0.1496 -0.9834
   8623SM  H10F11547   5.119   1.316  13.973 -0.8595 -0.4801  0.3051
   8623SM  H10G11548   4.970   1.382  13.944 -0.2008  0.0421 -0.0543
   8623SM  C11F11549   5.083   1.484  14.103  0.6433 -0.4693 -0.8422
   8623SM  H11F11550   5.047   1.588  14.095  2.9339  0.4256 -0.3815
   8623SM  H11G11551   5.193   1.493  14.118  0.7139  0.0042 -1.5838
   8623SM  C12F11552   5.022   1.393  14.210 -0.1354 -0.2039 -0.1035
   8623SM  H12F11553   5.081   1.300  14.205  0.0374 -0.2180  1.6977
   8623SM  H12G11554   4.915   1.367  14.198 -0.8156  0.9888  2.5844
   8623SM  C13F11555   5.046   1.466  14.345 -0.3722 -0.6236 -0.0809
   8623SM  H13F11556   5.007   1.569  14.333  1.4280  0.2405  1.0446
   8623SM  H13G11557   5.156   1.475  14.361 -0.4317 -1.0194  0.6044
   8623SM  C14F11558   4.980   1.404  14.461  0.3976  0.2609 -0.5634
   8623SM  H14F11559   4.998   1.294  14.464  0.8017  0.2838 -1.7868
   8623SM  H14G11560   4.871   1.393  14.440  0.5608  0.0272 -1.3272
   8623SM  C15F11561   4.985   1.483  14.592 -0.1671  0.7712  1.1137
   8623SM  H15F11562   4.936   1.579  14.563 -0.1447 -0.1700 -2.6626
   8623SM  H15G11563   5.089   1.498  14.627  0.7693 -2.9470  0.3588
   8623SM  C16F11564   4.903   1.410  14.702  0.1936 -0.2309  0.0183
   8623SM  H16F11565   4.932   1.305  14.721  2.3002  0.2742 -0.0589
   8623SM  H16G11566   4.802   1.421  14.658 -0.7789 -1.9411  1.6695
   8623SM  C17F11567   4.916   1.487  14.833  0.1019 -0.2437  1.1268
   8623SM  H17F11568   4.866   1.586  14.821  1.2326  0.0628 -1.9950
   8623SM  H17G11569   5.022   1.514  14.847 -0.3769  0.9365  2.6969
   8623SM  C18F11570   4.864   1.390  14.952  0.3411 -0.3034 -0.3863
   8623SM  H18F11571   4.910   1.424  15.047  0.0454  1.6522 -0.8874
   8623SM  H18G11572   4.901   1.286  14.942  1.8450 -0.0712  1.8930
   8623SM  C19F11573   4.717   1.385  14.953  0.4481 -0.1693 -0.5778
   8623SM  H19F11574   4.691   1.349  14.851  0.6953 -1.9466 -0.0516
   8623SM  H19G11575   4.669   1.484  14.967 -0.0276 -0.4360 -0.2829
   8623SM  C20F11576   4.648   1.284  15.045 -0.2587 -0.5938 -0.4120
   8623SM  H20F11577   4.675   1.327  15.144  0.1264 -2.2290  0.2171
   8623SM  H20G11578   4.699   1.186  15.031  0.4249 -0.3179  0.1085
   8623SM  C21F11579   4.499   1.265  15.032 -0.7258  0.2218 -0.1246
   8623SM  H21F11580   4.484   1.193  14.948 -1.2853  2.3300 -1.9535
   8623SM  H21G11581   4.445   1.360  15.008  1.3341  1.1707 -1.2608
   8623SM  C22F11582   4.443   1.214  15.159 -0.3418 -0.1702  0.3329
   8623SM  H22F11583   4.333   1.207  15.139 -0.2134  2.3478 -1.7333
   8623SM  H22G11584   4.445   1.297  15.232 -1.4005 -0.1638  0.3780
   8623SM  C23F11585   4.505   1.093  15.223 -0.1155 -0.1976 -0.2431
   8623SM  H23F11586   4.440   1.059  15.307  0.7327  2.1671  1.4887
   8623SM  H23G11587   4.604   1.121  15.263 -0.7687  2.1707 -0.1103
   8623SM  H23H11588   4.525   1.010  15.152 -1.5282 -0.3384 -0.5076
   8723SM     N11589   5.642   1.710  12.407 -0.1183  0.3340  0.4824
   8723SM   C1511590   5.505   1.733  12.361  0.4304 -0.1386  0.7436
   8723SM  H15A11591   5.506   1.761  12.257  4.0017  0.8129  0.8912
   8723SM  H15B11592   5.459   1.820  12.405  0.2006 -0.0261  0.2840
   8723SM  H15C11593   5.441   1.646  12.363 -0.7554  0.5976 -1.9531
   8723SM   C1411594   5.714   1.623  12.310 -0.0971 -1.2400 -0.1472
   8723SM  H14A11595   5.736   1.676  12.219 -0.7986 -0.8601 -0.1013
   8723SM  H14B11596   5.661   1.534  12.277  0.6176 -1.3716 -0.9694
   8723SM  H14C11597   5.809   1.591  12.348  0.2503  0.7325  0.7696
   8723SM   C1311598   5.691   1.849  12.410 -0.3335  0.0831 -0.8545
   8723SM  H13A11599   5.692   1.880  12.306  0.3190 -0.8531 -1.1408
   8723SM  H13B11600   5.791   1.856  12.450 -0.1687 -1.7131 -0.8780
   8723SM  H13C11601   5.622   1.901  12.474  0.1849 -2.1107  1.6426
   8723SM   C1211602   5.647   1.657  12.555 -0.3256  0.3364  0.6158
   8723SM  H12A11603   5.606   1.736  12.617  2.1335  2.0427  0.2432
   8723SM  H12B11604   5.751   1.657  12.586  0.5780 -0.5721 -2.1718
   8723SM   C1111605   5.575   1.529  12.596 -1.2086  0.4975 -0.4498
   8723SM  H11A11606   5.468   1.547  12.572 -1.3012  2.1255  1.0125
   8723SM  H11B11607   5.575   1.516  12.706  0.6287 -1.9672 -0.6563
   8723SM     P11608   5.758   1.353  12.568  0.0285 -0.0821 -0.3168
   8723SM   O1311609   5.768   1.224  12.502  0.7277  0.0989 -0.0693
   8723SM   O1411610   5.863   1.450  12.534  0.4549 -0.2733 -0.2544
   8723SM   O1111611   5.768   1.333  12.726  0.6369  0.0199 -0.5620
   8723SM   O1211612   5.623   1.421  12.522 -0.6394  0.2509 -0.2003
   8723SM   C1S11613   5.693   1.228  12.791  0.3620  0.2920 -0.4203
   8723SM   H1S11614   5.724   1.126  12.757  0.6893 -0.5558  2.1974
   8723SM   H1T11615   5.584   1.248  12.779  0.4798  0.9289 -0.4192
   8723SM    NF11616   5.662   1.099  12.998 -0.2971  0.2465  0.3233
   8723SM   HNF11617   5.567   1.089  13.027 -0.5233  0.8239 -0.2088
   8723SM   C2S11618   5.712   1.228  12.949 -0.4289  0.1931  0.0057
   8723SM   H2S11619   5.821   1.233  12.968 -0.4610  0.2430  0.1798
   8723SM   C3S11620   5.643   1.354  13.007 -0.7438 -0.2504  0.3644
   8723SM   H3S11621   5.538   1.345  12.974 -0.8103  1.4280 -0.0027
   8723SM    O311622   5.694   1.474  12.941  0.2141  0.4148  0.4701
   8723SM   HO311623   5.710   1.448  12.850 -1.2873  1.6947 -0.2173
   8723SM   C4S11624   5.666   1.350  13.154  0.8756  0.3538 -0.2872
   8723SM   H4S11625   5.764   1.309  13.184  1.9574  2.5746 -0.5617
   8723SM   C5S11626   5.578   1.386  13.248 -0.4442  0.6063 -0.5236
   8723SM   H5S11627   5.485   1.437  13.217  0.5116  1.2055 -2.5084
   8723SM   C6S11628   5.600   1.372  13.395 -0.1457  0.3056  0.6368
   8723SM   H6S11629   5.505   1.332  13.438  0.2972 -0.7370  0.6805
   8723SM   H6T11630   5.600   1.472  13.444  1.1894  0.9648 -0.6674
   8723SM   C7S11631   5.715   1.280  13.446  0.0092 -0.1507 -0.2383
   8723SM   H7S11632   5.809   1.315  13.399 -0.6128  1.1173 -0.5968
   8723SM   H7T11633   5.696   1.175  13.416 -2.2085 -0.3153  1.4439
   8723SM   C8S11634   5.730   1.288  13.602 -0.4945 -0.2260 -1.1075
   8723SM   H8S11635   5.640   1.244  13.652 -0.5527  0.6103 -0.4610
   8723SM   H8T11636   5.738   1.392  13.639 -1.7349 -0.9052  1.3186
   8723SM   C9S11637   5.863   1.223  13.659  0.2287 -0.1175  0.9695
   8723SM   H9S11638   5.870   1.125  13.608  1.3478 -0.7286  2.2451
   8723SM   H9T11639   5.856   1.199  13.767 -4.1350 -2.0857  0.4589
   8723SM  C10S11640   5.977   1.322  13.621  0.0513  0.0873 -0.5339
   8723SM  H10S11641   5.968   1.405  13.694 -1.6719 -1.5807  1.2741
   8723SM  H10T11642   5.969   1.355  13.516  1.7203 -0.9981 -1.0454
   8723SM  C11S11643   6.117   1.264  13.662 -0.4110 -1.2917  0.4567
   8723SM  H11S11644   6.190   1.347  13.646 -1.2848 -0.8384 -1.4104
   8723SM  H11T11645   6.140   1.193  13.580  1.6284 -1.0318  0.7635
   8723SM  C12S11646   6.140   1.209  13.807  0.7037 -0.3601 -1.0384
   8723SM  H12S11647   6.233   1.148  13.815  0.4027 -0.7835 -0.7524
   8723SM  H12T11648   6.055   1.146  13.840  0.3040  0.8161  0.3040
   8723SM  C13S11649   6.158   1.329  13.905 -0.2568  0.4509 -0.1475
   8723SM  H13S11650   6.060   1.379  13.914 -1.5579 -1.9306 -0.1612
   8723SM  H13T11651   6.243   1.396  13.879 -1.1507  1.8575  0.4551
   8723SM  C14S11652   6.178   1.267  14.042 -0.2110  0.3982 -0.3825
   8723SM  H14S11653   6.096   1.193  14.057 -0.8034  0.9486 -0.8648
   8723SM  H14T11654   6.153   1.336  14.126  1.5993 -0.4118  0.9131
   8723SM  C15S11655   6.318   1.206  14.079 -0.3784 -0.0859  0.7494
   8723SM  H15S11656   6.386   1.294  14.083 -2.8525  2.2914 -3.1711
   8723SM  H15T11657   6.359   1.136  14.003  0.3908 -0.8332  1.8310
   8723SM  C16S11658   6.317   1.140  14.221  0.1406  0.3727  0.2505
   8723SM  H16S11659   6.421   1.126  14.257  0.3167  1.2067  0.1006
   8723SM  H16T11660   6.274   1.038  14.219 -0.2311  0.4404  2.4425
   8723SM  C17S11661   6.250   1.236  14.329 -0.1423  0.3957 -0.4033
   8723SM  H17S11662   6.140   1.242  14.314 -0.2466  1.0367  0.5460
   8723SM  H17T11663   6.283   1.342  14.321 -1.7036  1.2207  2.5216
   8723SM  C18S11664   6.276   1.192  14.473 -0.1395  0.1494  0.6835
   8723SM  H18S11665   6.206   1.240  14.544  0.0450  0.3881  0.7020
   8723SM  H18T11666   6.383   1.217  14.488  0.6175  0.8412 -4.1522
   8723SM  H18U11667   6.272   1.081  14.472  2.1288 -0.0222 -1.4322
   8723SM   C1F11668   5.733   0.985  12.973 -0.1997 -0.0858 -0.1794
   8723SM    OF11669   5.843   0.989  12.919  0.1554  0.1025 -0.0307
   8723SM   C2F11670   5.651   0.864  13.001 -0.2258  0.1966  0.1978
   8723SM   H2F11671   5.615   0.820  12.906  0.3735 -0.9869  0.4952
   8723SM   H2G11672   5.556   0.882  13.055  0.8340 -1.6489  2.9212
   8723SM   C3F11673   5.724   0.748  13.074  0.0188 -0.6818  0.3714
   8723SM   H3F11674   5.808   0.710  13.012 -0.4518 -1.4987  0.2310
   8723SM   H3G11675   5.649   0.666  13.082 -1.4309  0.3157 -2.0458
   8723SM   C4F11676   5.787   0.786  13.215  0.0652  0.0820  0.6633
   8723SM   H4F11677   5.866   0.863  13.208 -1.4451  1.6328  0.1240
   8723SM   H4G11678   5.809   0.687  13.260  0.1028 -0.6757 -0.9353
   8723SM   C5F11679   5.690   0.848  13.318  0.3066  0.2179 -0.2876
   8723SM   H5F11680   5.590   0.799  13.313  1.1167 -1.5954  0.4594
   8723SM   H5G11681   5.673   0.955  13.293 -1.7957 -0.2025 -0.9434
   8723SM   C6F11682   5.754   0.849  13.458  0.6585 -0.8833 -0.9392
   8723SM   H6F11683   5.853   0.898  13.450  0.1719  0.7951  2.0350
   8723SM   H6G11684   5.777   0.743  13.485  0.3302 -0.6310  0.3992
   8723SM   C7F11685   5.662   0.908  13.571  0.3075  0.6167  0.3334
   8723SM   H7F11686   5.570   0.849  13.553  0.4089  0.4823  0.2566
   8723SM   H7G11687   5.635   1.015  13.554  1.0147  1.1484  2.2590
   8723SM   C8F11688   5.722   0.904  13.708  0.0613 -0.8513  0.1537
   8723SM   H8F11689   5.818   0.958  13.713 -0.3791 -0.0890  0.5085
   8723SM   H8G11690   5.732   0.795  13.731 -1.3553 -1.0490 -0.0744
   8723SM   C9F11691   5.629   0.964  13.817  0.0751 -0.7503 -0.4118
   8723SM   H9F11692   5.598   1.067  13.791 -0.6244 -1.0897 -0.9533
   8723SM   H9G11693   5.691   0.974  13.909  0.5196 -1.5448 -0.6106
   8723SM  C10F11694   5.502   0.883  13.849  0.5794 -0.3015  0.2295
   8723SM  H10F11695   5.531   0.793  13.909  1.4852 -0.1833 -0.0122
   8723SM  H10G11696   5.458   0.853  13.751  0.4146 -0.8702  0.4690
   8723SM  C11F11697   5.403   0.955  13.943 -0.0956  0.1530  0.2343
   8723SM  H11F11698   5.300   0.920  13.922  0.0677 -1.5608  2.0202
   8723SM  H11G11699   5.406   1.065  13.924 -1.9287  0.4906  1.6137
   8723SM  C12F11700   5.425   0.920  14.085 -0.5849  0.2740 -0.0555
   8723SM  H12F11701   5.532   0.936  14.113 -0.8343  0.1496  1.0039
   8723SM  H12G11702   5.417   0.809  14.085 -0.3612  0.2518 -0.5883
   8723SM  C13F11703   5.344   0.984  14.196  0.2584  0.0959  0.8892
   8723SM  H13F11704   5.238   0.953  14.191 -0.4154  2.4585 -0.4304
   8723SM  H13G11705   5.336   1.094  14.191  1.2605  0.1668  0.5860
   8723SM  C14F11706   5.399   0.940  14.338  0.6316  0.0222  0.0693
   8723SM  H14F11707   5.508   0.956  14.343  0.9328 -1.9490  0.9435
   8723SM  H14G11708   5.382   0.831  14.353 -1.1352  0.6872  4.3543
   8723SM  C15F11709   5.325   1.001  14.456  0.4296  0.2131  0.1956
   8723SM  H15F11710   5.355   0.944  14.546 -2.7339  0.4259  1.5295
   8723SM  H15G11711   5.217   0.976  14.452  0.7204 -1.5202  1.9293
   8723SM  C16F11712   5.341   1.152  14.478 -0.1744 -0.3381  0.5384
   8723SM  H16F11713   5.271   1.193  14.401  0.3567 -0.6603 -0.1290
   8723SM  H16G11714   5.442   1.192  14.455 -0.9569  1.3597 -0.1162
   8723SM  C17F11715   5.303   1.201  14.618  0.7749  0.0701 -0.4198
   8723SM  H17F11716   5.352   1.133  14.691 -2.3793 -0.0812  1.7422
   8723SM  H17G11717   5.195   1.182  14.637  0.7204  0.7555 -0.0106
   8723SM  C18F11718   5.344   1.349  14.651 -0.2596 -0.4066 -0.1025
   8723SM  H18F11719   5.296   1.411  14.573 -0.5687  0.5345  0.8107
   8723SM  H18G11720   5.453   1.362  14.629 -0.5820 -0.0948 -1.6489
   8723SM  C19F11721   5.300   1.392  14.792 -0.2035  0.3280  0.0414
   8723SM  H19F11722   5.370   1.339  14.860  2.5227  2.1001 -1.2293
   8723SM  H19G11723   5.199   1.348  14.811  0.4359 -1.8177 -1.2031
   8723SM  C20F11724   5.311   1.551  14.819 -0.2881  0.4248 -0.2661
   8723SM  H20F11725   5.241   1.596  14.745  1.7928  0.1348 -2.5593
   8723SM  H20G11726   5.419   1.576  14.805  0.2277 -1.3436  0.2681
   8723SM  C21F11727   5.272   1.584  14.961  0.1282  0.2381  0.3225
   8723SM  H21F11728   5.350   1.563  15.037 -1.1424  1.2701  1.9616
   8723SM  H21G11729   5.190   1.512  14.982 -0.3194 -0.6592 -3.5898
   8723SM  C22F11730   5.215   1.726  14.998  0.0066  0.0201  0.1779
   8723SM  H22F11731   5.123   1.743  14.937  1.1572  2.3880 -1.0256
   8723SM  H22G11732   5.287   1.801  14.960  0.5485 -0.3036  0.5557
   8723SM  C23F11733   5.198   1.739  15.147 -0.0819  0.4597  0.8174
   8723SM  H23F11734   5.292   1.728  15.206  1.7233  1.6444 -1.6658
   8723SM  H23G11735   5.133   1.657  15.185  1.6937 -0.3464  2.2910
   8723SM  H23H11736   5.169   1.843  15.173  1.1929  1.3473 -1.0753
   8823SM     N11737   3.649   1.123  12.290 -0.5123 -0.1144 -0.2493
   8823SM   C1511738   3.521   1.195  12.311 -0.6568  0.7311  0.1183
   8823SM  H15A11739   3.520   1.271  12.388  0.6312  0.8264  0.0587
   8823SM  H15B11740   3.450   1.118  12.335  0.4562 -0.5746 -0.6075
   8823SM  H15C11741   3.491   1.240  12.217 -0.0214 -1.1890 -1.0668
   8823SM   C1411742   3.624   1.007  12.203  0.3427  0.1714  0.3787
   8823SM  H14A11743   3.607   1.036  12.100  1.0528  1.3588  0.5756
   8823SM  H14B11744   3.553   0.936  12.242 -0.2031  0.0559 -0.7861
   8823SM  H14C11745   3.723   0.964  12.197  0.9842  1.7688 -1.7120
   8823SM   C1311746   3.741   1.215  12.217  0.7387  0.0486 -0.3195
   8823SM  H13A11747   3.780   1.282  12.292  0.6374  1.6210 -1.6161
   8823SM  H13B11748   3.693   1.283  12.148  1.9854  1.1194 -0.1709
   8823SM  H13C11749   3.816   1.161  12.162 -0.3693 -1.4651 -0.4084
   8823SM   C1211750   3.707   1.066  12.416 -0.0194  0.4419 -0.1603
   8823SM  H12A11751   3.800   1.014  12.399 -0.3089 -0.0602 -0.2232
   8823SM  H12B11752   3.643   0.993  12.462  0.6322  0.1192  0.2529
   8823SM   C1111753   3.735   1.165  12.534  0.5697  0.7858 -0.6464
   8823SM  H11A11754   3.749   1.090  12.614 -1.6224 -0.7500 -1.6008
   8823SM  H11B11755   3.646   1.226  12.560  0.3843  1.0218 -1.7649
   8823SM     P11756   3.986   1.189  12.538 -0.1105 -0.0118  0.1854
   8823SM   O1311757   3.992   1.053  12.476 -0.2705 -0.1989 -0.8053
   8823SM   O1411758   4.090   1.292  12.514  0.0413 -0.0198 -0.2096
   8823SM   O1111759   3.972   1.166  12.693 -0.0954  0.0942 -0.1748
   8823SM   O1211760   3.843   1.256  12.503 -0.4133  0.0478  0.0318
   8823SM   C1S11761   3.930   1.272  12.784  0.4260  0.1105 -0.2552
   8823SM   H1S11762   3.821   1.293  12.782  0.1762 -1.1063 -2.7718
   8823SM   H1T11763   3.974   1.371  12.759 -1.4857  1.0986  0.0535
   8823SM    NF11764   3.940   1.361  13.015 -0.0214 -1.3253  0.1709
   8823SM   HNF11765   4.009   1.419  13.058 -2.2383  1.4311  0.3713
   8823SM   C2S11766   3.980   1.254  12.930  0.4476 -0.3472  0.0894
   8823SM   H2S11767   3.930   1.164  12.972  2.0607 -1.4999 -0.3459
   8823SM   C3S11768   4.134   1.233  12.930  0.0196  0.1385  0.1630
   8823SM   H3S11769   4.187   1.329  12.911  0.9623 -0.2386  0.8100
   8823SM    O311770   4.188   1.148  12.825 -0.8785 -0.2528  0.0262
   8823SM   HO311771   4.110   1.125  12.775 -0.0992  0.1140 -1.4188
   8823SM   C4S11772   4.175   1.181  13.065  0.8792  0.2518 -0.1089
   8823SM   H4S11773   4.139   1.078  13.079  1.6833 -0.1059 -0.5990
   8823SM   C5S11774   4.256   1.246  13.148  0.3621 -0.2247  0.6432
   8823SM   H5S11775   4.290   1.343  13.110  0.0904 -0.1827  0.4996
   8823SM   C6S11776   4.297   1.207  13.287  0.4662 -0.3124 -0.4830
   8823SM   H6S11777   4.401   1.241  13.303 -0.1226  2.4161 -1.8257
   8823SM   H6T11778   4.311   1.098  13.304  4.2544  0.2499  0.9834
   8823SM   C7S11779   4.199   1.264  13.390 -0.6657  0.4721 -0.0934
   8823SM   H7S11780   4.103   1.208  13.380  1.0696 -2.6776 -0.5326
   8823SM   H7T11781   4.185   1.374  13.383  1.4982  0.8844  1.0131
   8823SM   C8S11782   4.256   1.237  13.535 -1.0222  0.3627  0.2658
   8823SM   H8S11783   4.364   1.262  13.529 -1.0609  0.6124  0.5927
   8823SM   H8T11784   4.248   1.127  13.548 -1.2172  0.3200 -0.1970
   8823SM   C9S11785   4.173   1.309  13.643  0.2738 -0.8957  0.1136
   8823SM   H9S11786   4.065   1.290  13.624  0.0015  0.0641  0.6696
   8823SM   H9T11787   4.197   1.417  13.633 -0.8228 -0.6305  0.2518
   8823SM  C10S11788   4.207   1.255  13.785  0.1244  0.1140 -0.3772
   8823SM  H10S11789   4.314   1.280  13.798 -0.1679  0.4895  1.6019
   8823SM  H10T11790   4.185   1.146  13.792 -0.0105  0.1246 -0.6331
   8823SM  C11S11791   4.123   1.340  13.888 -0.6419  0.3757  0.3089
   8823SM  H11S11792   4.017   1.308  13.880 -0.2238 -0.7081 -1.3980
   8823SM  H11T11793   4.128   1.448  13.862 -2.0539  0.3062 -0.3614
   8823SM  C12S11794   4.169   1.309  14.028  0.3933  0.0604  0.0963
   8823SM  H12S11795   4.167   1.198  14.036  1.9271 -0.0230 -0.4368
   8823SM  H12T11796   4.093   1.335  14.105  2.4773  2.6143  1.4584
   8823SM  C13S11797   4.309   1.354  14.070 -0.2696 -0.5037 -0.3270
   8823SM  H13S11798   4.302   1.462  14.048 -0.3383 -0.4094  0.1424
   8823SM  H13T11799   4.391   1.305  14.013  0.7631  1.2776 -0.4384
   8823SM  C14S11800   4.345   1.324  14.213  0.4992  0.5887 -0.2675
   8823SM  H14S11801   4.357   1.214  14.228  1.7177  0.4772 -1.8435
   8823SM  H14T11802   4.265   1.355  14.284 -0.5092  0.9630 -1.5185
   8823SM  C15S11803   4.477   1.389  14.263 -0.2729 -0.1776  0.1308
   8823SM  H15S11804   4.487   1.488  14.213  1.8554  0.1809  1.1467
   8823SM  H15T11805   4.560   1.325  14.226 -0.2905 -0.4293  0.5160
   8823SM  C16S11806   4.494   1.389  14.415  0.0792 -0.3503  0.2938
   8823SM  H16S11807   4.428   1.464  14.464  0.0817  0.5618 -1.0466
   8823SM  H16T11808   4.599   1.397  14.451 -0.0956  1.0501  0.5390
   8823SM  C17S11809   4.445   1.256  14.466  0.2247  0.5841  0.2551
   8823SM  H17S11810   4.494   1.174  14.409 -1.7996 -0.1862 -0.4695
   8823SM  H17T11811   4.334   1.243  14.458  0.5330 -1.1240 -3.4529
   8823SM  C18S11812   4.469   1.236  14.612 -0.1935  1.1438 -0.4179
   8823SM  H18S11813   4.432   1.311  14.684  0.2027  2.5324 -1.6064
   8823SM  H18T11814   4.580   1.223  14.606 -0.4429 -3.5909  0.7892
   8823SM  H18U11815   4.437   1.135  14.645  1.0116  0.3735 -1.4798
   8823SM   C1F11816   3.812   1.389  13.029  0.1406 -0.1926 -0.4090
   8823SM    OF11817   3.725   1.302  13.010 -0.4481 -0.2172 -0.5288
   8823SM   C2F11818   3.770   1.525  13.072  0.1164 -0.3451 -0.3065
   8823SM   H2F11819   3.659   1.534  13.062  0.0411  0.5983  1.1174
   8823SM   H2G11820   3.823   1.606  13.018  1.3403 -1.4043 -0.7495
   8823SM   C3F11821   3.797   1.543  13.228  0.3417  0.3048 -0.2320
   8823SM   H3F11822   3.899   1.508  13.253  0.8852  0.8245 -1.5956
   8823SM   H3G11823   3.723   1.477  13.278 -0.6275  1.9832  0.6415
   8823SM   C4F11824   3.790   1.691  13.265  0.8168  0.5604 -0.7977
   8823SM   H4F11825   3.694   1.743  13.245 -2.1981 -3.8685  0.7646
   8823SM   H4G11826   3.871   1.733  13.200  0.4143  0.5474 -1.3125
   8823SM   C5F11827   3.847   1.718  13.406 -0.1010 -0.0134  0.2341
   8823SM   H5F11828   3.825   1.827  13.415  0.4289  0.0302  1.1959
   8823SM   H5G11829   3.957   1.699  13.408 -0.4192 -2.0101  1.7125
   8823SM   C6F11830   3.780   1.644  13.527  0.2918 -0.0634  0.4809
   8823SM   H6F11831   3.803   1.536  13.514  0.1914  0.2168 -2.9779
   8823SM   H6G11832   3.672   1.668  13.521  0.1509 -1.0474 -1.9275
   8823SM   C7F11833   3.827   1.678  13.662  0.5627 -0.5317  0.3382
   8823SM   H7F11834   3.809   1.786  13.681 -1.1083 -0.8671  0.8240
   8823SM   H7G11835   3.935   1.654  13.666  0.6985 -0.9447 -3.0624
   8823SM   C8F11836   3.753   1.590  13.765  0.7237  0.1344  0.5120
   8823SM   H8F11837   3.768   1.484  13.734  1.2697  1.0986 -2.9348
   8823SM   H8G11838   3.646   1.617  13.769 -0.0592 -2.4681 -0.8259
   8823SM   C9F11839   3.819   1.614  13.902 -0.4529 -0.0974 -0.5735
   8823SM   H9F11840   3.845   1.720  13.923 -0.8638 -0.5334  2.7664
   8823SM   H9G11841   3.916   1.560  13.913  1.1914  2.8064  0.0555
   8823SM  C10F11842   3.732   1.573  14.019 -0.1589 -0.7479  0.2025
   8823SM  H10F11843   3.728   1.463  14.034  1.6849 -0.7425  0.9991
   8823SM  H10G11844   3.627   1.606  14.006 -1.1841 -3.0317  1.9278
   8823SM  C11F11845   3.788   1.627  14.152  0.9572  0.9778  0.0348
   8823SM  H11F11846   3.807   1.737  14.154  0.1470  1.1247  1.6651
   8823SM  H11G11847   3.879   1.568  14.177  0.9835  0.0473 -2.0797
   8823SM  C12F11848   3.694   1.610  14.276 -0.4834 -0.4696 -0.6166
   8823SM  H12F11849   3.598   1.660  14.252 -0.1525  0.8525  0.6922
   8823SM  H12G11850   3.739   1.662  14.362  0.2212 -1.5982 -0.2810
   8823SM  C13F11851   3.661   1.461  14.316 -0.5047  0.0527 -0.3505
   8823SM  H13F11852   3.752   1.405  14.346  1.3198  1.0621 -3.5110
   8823SM  H13G11853   3.607   1.404  14.238 -0.7901 -0.5561  0.2880
   8823SM  C14F11854   3.557   1.465  14.426  0.6015  0.0111 -0.2526
   8823SM  H14F11855   3.468   1.529  14.408 -0.7465 -1.4594  0.8828
   8823SM  H14G11856   3.612   1.509  14.512  2.0134 -2.6799  0.3650
   8823SM  C15F11857   3.503   1.331  14.470  0.4842  0.6605 -0.6453
   8823SM  H15F11858   3.586   1.263  14.496  0.5255  1.2934  1.0327
   8823SM  H15G11859   3.424   1.291  14.403  0.5752  0.4880 -0.6493
   8823SM  C16F11860   3.423   1.349  14.600 -0.2160 -0.3097 -0.8459
   8823SM  H16F11861   3.369   1.445  14.586 -2.3600 -1.4834 -1.1217
   8823SM  H16G11862   3.493   1.370  14.683 -1.8116  3.3664 -0.2238
   8823SM  C17F11863   3.335   1.228  14.624 -0.0715 -0.2046  0.7239
   8823SM  H17F11864   3.388   1.134  14.595 -1.1941 -0.4379 -0.6883
   8823SM  H17G11865   3.252   1.231  14.551  1.2422 -2.4602 -1.0076
   8823SM  C18F11866   3.278   1.224  14.767  0.2869 -0.1799  0.0509
   8823SM  H18F11867   3.219   1.131  14.784  1.1656 -0.6133  0.8230
   8823SM  H18G11868   3.207   1.308  14.777  0.2544 -0.3244  1.0406
   8823SM  C19F11869   3.384   1.242  14.875  0.1533 -0.4734  0.6892
   8823SM  H19F11870   3.421   1.346  14.878  3.0684 -1.4306  1.4076
   8823SM  H19G11871   3.476   1.187  14.845 -0.0612 -1.0385  1.0407
   8823SM  C20F11872   3.353   1.189  15.014  0.1725  0.3615  0.2784
   8823SM  H20F11873   3.252   1.225  15.044  0.8679 -0.1827  3.6860
   8823SM  H20G11874   3.423   1.237  15.086 -0.2464  0.8936  0.3425
   8823SM  C21F11875   3.345   1.032  15.033 -0.5518 -0.1739 -0.6187
   8823SM  H21F11876   3.244   0.996  15.005 -0.2874 -1.4167 -0.0524
   8823SM  H21G11877   3.352   1.010  15.142 -1.2593  2.4830  0.0384
   8823SM  C22F11878   3.451   0.943  14.958 -0.1936 -0.8261 -0.2538
   8823SM  H22F11879   3.550   0.990  14.975 -0.2607 -0.1972 -1.5104
   8823SM  H22G11880   3.413   0.940  14.853 -1.2799 -1.5995  0.1482
   8823SM  C23F11881   3.436   0.807  15.012 -0.0697 -0.5528 -0.5599
   8823SM  H23F11882   3.333   0.769  14.996 -0.6820  0.7926  0.0709
   8823SM  H23G11883   3.465   0.802  15.120 -0.5187  1.2476 -0.3306
   8823SM  H23H11884   3.498   0.728  14.964  1.9514 -1.8098  3.6236
   8923SM     N11885   6.752   2.175  12.171 -0.3312 -0.4634  0.0367
   8923SM   C1511886   6.667   2.268  12.086 -0.2977  0.1662 -0.8233
   8923SM  H15A11887   6.562   2.265  12.111  0.5579 -1.6398  3.4833
   8923SM  H15B11888   6.685   2.248  11.981  4.3521 -0.2475 -0.1447
   8923SM  H15C11889   6.689   2.372  12.102 -2.3481  0.8020 -1.7405
   8923SM   C1411890   6.706   2.036  12.165  0.4188  0.6752  0.6963
   8923SM  H14A11891   6.745   1.970  12.242 -1.3236 -0.1732  0.8853
   8923SM  H14B11892   6.720   1.993  12.067  0.4613 -0.6299  1.2480
   8923SM  H14C11893   6.599   2.028  12.177  0.3952 -0.9476 -0.2654
   8923SM   C1311894   6.889   2.174  12.106  0.6154 -0.1070 -0.3240
   8923SM  H13A11895   6.928   2.274  12.102 -3.5563  1.7078 -0.5133
   8923SM  H13B11896   6.906   2.145  12.003 -2.0954  1.3574 -1.2769
   8923SM  H13C11897   6.952   2.105  12.161  1.2005 -0.2558 -1.1485
   8923SM   C1211898   6.750   2.228  12.317 -0.6917  0.9801 -0.2029
   8923SM  H12A11899   6.654   2.219  12.365 -0.2567 -1.5418  0.3016
   8923SM  H12B11900   6.780   2.332  12.317 -2.8360  1.6797  1.0438
   8923SM   C1111901   6.854   2.161  12.407 -0.3310 -0.3594  0.2659
   8923SM  H11A11902   6.866   2.217  12.502  1.3714  0.6264 -0.4802
   8923SM  H11B11903   6.958   2.164  12.367  0.2771 -0.2347  1.7651
   8923SM     P11904   6.698   1.978  12.524 -0.1379 -0.1573 -0.1473
   8923SM   O1311905   6.577   2.061  12.477  0.1288 -0.3719  0.4576
   8923SM   O1411906   6.687   1.835  12.508 -0.7324 -0.3510 -0.3295
   8923SM   O1111907   6.729   2.027  12.672 -0.1342  0.4127  0.1446
   8923SM   O1211908   6.823   2.024  12.442 -0.1928 -0.2782  0.3158
   8923SM   C1S11909   6.840   1.968  12.743 -0.1449  0.2855 -0.0288
   8923SM   H1S11910   6.933   2.025  12.723 -0.6138  1.4551  1.0270
   8923SM   H1T11911   6.862   1.864  12.710  0.3270  0.7523 -1.2621
   8923SM    NF11912   6.966   1.928  12.947  0.2752  0.0214  0.3420
   8923SM   HNF11913   6.960   1.837  12.988 -2.0938 -0.1085 -0.1331
   8923SM   C2S11914   6.840   1.980  12.898 -0.9283  0.3988 -0.4997
   8923SM   H2S11915   6.829   2.089  12.915 -2.6314  0.2888 -0.7482
   8923SM   C3S11916   6.714   1.908  12.952  0.1921 -0.5952 -0.9109
   8923SM   H3S11917   6.716   1.800  12.925  2.3529 -0.4964 -1.3036
   8923SM    O311918   6.590   1.950  12.891  0.4951  0.1408  0.1155
   8923SM   HO311919   6.608   2.021  12.827  0.6193  1.5600  1.6608
   8923SM   C4S11920   6.700   1.929  13.100 -0.4062  1.0930  0.6311
   8923SM   H4S11921   6.682   2.033  13.129  3.5513  1.9672  0.4822
   8923SM   C5S11922   6.726   1.843  13.203 -0.1461  0.5127  0.3307
   8923SM   H5S11923   6.770   1.743  13.187 -0.0901  0.7997 -1.4498
   8923SM   C6S11924   6.713   1.884  13.346  0.4782 -0.3789 -0.5661
   8923SM   H6S11925   6.792   1.825  13.398  0.1128 -0.1287  0.2796
   8923SM   H6T11926   6.610   1.865  13.384 -0.9128  3.0937 -2.1555
   8923SM   C7S11927   6.762   2.023  13.402  0.2667  0.2638 -0.0330
   8923SM   H7S11928   6.703   2.106  13.357 -2.5674 -1.9045 -0.6066
   8923SM   H7T11929   6.865   2.032  13.362 -0.5616  1.9747 -1.9368
   8923SM   C8S11930   6.761   2.036  13.553  0.7045 -0.6169 -0.2416
   8923SM   H8S11931   6.816   1.956  13.607  0.5646  0.5792  1.8016
   8923SM   H8T11932   6.658   2.032  13.595  1.5856 -0.3087  2.1539
   8923SM   C9S11933   6.817   2.173  13.603 -0.3592  0.0603  0.0599
   8923SM   H9S11934   6.743   2.256  13.600  0.1122  0.5601  1.2896
   8923SM   H9T11935   6.916   2.195  13.556 -0.0430  0.3372  0.8324
   8923SM  C10S11936   6.849   2.158  13.749 -0.1884  0.0981 -0.7268
   8923SM  H10S11937   6.931   2.084  13.762  0.1140  0.4095 -0.8695
   8923SM  H10T11938   6.758   2.121  13.802 -0.0315  2.4912  1.3867
   8923SM  C11S11939   6.888   2.290  13.821 -0.2990  0.5708 -0.2256
   8923SM  H11S11940   6.876   2.267  13.929  0.3979  1.2559  0.0099
   8923SM  H11T11941   6.821   2.374  13.793 -1.5268  0.1653  1.3312
   8923SM  C12S11942   7.037   2.327  13.802  0.8134 -0.1729  0.4231
   8923SM  H12S11943   7.053   2.367  13.700 -2.1464  2.2476  0.7594
   8923SM  H12T11944   7.101   2.237  13.812  1.6731  0.6386  2.8564
   8923SM  C13S11945   7.090   2.427  13.905  0.2012 -1.2875  0.2604
   8923SM  H13S11946   7.042   2.526  13.917 -0.4716 -1.8092  2.2208
   8923SM  H13T11947   7.198   2.441  13.881 -0.3863  1.8393 -1.0197
   8923SM  C14S11948   7.098   2.370  14.046  0.9267 -0.0921 -0.3378
   8923SM  H14S11949   7.195   2.402  14.089  0.9337 -2.2934  1.4410
   8923SM  H14T11950   7.113   2.260  14.054  0.3011 -0.1113  0.7957
   8923SM  C15S11951   6.984   2.406  14.145 -0.7249 -0.2166  0.7013
   8923SM  H15S11952   6.888   2.353  14.129 -0.0014 -1.2662 -0.4219
   8923SM  H15T11953   6.967   2.515  14.137 -0.7862 -0.1669  1.4310
   8923SM  C16S11954   7.034   2.375  14.285 -0.5729 -0.0075 -0.3696
   8923SM  H16S11955   7.124   2.439  14.302  0.2673 -1.9167  3.4557
   8923SM  H16T11956   7.072   2.271  14.297 -0.7053 -0.4543 -3.1589
   8923SM  C17S11957   6.930   2.403  14.393  0.3077  0.3797  0.4210
   8923SM  H17S11958   6.838   2.347  14.366  0.9580 -1.0139  1.0163
   8923SM  H17T11959   6.904   2.511  14.386 -2.5115 -0.2010  0.7644
   8923SM  C18S11960   6.977   2.363  14.532  0.2731  0.2710 -0.5253
   8923SM  H18S11961   6.985   2.252  14.536 -0.6850 -0.0538 -4.1538
   8923SM  H18T11962   6.915   2.403  14.616 -1.3413 -1.0821 -1.0293
   8923SM  H18U11963   7.082   2.398  14.548  0.5296 -0.8670  0.4665
   8923SM   C1F11964   7.091   1.982  12.927 -0.0923 -0.7631  0.5253
   8923SM    OF11965   7.099   2.100  12.891 -0.0533  0.5382  0.8847
   8923SM   C2F11966   7.212   1.895  12.971  0.2543  0.5339  0.7063
   8923SM   H2F11967   7.296   1.943  12.917 -0.5348  1.0405 -0.1126
   8923SM   H2G11968   7.187   1.788  12.954  0.7703  0.8268 -2.5131
   8923SM   C3F11969   7.245   1.899  13.128  0.5132  0.0293 -0.3163
   8923SM   H3F11970   7.275   2.005  13.140 -0.0133  0.8296 -4.5716
   8923SM   H3G11971   7.332   1.832  13.146  1.0395  0.5515 -0.8677
   8923SM   C4F11972   7.135   1.866  13.230 -0.4373  0.6150  0.5723
   8923SM   H4F11973   7.078   1.774  13.204 -0.2262  1.0920 -1.7986
   8923SM   H4G11974   7.062   1.950  13.228  1.2091  2.1038 -0.6030
   8923SM   C5F11975   7.193   1.857  13.372 -0.5414 -0.0065 -0.3630
   8923SM   H5F11976   7.231   1.958  13.397 -3.8387  1.0427  0.8982
   8923SM   H5G11977   7.272   1.779  13.379 -1.1765 -0.5691  0.8307
   8923SM   C6F11978   7.091   1.826  13.478  0.0714 -0.0276 -0.2903
   8923SM   H6F11979   7.040   1.728  13.465 -0.9494 -0.1362  3.2731
   8923SM   H6G11980   7.008   1.900  13.479  0.6123  0.7914  3.8948
   8923SM   C7F11981   7.155   1.827  13.627 -0.4502  0.1722  0.1095
   8923SM   H7F11982   7.184   1.931  13.653 -0.3767 -0.3575  2.4140
   8923SM   H7G11983   7.244   1.761  13.637 -0.2042  0.3441 -0.8801
   8923SM   C8F11984   7.071   1.775  13.743  0.4346 -0.1317 -0.5748
   8923SM   H8F11985   7.043   1.673  13.706 -2.6273  0.1377  0.6569
   8923SM   H8G11986   6.974   1.830  13.739 -1.4389 -3.2138 -1.1573
   8923SM   C9F11987   7.138   1.799  13.881  0.2233  0.1569  0.5814
   8923SM   H9F11988   7.131   1.908  13.900  1.4299  0.0099  1.9737
   8923SM   H9G11989   7.245   1.772  13.876  1.3070  3.7410  1.9935
   8923SM  C10F11990   7.066   1.731  13.996 -0.7880  0.4398 -0.6125
   8923SM  H10F11991   7.081   1.622  13.982  2.2017  0.5363  0.9864
   8923SM  H10G11992   6.959   1.761  13.992 -0.9370 -0.1102 -0.7876
   8923SM  C11F11993   7.138   1.784  14.119  0.2819 -0.4010  0.1560
   8923SM  H11F11994   7.103   1.883  14.154 -3.7647 -1.9093  0.8944
   8923SM  H11G11995   7.247   1.778  14.096  0.4570  0.2319  0.8162
   8923SM  C12F11996   7.105   1.697  14.248 -0.2762 -0.3090 -0.7088
   8923SM  H12F11997   7.154   1.598  14.243 -0.1333 -0.2235 -1.0336
   8923SM  H12G11998   6.996   1.685  14.268 -0.8114  4.1014  0.1194
   8923SM  C13F11999   7.163   1.761  14.380  0.1565 -0.2157  0.4269
   8923SM  H13F12000   7.111   1.858  14.391  2.3872  1.4206 -2.2307
   8923SM  H13G12001   7.273   1.767  14.364  0.0875  1.5712  0.4964
   8923SM  C14F12002   7.137   1.675  14.499 -0.4946  0.9900 -0.6716
   8923SM  H14F12003   7.177   1.572  14.487 -0.8534  0.8078 -0.3259
   8923SM  H14G12004   7.028   1.660  14.516 -0.0034 -2.5178 -0.0199
   8923SM  C15F12005   7.211   1.730  14.632  0.7886  1.0732 -0.1326
   8923SM  H15F12006   7.199   1.840  14.634  0.5598  1.0585  2.8728
   8923SM  H15G12007   7.320   1.707  14.630  0.9324  1.7588 -1.0601
   8923SM  C16F12008   7.155   1.666  14.758  0.3644  0.5573  0.6475
   8923SM  H16F12009   7.052   1.701  14.778 -0.0681 -1.2244  1.6869
   8923SM  H16G12010   7.202   1.708  14.849  3.5440 -0.6599 -0.2719
   8923SM  C17F12011   7.162   1.513  14.757 -0.7658 -0.2258 -0.2584
   8923SM  H17F12012   7.262   1.488  14.715 -0.9935  1.3251 -1.8431
   8923SM  H17G12013   7.087   1.468  14.689 -1.0093 -0.8244  0.3934
   8923SM  C18F12014   7.134   1.463  14.900 -0.6720  0.3842 -0.5443
   8923SM  H18F12015   7.026   1.475  14.923 -0.0157  2.3655  1.9338
   8923SM  H18G12016   7.191   1.528  14.970  1.1372  0.3593 -1.8969
   8923SM  C19F12017   7.179   1.318  14.925  0.1430 -1.0924  0.4688
   8923SM  H19F12018   7.289   1.322  14.910 -0.0262 -0.2141 -0.6863
   8923SM  H19G12019   7.134   1.251  14.849  1.6885 -0.2023 -1.3171
   8923SM  C20F12020   7.156   1.266  15.066  0.6806  0.9201 -0.6522
   8923SM  H20F12021   7.045   1.265  15.062  0.6160 -1.6633  0.4241
   8923SM  H20G12022   7.196   1.335  15.144 -1.4598  0.4170  0.9648
   8923SM  C21F12023   7.201   1.123  15.092  0.3389 -0.2669 -0.2689
   8923SM  H21F12024   7.312   1.130  15.094  0.2766  0.6458  0.9409
   8923SM  H21G12025   7.167   1.058  15.009  1.2201 -0.2615 -0.6369
   8923SM  C22F12026   7.161   1.060  15.228 -0.4243  0.6070  0.1252
   8923SM  H22F12027   7.192   0.954  15.223 -3.0689 -0.3420  1.8445
   8923SM  H22G12028   7.050   1.059  15.222 -0.3670 -1.1487 -4.1077
   8923SM  C23F12029   7.218   1.137  15.343 -0.0203  0.0846 -0.0755
   8923SM  H23F12030   7.183   1.243  15.343  0.1227  0.1416 -1.5315
   8923SM  H23G12031   7.329   1.130  15.345 -0.0702 -0.6935  0.4357
   8923SM  H23H12032   7.184   1.087  15.436  3.5094  0.2294  1.4635
   9023SM     N12033   0.028   1.507  12.240  0.0055 -0.0344  0.1650
   9023SM   C1512034  -0.058   1.565  12.343  0.5148  0.1373  0.7744
   9023SM  H15A12035  -0.060   1.673  12.335  0.4885  0.0592 -0.6343
   9023SM  H15B12036  -0.019   1.540  12.440  1.5303 -1.6677 -0.0381
   9023SM  H15C12037  -0.159   1.528  12.334  0.3923  0.4009  1.0765
   9023SM   C1412038   0.001   1.559  12.098  0.1500  0.7002  0.3263
   9023SM  H14A12039   0.062   1.517  12.020  2.0458  2.3461  0.8320
   9023SM  H14B12040   0.017   1.666  12.099 -1.5095  1.0158  2.7268
   9023SM  H14C12041  -0.099   1.533  12.065  1.0163 -0.1588 -1.7882
   9023SM   C1312042   0.166   1.552  12.272  0.2004  0.2077  0.1543
   9023SM  H13A12043   0.200   1.522  12.370  1.9369 -0.6387 -0.6425
   9023SM  H13B12044   0.179   1.659  12.261  0.3972  0.1690 -0.0035
   9023SM  H13C12045   0.241   1.499  12.215  0.1031 -0.1488  0.3535
   9023SM   C1212046   0.021   1.353  12.246  0.2673  0.0818  0.4976
   9023SM  H12A12047   0.108   1.309  12.199  1.0677  1.4050  0.6877
   9023SM  H12B12048  -0.064   1.321  12.188 -0.2754 -1.0550  1.8599
   9023SM   C1112049   0.020   1.284  12.385  0.5297  0.1164  0.1144
   9023SM  H11A12050  -0.001   1.177  12.363  0.7101 -0.2094  1.4437
   9023SM  H11B12051  -0.063   1.325  12.447 -1.3218  0.4134 -2.4133
   9023SM     P12052   0.174   1.285  12.602  0.1728 -0.4919  0.2025
   9023SM   O1312053   0.289   1.195  12.621  0.9643 -0.3580 -0.0028
   9023SM   O1412054   0.179   1.422  12.662  0.4366 -0.5953 -0.2750
   9023SM   O1112055   0.047   1.210  12.645  0.6165 -0.4798  0.4843
   9023SM   O1212056   0.141   1.299  12.448  0.2399 -0.9708 -0.0117
   9023SM   C1S12057   0.047   1.135  12.765 -0.0307 -0.1691  0.4491
   9023SM   H1S12058   0.144   1.097  12.803 -1.3315 -2.8746  1.3421
   9023SM   H1T12059   0.002   1.036  12.742  2.6525 -1.8705  2.0306
   9023SM    NF12060   0.010   1.134  13.005 -0.1994  0.1658 -0.2084
   9023SM   HNF12061  -0.073   1.091  13.039 -0.9622  2.6182  1.2286
   9023SM   C2S12062  -0.018   1.209  12.884  0.4763 -0.1690  0.0164
   9023SM   H2S12063   0.032   1.308  12.887  1.0283 -0.4674  1.4091
   9023SM   C3S12064  -0.167   1.232  12.862  0.3179 -0.1477  0.2474
   9023SM   H3S12065  -0.221   1.135  12.864 -1.0670  0.4657 -2.5910
   9023SM    O312066  -0.196   1.283  12.731 -0.2772 -0.4275 -0.4337
   9023SM   HO312067  -0.123   1.255  12.676 -0.8610  0.2452 -1.5931
   9023SM   C4S12068  -0.214   1.321  12.965 -0.7562  0.2822 -0.9381
   9023SM   H4S12069  -0.145   1.406  12.978  1.1530 -1.3914  0.3936
   9023SM   C5S12070  -0.324   1.311  13.046  0.3370  0.5508  0.5816
   9023SM   H5S12071  -0.386   1.222  13.026  2.7092 -1.3173  1.0934
   9023SM   C6S12072  -0.358   1.404  13.150  0.1786 -0.3807 -0.4433
   9023SM   H6S12073  -0.461   1.443  13.136 -0.0929 -1.1067 -0.4987
   9023SM   H6T12074  -0.287   1.488  13.166 -0.2975 -0.1801  0.7274
   9023SM   C7S12075  -0.352   1.329  13.286 -0.6237 -0.3419 -0.2677
   9023SM   H7S12076  -0.255   1.279  13.306 -0.5535  0.0783  0.4789
   9023SM   H7T12077  -0.423   1.245  13.295  0.6119 -1.3502  0.4225
   9023SM   C8S12078  -0.374   1.431  13.396  0.4111 -0.1039 -0.2309
   9023SM   H8S12079  -0.483   1.453  13.393  0.0727 -0.7632  3.1073
   9023SM   H8T12080  -0.332   1.530  13.370 -0.6574 -0.1224 -2.2259
   9023SM   C9S12081  -0.324   1.382  13.534  0.0957 -0.2344  0.3024
   9023SM   H9S12082  -0.223   1.343  13.508  0.1240 -1.1935  1.7278
   9023SM   H9T12083  -0.380   1.294  13.573 -0.1229 -0.3771 -0.3265
   9023SM  C10S12084  -0.320   1.488  13.639 -0.6758  0.6521  0.2274
   9023SM  H10S12085  -0.421   1.521  13.670 -1.7671 -0.5815 -1.7902
   9023SM  H10T12086  -0.274   1.580  13.597  2.8322 -1.5581 -1.2405
   9023SM  C11S12087  -0.232   1.442  13.758 -0.0155 -0.3593  0.1053
   9023SM  H11S12088  -0.123   1.448  13.738  0.4525  1.1490  2.6351
   9023SM  H11T12089  -0.249   1.335  13.785  1.9316 -1.1202 -1.4700
   9023SM  C12S12090  -0.250   1.536  13.874 -0.2761 -0.1536 -0.5283
   9023SM  H12S12091  -0.359   1.538  13.897  0.2454 -1.0420  2.5317
   9023SM  H12T12092  -0.218   1.639  13.848 -1.1798 -0.4628 -3.1384
   9023SM  C13S12093  -0.165   1.500  13.996 -0.1885 -0.0892 -0.5267
   9023SM  H13S12094  -0.069   1.471  13.948 -0.7486 -1.3972 -0.8962
   9023SM  H13T12095  -0.200   1.402  14.034  0.4581 -0.2914 -0.4549
   9023SM  C14S12096  -0.146   1.615  14.100 -0.3094  0.1239  0.2064
   9023SM  H14S12097  -0.238   1.668  14.134 -0.1854  1.7146 -1.7368
   9023SM  H14T12098  -0.088   1.699  14.055  0.9159 -0.6033  0.3907
   9023SM  C15S12099  -0.055   1.570  14.221  0.1025  0.4986  0.1489
   9023SM  H15S12100   0.046   1.559  14.175 -0.5866  0.5520 -1.4424
   9023SM  H15T12101  -0.088   1.465  14.240  0.8007  0.1164 -0.6661
   9023SM  C16S12102  -0.074   1.651  14.348 -0.1622  0.0607 -0.6085
   9023SM  H16S12103  -0.105   1.753  14.317 -1.4919 -0.5462 -1.3385
   9023SM  H16T12104   0.024   1.653  14.401 -0.3597  0.2982 -0.2510
   9023SM  C17S12105  -0.162   1.579  14.452 -0.6606  0.5387 -0.2262
   9023SM  H17S12106  -0.269   1.575  14.422 -1.6687 -0.1513  3.0516
   9023SM  H17T12107  -0.158   1.643  14.542  1.4604 -0.7120  0.6596
   9023SM  C18S12108  -0.110   1.439  14.483 -0.1364  0.2476  0.3968
   9023SM  H18S12109  -0.156   1.408  14.579 -0.8762 -0.9123 -0.3113
   9023SM  H18T12110   0.000   1.446  14.474 -0.1981  1.7403  0.4241
   9023SM  H18U12111  -0.149   1.366  14.409  2.2947  0.4396 -1.1577
   9023SM   C1F12112   0.129   1.128  13.063  0.1812 -1.3814  0.6058
   9023SM    OF12113   0.215   1.207  13.022 -0.6650  0.0473  0.0409
   9023SM   C2F12114   0.137   1.043  13.179 -0.2363  0.3197  0.1644
   9023SM   H2F12115   0.197   0.954  13.148 -0.9141 -0.0504 -0.1108
   9023SM   H2G12116   0.041   1.007  13.222  0.9398  0.0701  2.7931
   9023SM   C3F12117   0.215   1.099  13.302  0.2922 -0.0764 -0.0043
   9023SM   H3F12118   0.325   1.113  13.292  0.3323 -0.4382 -0.0590
   9023SM   H3G12119   0.204   1.020  13.379 -0.5450  0.2390  0.2142
   9023SM   C4F12120   0.153   1.226  13.360 -0.0615 -0.3463  0.3742
   9023SM   H4F12121   0.081   1.264  13.285  0.7527  0.8322  0.1629
   9023SM   H4G12122   0.232   1.303  13.363 -0.2680  0.0281 -1.9615
   9023SM   C5F12123   0.088   1.212  13.498  0.4205  0.5176 -0.1943
   9023SM   H5F12124   0.027   1.120  13.496  0.5073  0.4691 -1.5181
   9023SM   H5G12125   0.013   1.291  13.519 -1.9495 -1.9097  1.0079
   9023SM   C6F12126   0.192   1.210  13.612  0.1561 -0.5588 -0.2578
   9023SM   H6F12127   0.191   1.317  13.644 -0.0850 -0.8002  0.5778
   9023SM   H6G12128   0.290   1.170  13.576  0.9711 -0.0161  1.2739
   9023SM   C7F12129   0.140   1.122  13.725  0.2394 -0.5004 -0.5875
   9023SM   H7F12130   0.128   1.017  13.692 -1.9455 -0.4949  0.0397
   9023SM   H7G12131   0.039   1.156  13.756 -0.5654 -0.0032 -3.4590
   9023SM   C8F12132   0.223   1.146  13.855 -0.1922  0.0487 -0.2919
   9023SM   H8F12133   0.225   1.257  13.861 -3.1764  0.4508 -3.2968
   9023SM   H8G12134   0.330   1.119  13.842  0.4222  2.0255  0.2353
   9023SM   C9F12135   0.154   1.080  13.975  0.0750  0.3587  1.0660
   9023SM   H9F12136   0.135   0.976  13.943  3.0819  0.1027 -0.2493
   9023SM   H9G12137   0.057   1.118  14.013 -1.3672 -0.3239 -1.7271
   9023SM  C10F12138   0.253   1.073  14.096  0.3794 -0.8158 -1.0099
   9023SM  H10F12139   0.355   1.044  14.063  0.9338  0.0594 -0.1318
   9023SM  H10G12140   0.208   0.990  14.155 -0.5607  0.7393  0.5611
   9023SM  C11F12141   0.258   1.206  14.178 -0.1019 -0.0790  0.4296
   9023SM  H11F12142   0.166   1.216  14.241  1.1599 -0.8933  2.4994
   9023SM  H11G12143   0.268   1.299  14.119  1.9309  0.8850  2.1583
   9023SM  C12F12144   0.372   1.212  14.279  0.7264  0.2960 -0.4049
   9023SM  H12F12145   0.352   1.294  14.351 -0.9176 -0.3115 -0.1261
   9023SM  H12G12146   0.464   1.250  14.228  0.7128  1.4390  0.3825
   9023SM  C13F12147   0.404   1.081  14.356 -0.1282 -0.1179 -0.8947
   9023SM  H13F12148   0.499   1.106  14.406 -1.1337  1.3263  0.3939
   9023SM  H13G12149   0.428   1.002  14.282  2.9830 -1.9375  1.8228
   9023SM  C14F12150   0.302   1.044  14.467  0.2137 -0.8049  0.1094
   9023SM  H14F12151   0.221   1.013  14.397  0.0621 -1.7050  0.6666
   9023SM  H14G12152   0.261   1.127  14.530  0.8318  0.8127 -1.5237
   9023SM  C15F12153   0.348   0.926  14.556 -0.6015 -0.4192 -0.1202
   9023SM  H15F12154   0.441   0.960  14.607 -0.1078  0.5613 -1.6024
   9023SM  H15G12155   0.382   0.854  14.478  2.3327 -1.3102  1.8029
   9023SM  C16F12156   0.242   0.855  14.640 -0.0604 -0.4763  0.1755
   9023SM  H16F12157   0.157   0.828  14.574 -0.5348 -1.3455  1.1055
   9023SM  H16G12158   0.196   0.930  14.708  3.2418  0.5580  1.4508
   9023SM  C17F12159   0.291   0.743  14.733  0.4411 -0.6206  0.0885
   9023SM  H17F12160   0.315   0.656  14.669 -2.0035 -0.1245 -1.6351
   9023SM  H17G12161   0.206   0.722  14.801  0.2947  1.6583  0.7042
   9023SM  C18F12162   0.407   0.786  14.828 -0.0028  0.2711  0.1751
   9023SM  H18F12163   0.489   0.827  14.765  0.5914  2.9412  2.5215
   9023SM  H18G12164   0.439   0.694  14.881  0.0436  1.0527  1.5301
   9023SM  C19F12165   0.361   0.905  14.922  0.7366  0.0189  0.8043
   9023SM  H19F12166   0.279   0.871  14.989  0.4150  1.2476  1.0425
   9023SM  H19G12167   0.320   0.977  14.848  1.5890 -2.4459 -2.3285
   9023SM  C20F12168   0.467   0.957  15.012  0.2609 -0.2092 -0.4264
   9023SM  H20F12169   0.558   0.969  14.950  0.6912 -0.0301  0.2258
   9023SM  H20G12170   0.485   0.883  15.093  0.5999 -0.3708 -0.6471
   9023SM  C21F12171   0.436   1.096  15.073 -0.8892 -0.1501  0.0825
   9023SM  H21F12172   0.341   1.098  15.131  1.2064  4.0280  4.0455
   9023SM  H21G12173   0.446   1.174  14.995 -1.7881  0.9632  1.0433
   9023SM  C22F12174   0.553   1.135  15.173  0.4320 -0.2452  0.0622
   9023SM  H22F12175   0.548   1.244  15.196 -0.7472 -0.8297  3.1923
   9023SM  H22G12176   0.650   1.113  15.124  0.4601  0.0721 -0.0239
   9023SM  C23F12177   0.539   1.075  15.308 -0.0826 -0.0545  0.6240
   9023SM  H23F12178   0.624   1.098  15.377  0.3858  1.2241 -0.3586
   9023SM  H23G12179   0.520   0.965  15.306  1.6414 -0.4125  1.7529
   9023SM  H23H12180   0.453   1.118  15.363  0.3166 -0.1388  1.3281
   9123SM     N12181   0.372   3.700  12.342  0.6280  0.0017  0.4950
   9123SM   C1512182   0.264   3.609  12.291  0.3822  0.0790  0.0732
   9123SM  H15A12183   0.319   3.534  12.236 -0.3993 -0.6184  0.2211
   9123SM  H15B12184   0.190   3.657  12.230  2.4136  1.5688 -1.3438
   9123SM  H15C12185   0.212   3.555  12.369  1.4686  0.1369  0.8701
   9123SM   C1412186   0.483   3.618  12.413  0.1146 -0.5848  0.9808
   9123SM  H14A12187   0.560   3.686  12.444 -0.3825  0.9978 -1.0827
   9123SM  H14B12188   0.528   3.548  12.344  1.1167  0.7452  0.2635
   9123SM  H14C12189   0.430   3.559  12.487 -1.4635 -0.6506 -0.1391
   9123SM   C1312190   0.431   3.774  12.217 -0.0377 -0.0930 -0.2888
   9123SM  H13A12191   0.353   3.801  12.147  0.4452 -0.4259 -0.9608
   9123SM  H13B12192   0.486   3.708  12.151 -1.8432 -0.9142 -1.0281
   9123SM  H13C12193   0.490   3.859  12.248 -1.2844  0.8545 -0.4340
   9123SM   C1212194   0.326   3.798  12.439 -0.5530  0.0875 -0.9039
   9123SM  H12A12195   0.263   3.755  12.516  0.1337 -0.5497 -0.6910
   9123SM  H12B12196   0.263   3.871  12.390 -0.5976 -0.1583 -1.2201
   9123SM   C1112197   0.430   3.878  12.519  0.1169  0.2939 -0.0347
   9123SM  H11A12198   0.478   3.817  12.598 -0.1359 -0.7493 -0.6733
   9123SM  H11B12199   0.371   3.951  12.578  1.6090  1.5198  0.0127
   9123SM     P12200   0.640   4.050  12.500 -0.5022  0.2192  0.4195
   9123SM   O1312201   0.772   4.001  12.475 -0.4756  0.4645 -0.2994
   9123SM   O1412202   0.598   4.183  12.447 -0.2868  0.2076 -0.1931
   9123SM   O1112203   0.617   4.054  12.661 -0.1425  0.2592  0.2119
   9123SM   O1212204   0.532   3.946  12.441  0.4384  0.7576 -0.1998
   9123SM   C1S12205   0.689   3.973  12.752 -0.2104 -0.4613 -0.4178
   9123SM   H1S12206   0.796   4.002  12.761 -0.4173  0.3181 -0.3820
   9123SM   H1T12207   0.696   3.867  12.721  2.1851 -0.2143 -0.8780
   9123SM    NF12208   0.669   3.850  12.962  0.6738  0.0897  0.4955
   9123SM   HNF12209   0.609   3.771  12.969 -0.7261  0.9632 -1.0509
   9123SM   C2S12210   0.621   3.972  12.898 -0.0401  0.2108  0.4412
   9123SM   H2S12211   0.660   4.057  12.958  1.7514 -0.4313  0.2284
   9123SM   C3S12212   0.465   3.990  12.899 -0.9368  0.3024  0.5250
   9123SM   H3S12213   0.422   3.908  12.837 -1.6808  0.6951  0.5118
   9123SM    O312214   0.416   4.114  12.839 -0.2213  0.4562 -0.1910
   9123SM   HO312215   0.502   4.144  12.809  0.5592 -0.6696  0.8305
   9123SM   C4S12216   0.418   3.991  13.041  0.1953  0.6374  0.2297
   9123SM   H4S12217   0.452   4.073  13.106 -2.5460 -0.3762  3.1779
   9123SM   C5S12218   0.353   3.887  13.093 -0.6282 -0.4142 -0.3634
   9123SM   H5S12219   0.311   3.806  13.031  1.0460 -0.3497 -1.6323
   9123SM   C6S12220   0.304   3.881  13.238 -0.5132 -0.3347 -0.2209
   9123SM   H6S12221   0.311   3.773  13.265  1.6025 -0.6368 -1.6631
   9123SM   H6T12222   0.202   3.916  13.263  0.7180  3.3049  0.3780
   9123SM   C7S12223   0.380   3.981  13.337  0.1511  0.7784 -0.1098
   9123SM   H7S12224   0.354   4.088  13.326 -3.3617  0.4461  3.0175
   9123SM   H7T12225   0.488   3.957  13.334 -0.2617 -1.1519 -1.2128
   9123SM   C8S12226   0.327   3.948  13.476 -0.5288 -0.0870  0.1387
   9123SM   H8S12227   0.335   3.840  13.502  1.3279 -0.0290 -0.0791
   9123SM   H8T12228   0.217   3.967  13.474 -0.7362 -1.2305 -0.5977
   9123SM   C9S12229   0.376   4.030  13.592  0.1835  0.4282  0.6598
   9123SM   H9S12230   0.360   4.135  13.558 -0.7512 -0.2323 -1.0356
   9123SM   H9T12231   0.486   4.018  13.599  0.0678 -2.5618 -1.2251
   9123SM  C10S12232   0.300   4.015  13.724 -0.0534 -0.1238  0.6073
   9123SM  H10S12233   0.299   3.906  13.747 -2.5268 -0.0942  0.9079
   9123SM  H10T12234   0.192   4.041  13.714  0.1452  1.8891  2.8217
   9123SM  C11S12235   0.360   4.101  13.836 -0.1165  0.0472  0.3715
   9123SM  H11S12236   0.366   4.210  13.818  0.8987 -0.0146  0.2518
   9123SM  H11T12237   0.463   4.059  13.840  0.6445  1.5254 -1.9420
   9123SM  C12S12238   0.294   4.081  13.970 -0.0792 -0.2423  0.6924
   9123SM  H12S12239   0.270   3.980  14.011 -1.4006  0.1144  0.8642
   9123SM  H12T12240   0.188   4.114  13.960 -0.4217 -2.0213 -4.3301
   9123SM  C13S12241   0.356   4.157  14.086 -0.2316  1.1309 -0.4035
   9123SM  H13S12242   0.362   4.266  14.065  0.5889  0.8591 -1.6734
   9123SM  H13T12243   0.458   4.113  14.094 -0.2496  0.9988 -0.8957
   9123SM  C14S12244   0.284   4.126  14.219  0.3597  0.3005  0.0816
   9123SM  H14S12245   0.300   4.019  14.245 -0.0045  0.9760  3.6042
   9123SM  H14T12246   0.177   4.142  14.197 -0.0432  0.0538  1.7503
   9123SM  C15S12247   0.326   4.210  14.339  0.4057  0.3963  0.4917
   9123SM  H15S12248   0.298   4.317  14.324  0.7711  0.4224 -0.0482
   9123SM  H15T12249   0.436   4.203  14.356  0.5447  2.6218  0.9376
   9123SM  C16S12250   0.255   4.163  14.468  0.5650 -1.0150 -0.9446
   9123SM  H16S12251   0.255   4.233  14.555 -2.9108 -0.5261 -1.2226
   9123SM  H16T12252   0.299   4.068  14.506  0.6652 -1.5100 -2.2600
   9123SM  C17S12253   0.103   4.139  14.456 -0.0819  0.0326  0.3468
   9123SM  H17S12254   0.059   4.094  14.548  2.5316 -0.5413  1.3959
   9123SM  H17T12255   0.100   4.066  14.372 -1.7233 -0.1672  0.5493
   9123SM  C18S12256   0.015   4.263  14.420  0.3655  0.4640  0.2517
   9123SM  H18S12257   0.062   4.336  14.351  2.6412 -0.6973  0.4842
   9123SM  H18T12258   0.017   4.326  14.511 -0.3988 -0.0165  0.6106
   9123SM  H18U12259  -0.093   4.243  14.406  0.5360  0.0713 -0.5473
   9123SM   C1F12260   0.785   3.839  13.020  0.9839 -0.2515  0.7697
   9123SM    OF12261   0.874   3.923  13.010  0.1072 -0.5874 -0.2397
   9123SM   C2F12262   0.804   3.718  13.095 -0.2628  0.0309 -0.8359
   9123SM   H2F12263   0.869   3.655  13.031  1.6285  0.8213  0.2286
   9123SM   H2G12264   0.713   3.659  13.121  0.1094  0.5398  1.9790
   9123SM   C3F12265   0.871   3.734  13.232  0.9070 -0.0276  0.0679
   9123SM   H3F12266   0.976   3.760  13.209  0.8672 -0.7741 -1.0071
   9123SM   H3G12267   0.872   3.640  13.292  0.6352 -0.4467 -0.5698
   9123SM   C4F12268   0.815   3.846  13.320  0.3841  0.0847 -0.3429
   9123SM   H4F12269   0.706   3.833  13.338  0.4201  2.2093  1.9873
   9123SM   H4G12270   0.810   3.946  13.274 -0.9405  0.6599  0.9852
   9123SM   C5F12271   0.880   3.858  13.457 -0.4805 -0.3881  0.2186
   9123SM   H5F12272   0.990   3.858  13.438 -0.5464  1.9758 -0.5861
   9123SM   H5G12273   0.863   3.777  13.531  1.2505  1.6270  3.0095
   9123SM   C6F12274   0.835   3.983  13.525  0.4622  0.2529  0.3126
   9123SM   H6F12275   0.732   4.007  13.492  0.8987  0.1118 -1.2007
   9123SM   H6G12276   0.887   4.070  13.480  2.1343 -0.7199  0.2778
   9123SM   C7F12277   0.845   3.989  13.681  0.6467  0.2395 -0.0233
   9123SM   H7F12278   0.748   3.954  13.723  0.6292 -0.1734 -0.3969
   9123SM   H7G12279   0.858   4.098  13.696 -0.7421  0.3846  0.2222
   9123SM   C8F12280   0.967   3.926  13.746  0.0370 -0.1339  0.0699
   9123SM   H8F12281   1.058   3.969  13.697  1.2368  0.9312  2.9697
   9123SM   H8G12282   0.961   3.817  13.730  1.2846 -0.4600  1.5596
   9123SM   C9F12283   0.980   3.959  13.888 -0.7598  0.2880  0.1609
   9123SM   H9F12284   0.980   4.070  13.892 -0.9180  0.3286 -0.6779
   9123SM   H9G12285   1.072   3.911  13.928 -0.6282 -1.8983 -2.4263
   9123SM  C10F12286   0.867   3.921  13.981 -0.2501 -0.1754  0.2700
   9123SM  H10F12287   0.851   3.812  13.966 -1.1302 -0.0084 -0.1146
   9123SM  H10G12288   0.768   3.970  13.968 -0.7695 -1.1127  0.5432
   9123SM  C11F12289   0.912   3.961  14.124 -0.2184 -0.1488 -0.1230
   9123SM  H11F12290   0.956   4.063  14.126  1.1623 -0.7229  0.1771
   9123SM  H11G12291   0.998   3.900  14.160  0.1676  0.4603  0.0105
   9123SM  C12F12292   0.793   3.968  14.224 -0.4439 -0.1885  0.2008
   9123SM  H12F12293   0.746   3.869  14.208 -3.0603  1.1963 -1.3521
   9123SM  H12G12294   0.719   4.040  14.182 -0.0863  0.3531  0.4859
   9123SM  C13F12295   0.836   3.996  14.362 -0.1254 -0.6448  0.0289
   9123SM  H13F12296   0.883   4.097  14.364 -0.3885 -0.5134 -0.2444
   9123SM  H13G12297   0.904   3.916  14.398 -0.1158 -0.3416  0.7040
   9123SM  C14F12298   0.719   4.002  14.461  0.1520  0.0883 -0.2342
   9123SM  H14F12299   0.647   3.923  14.431  2.1675 -1.5823 -0.8714
   9123SM  H14G12300   0.667   4.100  14.463  1.4409  0.8032 -0.8077
   9123SM  C15F12301   0.776   3.966  14.599 -0.9075  0.0396  0.0565
   9123SM  H15F12302   0.834   4.052  14.638 -1.5090 -0.2124  1.5856
   9123SM  H15G12303   0.856   3.892  14.579  1.3551  1.8195  2.0084
   9123SM  C16F12304   0.670   3.916  14.703  1.0737  0.3078  0.0307
   9123SM  H16F12305   0.733   3.881  14.788 -0.2256  1.1660  1.3879
   9123SM  H16G12306   0.620   3.823  14.669  1.7762 -0.2288  0.4384
   9123SM  C17F12307   0.571   4.023  14.749 -0.1989 -0.0537 -1.0253
   9123SM  H17F12308   0.499   4.049  14.668 -1.0585  2.4779  0.4384
   9123SM  H17G12309   0.620   4.117  14.781  1.0826 -1.5499  1.7819
   9123SM  C18F12310   0.489   3.966  14.867 -0.0488  0.3389  0.4399
   9123SM  H18F12311   0.473   3.857  14.853 -0.3680  0.2582  1.3728
   9123SM  H18G12312   0.386   4.008  14.868 -0.2476 -0.1609  0.9467
   9123SM  C19F12313   0.568   3.988  14.993  0.0152  0.0049  0.4527
   9123SM  H19F12314   0.568   4.099  14.999 -0.7343  0.0215  0.2593
   9123SM  H19G12315   0.676   3.965  14.987  0.6215  2.7793 -2.8263
   9123SM  C20F12316   0.509   3.930  15.129  0.2708  0.2661  0.7278
   9123SM  H20F12317   0.398   3.930  15.117  0.3368  1.7149 -0.1085
   9123SM  H20G12318   0.545   3.989  15.215 -0.0195 -0.6704  1.5191
   9123SM  C21F12319   0.563   3.790  15.161 -0.8114 -0.7483  0.9184
   9123SM  H21F12320   0.540   3.775  15.269 -1.4313 -2.3913  0.5906
   9123SM  H21G12321   0.673   3.792  15.145 -0.8891 -0.2791  0.4169
   9123SM  C22F12322   0.490   3.679  15.082 -0.5779 -0.1264 -0.1151
   9123SM  H22F12323   0.507   3.685  14.972  1.5076  0.8280  0.2179
   9123SM  H22G12324   0.386   3.701  15.116  0.3416 -0.4238  3.1918
   9123SM  C23F12325   0.518   3.533  15.132 -0.2983  0.3044 -0.2341
   9123SM  H23F12326   0.624   3.508  15.110  0.9085  4.2013  0.3870
   9123SM  H23G12327   0.447   3.463  15.082 -1.3354  0.6024  0.7790
   9123SM  H23H12328   0.503   3.519  15.241  1.3857 -0.4691 -0.0729
   9223SM     N12329   6.466   0.904  12.159 -0.0186 -0.1921  0.3853
   9223SM   C1512330   6.464   0.983  12.030 -0.1757 -0.4329  0.4553
   9223SM  H15A12331   6.551   0.949  11.976  0.0329 -0.3513  0.7388
   9223SM  H15B12332   6.465   1.090  12.042  0.5775 -0.4217  0.3310
   9223SM  H15C12333   6.380   0.955  11.967  1.7990  0.4611 -2.8354
   9223SM   C1412334   6.434   0.759  12.138  0.8695  0.3133  0.7387
   9223SM  H14A12335   6.333   0.751  12.101  0.9358  1.7064  0.1707
   9223SM  H14B12336   6.434   0.707  12.232  1.9551 -0.0028  0.5800
   9223SM  H14C12337   6.508   0.709  12.077  0.2903  0.1532  0.1511
   9223SM   C1312338   6.600   0.903  12.227 -0.1257  0.0620  0.2348
   9223SM  H13A12339   6.581   0.855  12.322 -1.1010  0.3853  0.2085
   9223SM  H13B12340   6.634   1.004  12.239 -0.6533  0.1483  1.0307
   9223SM  H13C12341   6.667   0.838  12.172 -0.0271  0.0476  0.3716
   9223SM   C1212342   6.360   0.966  12.253  0.8893 -0.2097 -0.8934
   9223SM  H12A12343   6.263   0.953  12.208  1.3987 -1.8239 -1.5814
   9223SM  H12B12344   6.368   1.073  12.269 -2.4806  0.3670 -2.1889
   9223SM   C1112345   6.355   0.904  12.393  0.2674  0.3093  0.1198
   9223SM  H11A12346   6.335   0.795  12.388  1.5282  0.0810 -0.3247
   9223SM  H11B12347   6.272   0.958  12.443 -0.4433 -2.2543  1.9525
   9223SM     P12348   6.505   1.082  12.511 -0.3561 -0.0976 -0.2687
   9223SM   O1312349   6.633   1.126  12.457 -0.0153 -0.1681  0.0430
   9223SM   O1412350   6.395   1.168  12.477  0.2350 -0.2531  0.3349
   9223SM   O1112351   6.524   1.064  12.668 -0.3159  0.9628 -0.1430
   9223SM   O1212352   6.474   0.934  12.470  0.1182  0.3318  0.5812
   9223SM   C1S12353   6.419   1.059  12.765  0.3961  0.1685  0.3291
   9223SM   H1S12354   6.377   0.957  12.760 -0.5125  0.4858  1.1826
   9223SM   H1T12355   6.337   1.134  12.753 -0.1603 -0.0389  2.4092
   9223SM    NF12356   6.360   1.088  12.999 -0.3664  0.0478  0.0829
   9223SM   HNF12357   6.334   1.175  13.039 -0.3816 -0.4404  1.1619
   9223SM   C2S12358   6.474   1.095  12.904  0.1634  0.0598  0.1800
   9223SM   H2S12359   6.551   1.022  12.937 -1.6860 -2.4722 -0.8123
   9223SM   C3S12360   6.538   1.239  12.911 -0.2432 -0.1922  0.2642
   9223SM   H3S12361   6.466   1.311  12.868  0.2127  0.9188  1.3039
   9223SM    O312362   6.639   1.254  12.815  0.2031  0.5494 -0.1716
   9223SM   HO312363   6.621   1.176  12.763 -2.1620  0.1495  1.1168
   9223SM   C4S12364   6.605   1.268  13.042  0.3533 -0.6563  0.0403
   9223SM   H4S12365   6.700   1.214  13.055  1.0041  0.6545  1.0091
   9223SM   C5S12366   6.559   1.342  13.147 -0.3056  0.2568  0.0180
   9223SM   H5S12367   6.465   1.397  13.129 -0.0619  0.4471 -0.7088
   9223SM   C6S12368   6.623   1.366  13.276  0.9075  0.6186 -0.7396
   9223SM   H6S12369   6.630   1.268  13.328 -0.6583  0.7817 -0.1696
   9223SM   H6T12370   6.540   1.416  13.331 -0.6811 -1.5081 -1.0875
   9223SM   C7S12371   6.735   1.463  13.271  0.8330 -0.0465 -0.6944
   9223SM   H7S12372   6.700   1.556  13.222 -2.7797 -1.0464 -0.2925
   9223SM   H7T12373   6.809   1.405  13.212 -0.8888 -0.7986 -2.2437
   9223SM   C8S12374   6.790   1.507  13.405  0.6410 -0.4388 -0.3076
   9223SM   H8S12375   6.721   1.573  13.462  2.2741  0.5000  0.6717
   9223SM   H8T12376   6.883   1.565  13.385 -0.3516  0.9589 -1.0221
   9223SM   C9S12377   6.816   1.390  13.507 -0.0865 -0.4745  0.2057
   9223SM   H9S12378   6.885   1.312  13.467  0.2840 -0.5880  1.0437
   9223SM   H9T12379   6.725   1.341  13.546  0.6835 -1.1958  1.1354
   9223SM  C10S12380   6.900   1.438  13.630 -0.1548  0.4195 -0.8275
   9223SM  H10S12381   6.844   1.516  13.686  1.3315 -0.1929  1.6189
   9223SM  H10T12382   7.006   1.464  13.608 -0.1584 -0.2157 -1.6506
   9223SM  C11S12383   6.921   1.327  13.730 -0.1823 -0.6625 -0.2112
   9223SM  H11S12384   6.988   1.248  13.689 -1.9468 -2.2414 -0.2106
   9223SM  H11T12385   6.822   1.283  13.754 -1.0905  1.4097  0.0274
   9223SM  C12S12386   6.971   1.379  13.866 -0.0349  0.2342 -0.5082
   9223SM  H12S12387   6.914   1.463  13.912 -1.3626 -1.1204  0.4387
   9223SM  H12T12388   7.076   1.412  13.856  0.7097 -2.2716 -1.7931
   9223SM  C13S12389   6.966   1.268  13.977  0.3127 -1.2338  0.0760
   9223SM  H13S12390   7.006   1.172  13.938  0.2889 -1.7386  1.2452
   9223SM  H13T12391   6.869   1.246  14.028  1.5405 -1.0554  2.6375
   9223SM  C14S12392   7.051   1.311  14.101  0.0749  0.4822  0.4646
   9223SM  H14S12393   6.996   1.392  14.155 -0.2614 -0.0021  0.8641
   9223SM  H14T12394   7.139   1.367  14.063  0.3594 -0.3956 -0.2061
   9223SM  C15S12395   7.092   1.206  14.207  0.5585 -0.2965 -0.5800
   9223SM  H15S12396   7.156   1.132  14.154  2.1734 -0.9180  2.0655
   9223SM  H15T12397   7.002   1.153  14.244  2.2481 -1.2305  2.4975
   9223SM  C16S12398   7.165   1.273  14.331 -0.2741  0.0534  0.3946
   9223SM  H16S12399   7.097   1.351  14.371  1.1600  1.6261 -0.1245
   9223SM  H16T12400   7.259   1.315  14.290 -1.2914  0.5555 -1.5616
   9223SM  C17S12401   7.185   1.167  14.431  0.2298  0.3761 -0.5728
   9223SM  H17S12402   7.249   1.090  14.384  0.3217  1.6617 -2.6784
   9223SM  H17T12403   7.084   1.127  14.456 -0.2566  1.2206 -1.1083
   9223SM  C18S12404   7.250   1.219  14.557  0.0115  0.3656  0.1845
   9223SM  H18S12405   7.192   1.309  14.586  0.3293  0.4767  0.4800
   9223SM  H18T12406   7.358   1.238  14.539  0.6142 -2.5873  0.0536
   9223SM  H18U12407   7.238   1.142  14.636 -0.4548  1.4927  1.2260
   9223SM   C1F12408   6.296   0.976  13.031 -0.1855 -0.0253 -0.3331
   9223SM    OF12409   6.343   0.868  13.000  0.1092 -0.1883  0.1730
   9223SM   C2F12410   6.161   0.993  13.092  0.6644  0.8048  0.0159
   9223SM   H2F12411   6.094   0.907  13.073  0.4762 -0.0420  3.7706
   9223SM   H2G12412   6.112   1.078  13.039  0.6518  0.2272 -0.9077
   9223SM   C3F12413   6.161   1.031  13.244  0.8212 -0.0076 -0.1192
   9223SM   H3F12414   6.062   1.078  13.263  0.7937  0.7828 -2.0227
   9223SM   H3G12415   6.227   1.119  13.256  0.7529  0.2587 -1.5407
   9223SM   C4F12416   6.199   0.918  13.332 -0.3464 -0.1962 -0.1988
   9223SM   H4F12417   6.307   0.891  13.326 -0.1726  0.5332 -0.3799
   9223SM   H4G12418   6.145   0.823  13.314  1.7518 -1.7019  0.9713
   9223SM   C5F12419   6.179   0.959  13.487  0.2252 -0.0623 -0.2572
   9223SM   H5F12420   6.073   0.962  13.518  0.4181 -1.9604  0.6998
   9223SM   H5G12421   6.225   1.061  13.486  0.3498 -0.1208 -0.7458
   9223SM   C6F12422   6.268   0.872  13.572 -0.2657  0.2820  0.1610
   9223SM   H6F12423   6.368   0.885  13.526 -0.1033  1.5988  0.8552
   9223SM   H6G12424   6.232   0.767  13.557  1.0764  0.0189 -1.6030
   9223SM   C7F12425   6.296   0.897  13.721 -0.3770 -0.1422  0.2899
   9223SM   H7F12426   6.319   1.005  13.728 -1.8708  0.1276  1.9488
   9223SM   H7G12427   6.386   0.839  13.749 -0.5736 -0.2417  0.7257
   9223SM   C8F12428   6.185   0.854  13.813 -0.5096  0.1534 -0.2766
   9223SM   H8F12429   6.150   0.750  13.795  1.6064 -0.4236 -1.4474
   9223SM   H8G12430   6.102   0.926  13.802 -0.0343  1.1848  2.1975
   9223SM   C9F12431   6.225   0.875  13.958 -0.5041 -0.3569 -0.4911
   9223SM   H9F12432   6.209   0.981  13.986  1.2377 -0.0899 -0.4186
   9223SM   H9G12433   6.334   0.858  13.972 -0.4823 -0.0669 -0.3102
   9223SM  C10F12434   6.141   0.788  14.053  0.7519 -0.1003  0.5568
   9223SM  H10F12435   6.162   0.797  14.161 -0.2638 -2.0574  0.9672
   9223SM  H10G12436   6.147   0.682  14.021  0.0823  0.5114 -1.7896
   9223SM  C11F12437   5.991   0.801  14.036 -0.1180  0.4094  0.0358
   9223SM  H11F12438   5.933   0.720  14.085  0.8732 -0.0406  0.4978
   9223SM  H11G12439   5.964   0.795  13.929 -1.7616  0.3337  0.4346
   9223SM  C12F12440   5.937   0.922  14.100 -0.2423  0.5291 -0.3098
   9223SM  H12F12441   5.830   0.923  14.071 -0.0137 -0.4871 -1.2711
   9223SM  H12G12442   5.989   1.006  14.050 -1.6943 -0.5753 -3.9973
   9223SM  C13F12443   5.942   0.945  14.253  0.3983 -0.0746 -0.6425
   9223SM  H13F12444   6.049   0.963  14.280  0.2888  0.2491 -0.4215
   9223SM  H13G12445   5.912   0.861  14.319 -1.1283  1.1364  0.2772
   9223SM  C14F12446   5.876   1.077  14.303 -0.3129  0.4098  0.0014
   9223SM  H14F12447   5.771   1.053  14.275  0.5702 -1.5337 -1.9546
   9223SM  H14G12448   5.921   1.164  14.248  0.0610 -0.7581 -1.6200
   9223SM  C15F12449   5.889   1.103  14.457  0.2156  0.1066  0.3809
   9223SM  H15F12450   5.822   1.189  14.481  0.5011  0.0579  1.3807
   9223SM  H15G12451   5.987   1.138  14.496 -0.8035  1.8602  1.5109
   9223SM  C16F12452   5.829   0.980  14.534 -0.9783 -0.3160 -0.1751
   9223SM  H16F12453   5.890   0.889  14.518 -0.7542 -0.1837 -0.0765
   9223SM  H16G12454   5.726   0.969  14.494 -0.8689  2.4939 -1.4452
   9223SM  C17F12455   5.820   1.003  14.686 -0.3623  0.1959  0.2764
   9223SM  H17F12456   5.761   1.096  14.700 -0.9244 -0.0579 -0.3650
   9223SM  H17G12457   5.919   1.001  14.737  0.1598  1.5183 -0.6338
   9223SM  C18F12458   5.740   0.884  14.747  0.8605 -0.2877  0.1979
   9223SM  H18F12459   5.765   0.781  14.715 -3.0995 -1.7217  1.1025
   9223SM  H18G12460   5.633   0.884  14.719  0.9136  0.1094 -0.0137
   9223SM  C19F12461   5.747   0.905  14.900  0.3872  0.3147 -0.6584
   9223SM  H19F12462   5.687   0.993  14.933 -2.3754 -1.2800 -1.1052
   9223SM  H19G12463   5.851   0.929  14.931  0.9764 -1.2046 -1.3436
   9223SM  C20F12464   5.692   0.774  14.972  1.1819 -0.6550 -0.3521
   9223SM  H20F12465   5.750   0.693  14.924  0.7175 -0.3712 -1.4259
   9223SM  H20G12466   5.586   0.746  14.953  0.1602  2.1877  0.6131
   9223SM  C21F12467   5.735   0.761  15.120  0.5348  0.1135  0.3505
   9223SM  H21F12468   5.839   0.799  15.126  0.3968  1.0021 -1.9046
   9223SM  H21G12469   5.726   0.651  15.134 -0.3224 -0.0404 -1.1774
   9223SM  C22F12470   5.653   0.843  15.225 -0.3432 -0.0660  0.2404
   9223SM  H22F12471   5.549   0.850  15.186  0.1003  0.2391 -0.9442
   9223SM  H22G12472   5.684   0.949  15.219 -0.5519 -0.0670 -1.3772
   9223SM  C23F12473   5.643   0.798  15.371  0.7607  0.2298  0.0900
   9223SM  H23F12474   5.613   0.691  15.369 -0.3481  0.5435 -0.7321
   9223SM  H23G12475   5.564   0.854  15.426  0.3799  1.5849 -1.7427
   9223SM  H23H12476   5.744   0.797  15.417 -0.2616 -1.7731  2.5516
   9323SM     N12477   1.526   4.407  12.744  0.4911  0.3568 -0.9292
   9323SM   C1512478   1.515   4.304  12.852 -0.1802 -0.1170  0.4295
   9323SM  H15A12479   1.530   4.207  12.808  2.6264 -0.4744  1.9713
   9323SM  H15B12480   1.425   4.302  12.912 -1.6153 -0.5038 -1.6188
   9323SM  H15C12481   1.600   4.312  12.918 -0.4776  0.1460  0.7886
   9323SM   C1412482   1.510   4.537  12.814 -0.3319  0.0288  0.0604
   9323SM  H14A12483   1.508   4.612  12.736  0.7788 -1.4749 -1.5021
   9323SM  H14B12484   1.592   4.544  12.883 -0.5682 -1.7680  0.5767
   9323SM  H14C12485   1.416   4.537  12.867 -0.0826 -0.2123  0.5051
   9323SM   C1312486   1.659   4.411  12.667 -1.0347 -0.3567 -0.2932
   9323SM  H13A12487   1.737   4.426  12.740 -0.3427  0.3141 -1.1600
   9323SM  H13B12488   1.658   4.489  12.593  2.4005 -0.2171 -0.3496
   9323SM  H13C12489   1.680   4.322  12.609  2.8416 -0.2462  0.7158
   9323SM   C1212490   1.407   4.397  12.651  0.1901  0.7903  0.3419
   9323SM  H12A12491   1.394   4.484  12.588 -1.0452  0.1869 -0.2802
   9323SM  H12B12492   1.313   4.384  12.702 -0.2902  1.6062 -0.3184
   9323SM   C1112493   1.414   4.279  12.552  0.0699 -0.3098  0.1995
   9323SM  H11A12494   1.488   4.302  12.472 -0.9330  2.1459 -0.1296
   9323SM  H11B12495   1.315   4.261  12.503  0.3202 -0.8446 -0.1171
   9323SM     P12496   1.546   4.047  12.557 -0.0054  0.3655  0.1833
   9323SM   O1312497   1.473   3.992  12.443  0.4707  0.3939  0.0158
   9323SM   O1412498   1.675   4.105  12.530  0.4430 -0.2143 -0.3965
   9323SM   O1112499   1.575   3.932  12.673  0.0521  0.0781  0.0391
   9323SM   O1212500   1.449   4.155  12.619 -0.3824 -0.6278 -0.1756
   9323SM   C1S12501   1.473   3.858  12.735 -0.0912  0.2597  0.2712
   9323SM   H1S12502   1.458   3.770  12.670  2.8810 -0.0666 -0.1414
   9323SM   H1T12503   1.381   3.920  12.740 -2.0802 -2.6053  2.4495
   9323SM    NF12504   1.395   3.739  12.931 -0.2781  0.5283  0.3058
   9323SM   HNF12505   1.339   3.784  12.999 -0.4023 -0.3185  0.7793
   9323SM   C2S12506   1.507   3.818  12.880  1.2280 -0.4924 -0.0904
   9323SM   H2S12507   1.592   3.746  12.874  0.3737 -1.5234 -0.0719
   9323SM   C3S12508   1.536   3.939  12.973  0.3109 -0.1924 -0.9523
   9323SM   H3S12509   1.447   4.005  12.966  1.7556  1.8446 -1.2742
   9323SM    O312510   1.655   4.011  12.943  0.2653 -0.1916 -0.5215
   9323SM   HO312511   1.673   3.988  12.852 -2.3491 -1.2910 -0.8670
   9323SM   C4S12512   1.542   3.891  13.118  0.4634  0.8278 -0.5858
   9323SM   H4S12513   1.642   3.861  13.153 -0.8619 -0.9422  2.0344
   9323SM   C5S12514   1.451   3.915  13.208  0.3120 -0.0045 -0.0187
   9323SM   H5S12515   1.368   3.983  13.183  0.9234  0.9850  0.5548
   9323SM   C6S12516   1.458   3.870  13.348  0.8491 -0.1141 -0.5417
   9323SM   H6S12517   1.491   3.950  13.417 -1.4084  0.0311  0.4797
   9323SM   H6T12518   1.526   3.786  13.373 -1.0738 -1.8649 -0.8407
   9323SM   C7S12519   1.315   3.822  13.402 -0.5213 -0.4846  1.7071
   9323SM   H7S12520   1.280   3.744  13.330  1.9253  0.2749 -0.4716
   9323SM   H7T12521   1.240   3.904  13.407 -0.5276 -0.3908  0.4990
   9323SM   C8S12522   1.315   3.758  13.539  0.4597 -0.3741  0.7781
   9323SM   H8S12523   1.386   3.673  13.547  2.0724  0.7569 -0.6499
   9323SM   H8T12524   1.212   3.717  13.551  0.1055  0.6179  1.2658
   9323SM   C9S12525   1.341   3.855  13.656  0.0466  0.0203  0.2118
   9323SM   H9S12526   1.267   3.936  13.643  0.5630  0.2918 -1.3410
   9323SM   H9T12527   1.444   3.890  13.634 -0.0567  0.3768  0.2916
   9323SM  C10S12528   1.339   3.793  13.794  0.5091 -0.6111  0.0478
   9323SM  H10S12529   1.414   3.713  13.813 -0.8061 -1.7798  0.5141
   9323SM  H10T12530   1.237   3.755  13.817 -0.6242  3.0440  1.8637
   9323SM  C11S12531   1.373   3.894  13.903  0.1408 -0.4523 -0.0040
   9323SM  H11S12532   1.316   3.989  13.895  0.0076 -0.4715  0.6590
   9323SM  H11T12533   1.478   3.926  13.885  0.7001 -1.8796  0.5382
   9323SM  C12S12534   1.361   3.847  14.044  0.4058  0.3510  0.4093
   9323SM  H12S12535   1.407   3.745  14.042  2.4924  1.2501 -0.6254
   9323SM  H12T12536   1.255   3.831  14.071 -0.4480  1.2658 -2.0933
   9323SM  C13S12537   1.433   3.945  14.137 -0.7564  0.6362  0.4490
   9323SM  H13S12538   1.384   4.044  14.131  2.9889  2.6250 -0.7658
   9323SM  H13T12539   1.539   3.959  14.106 -0.0095 -0.8509  2.1295
   9323SM  C14S12540   1.439   3.906  14.293  0.2881 -0.6627  0.9843
   9323SM  H14S12541   1.492   3.983  14.353 -1.7166  1.5227  0.1062
   9323SM  H14T12542   1.497   3.812  14.300 -0.5217 -1.2635 -0.0199
   9323SM  C15S12543   1.295   3.883  14.336  0.1283  0.2071  0.0997
   9323SM  H15S12544   1.226   3.968  14.314  0.6504  1.2625  2.2960
   9323SM  H15T12545   1.252   3.790  14.292  1.4955 -0.1711 -0.4902
   9323SM  C16S12546   1.283   3.886  14.484 -0.4551  0.2130 -0.2371
   9323SM  H16S12547   1.334   3.979  14.515 -0.2569  0.1325 -0.3242
   9323SM  H16T12548   1.342   3.798  14.520 -2.3870 -0.9511  0.2529
   9323SM  C17S12549   1.137   3.890  14.538  0.6141  0.0424  0.6947
   9323SM  H17S12550   1.071   3.827  14.474  0.7384  0.8699 -0.2685
   9323SM  H17T12551   1.099   3.994  14.537 -0.1901 -0.2504 -0.4149
   9323SM  C18S12552   1.134   3.830  14.684  0.7270  0.5261  1.1272
   9323SM  H18S12553   1.193   3.736  14.683  0.5229  0.4010  0.5807
   9323SM  H18T12554   1.027   3.806  14.704  0.9366 -1.3716  0.1317
   9323SM  H18U12555   1.173   3.909  14.752  1.9887 -0.0210  1.0600
   9323SM   C1F12556   1.370   3.615  12.880 -1.0706  0.3055 -0.3960
   9323SM    OF12557   1.453   3.550  12.820 -0.4427 -0.5509 -0.1206
   9323SM   C2F12558   1.232   3.567  12.901 -0.0699  0.2579 -0.2444
   9323SM   H2F12559   1.196   3.516  12.809 -2.2826  1.3197 -0.0266
   9323SM   H2G12560   1.166   3.655  12.913 -0.5222 -0.2279  0.9530
   9323SM   C3F12561   1.228   3.483  13.035 -0.0390  0.4062 -0.5084
   9323SM   H3F12562   1.287   3.542  13.108  0.4608  1.2100 -1.5302
   9323SM   H3G12563   1.293   3.394  13.016  3.7981  2.2750  2.4550
   9323SM   C4F12564   1.090   3.446  13.087  0.5027  0.0235 -0.0724
   9323SM   H4F12565   1.019   3.415  13.007 -1.0592  1.2665  0.7562
   9323SM   H4G12566   1.050   3.545  13.120 -1.3133 -0.9907  0.9235
   9323SM   C5F12567   1.086   3.353  13.205 -0.3752  0.3178  0.0564
   9323SM   H5F12568   1.129   3.257  13.170 -0.5638 -0.1869  1.1717
   9323SM   H5G12569   0.977   3.339  13.222 -0.3756  1.3436  1.0331
   9323SM   C6F12570   1.141   3.414  13.336  0.0618  0.2998  0.2411
   9323SM   H6F12571   1.093   3.511  13.361  2.3933  0.9451  2.6833
   9323SM   H6G12572   1.251   3.426  13.325  0.1003 -0.5366 -0.4373
   9323SM   C7F12573   1.113   3.323  13.455 -0.0093 -0.2481 -0.1769
   9323SM   H7F12574   1.172   3.229  13.451 -1.6555 -1.2702 -3.5583
   9323SM   H7G12575   1.005   3.297  13.456 -0.2304  0.5993 -1.1184
   9323SM   C8F12576   1.151   3.389  13.592  0.4503  0.2800  0.8264
   9323SM   H8F12577   1.072   3.457  13.629 -0.2351 -0.9118  1.6394
   9323SM   H8G12578   1.228   3.463  13.563 -1.1711  0.5261 -3.6069
   9323SM   C9F12579   1.177   3.289  13.704  0.3813  0.2212  0.3472
   9323SM   H9F12580   1.243   3.211  13.659 -0.4387  1.2183 -2.8663
   9323SM   H9G12581   1.083   3.237  13.730  1.1800 -1.4414  0.0581
   9323SM  C10F12582   1.240   3.363  13.824 -0.2413  0.3430  0.0261
   9323SM  H10F12583   1.298   3.450  13.788  0.8703 -0.2116  0.4221
   9323SM  H10G12584   1.304   3.286  13.874 -0.1056 -0.6029 -1.5407
   9323SM  C11F12585   1.136   3.406  13.929  0.5462 -0.1032 -0.5829
   9323SM  H11F12586   1.079   3.313  13.948  0.2171  0.7070  3.1290
   9323SM  H11G12587   1.065   3.479  13.885 -0.6353  0.4821  2.0893
   9323SM  C12F12588   1.196   3.462  14.058 -0.5507  0.0609  0.1633
   9323SM  H12F12589   1.247   3.553  14.020 -1.5551  0.2906 -0.6630
   9323SM  H12G12590   1.282   3.403  14.097 -0.7266 -1.7943 -2.0252
   9323SM  C13F12591   1.104   3.480  14.177  0.5379 -0.1756 -0.4385
   9323SM  H13F12592   1.161   3.536  14.254  1.7449  0.3848 -1.7068
   9323SM  H13G12593   1.081   3.376  14.211 -0.3340  0.1826  0.1049
   9323SM  C14F12594   0.979   3.561  14.157 -0.3412  0.5823  1.1041
   9323SM  H14F12595   0.922   3.536  14.065  0.0864  1.0707  0.7016
   9323SM  H14G12596   1.021   3.661  14.130 -0.2082  0.5503  1.1946
   9323SM  C15F12597   0.886   3.567  14.281  0.2572 -0.6519  0.1150
   9323SM  H15F12598   0.796   3.621  14.245  2.2063  2.5165 -0.3666
   9323SM  H15G12599   0.940   3.629  14.356  1.9854 -0.3598 -1.3004
   9323SM  C16F12600   0.862   3.438  14.345 -0.7649  0.4290 -0.6625
   9323SM  H16F12601   0.953   3.399  14.397 -1.2343  0.0161 -0.1343
   9323SM  H16G12602   0.838   3.369  14.261  1.0117 -1.0189 -0.0589
   9323SM  C17F12603   0.742   3.452  14.436 -0.4302  0.3535  0.0348
   9323SM  H17F12604   0.684   3.357  14.442 -0.1652  0.1968  0.1777
   9323SM  H17G12605   0.665   3.516  14.388 -1.4929 -2.7172 -2.7228
   9323SM  C18F12606   0.789   3.506  14.573  0.2294 -0.0462 -1.1728
   9323SM  H18F12607   0.844   3.601  14.557 -1.3338  1.3368  1.0246
   9323SM  H18G12608   0.872   3.441  14.609 -0.9908 -1.8064 -1.3969
   9323SM  C19F12609   0.681   3.511  14.683  0.0100 -0.6717 -0.3136
   9323SM  H19F12610   0.599   3.440  14.659 -2.1751  1.4342  0.5299
   9323SM  H19G12611   0.621   3.604  14.675  0.8983  0.0522  0.9234
   9323SM  C20F12612   0.732   3.488  14.825  0.2917  0.4538 -0.0633
   9323SM  H20F12613   0.780   3.389  14.835 -0.5455 -0.0754 -1.0639
   9323SM  H20G12614   0.635   3.484  14.879 -1.0353 -0.9640 -2.3822
   9323SM  C21F12615   0.834   3.588  14.871 -0.6089  0.0588 -0.8449
   9323SM  H21F12616   0.790   3.689  14.890 -2.6703 -0.8823 -0.3878
   9323SM  H21G12617   0.903   3.615  14.788 -0.0264 -1.9993 -1.0818
   9323SM  C22F12618   0.913   3.542  14.994 -0.1659  0.3587 -0.6538
   9323SM  H22F12619   0.964   3.448  14.965 -2.4296 -1.3291  0.5105
   9323SM  H22G12620   0.848   3.505  15.076  1.2333  1.5713  1.0675
   9323SM  C23F12621   1.007   3.642  15.057  0.3570 -0.0348  0.1805
   9323SM  H23F12622   1.043   3.603  15.155 -1.3198 -1.9914  0.0893
   9323SM  H23G12623   0.962   3.742  15.071  1.0835  0.2726  0.3567
   9323SM  H23H12624   1.093   3.661  14.990  0.2362 -1.9347 -0.5912
   9423SM     N12625   6.182   5.347  12.333 -0.3537 -0.1460  0.1440
   9423SM   C1512626   6.189   5.386  12.189  0.4581 -0.7086 -0.8128
   9423SM  H15A12627   6.137   5.480  12.171  1.1818 -0.0831  0.2549
   9423SM  H15B12628   6.124   5.319  12.136 -1.1560 -0.1767  0.4050
   9423SM  H15C12629   6.290   5.388  12.152  0.5330 -0.3723 -0.5961
   9423SM   C1412630   6.043   5.367  12.382 -0.0512  0.3868  0.9677
   9423SM  H14A12631   5.970   5.319  12.319  0.9885 -0.3712  0.3120
   9423SM  H14B12632   6.009   5.469  12.376  1.2942  0.8617  1.1174
   9423SM  H14C12633   6.033   5.338  12.486  2.1660  1.1204  1.4391
   9423SM   C1312634   6.223   5.203  12.343 -0.4847 -0.4245 -0.3451
   9423SM  H13A12635   6.208   5.181  12.448  1.3842  0.6149  0.1821
   9423SM  H13B12636   6.326   5.180  12.319  0.5327 -0.2033  3.2517
   9423SM  H13C12637   6.156   5.137  12.290 -3.2539  1.7485  0.2391
   9423SM   C1212638   6.276   5.442  12.404  0.6327  0.3059  0.2515
   9423SM  H12A12639   6.257   5.544  12.372 -0.5239  0.0916  0.2232
   9423SM  H12B12640   6.377   5.426  12.367  0.5619 -0.5178  0.4009
   9423SM   C1112641   6.287   5.429  12.557  0.0969  0.7388 -0.5524
   9423SM  H11A12642   6.299   5.321  12.578 -0.0249  0.1658 -3.0679
   9423SM  H11B12643   6.190   5.452  12.606 -0.8812 -2.4919 -0.7700
   9423SM     P12644   6.526   5.505  12.596 -0.2627 -0.0074 -0.3701
   9423SM   O1312645   6.569   5.399  12.498 -0.2899 -0.0424  0.0356
   9423SM   O1412646   6.586   5.640  12.581 -0.0884 -0.3237  0.5788
   9423SM   O1112647   6.565   5.457  12.738  0.1892 -0.3718  0.4927
   9423SM   O1212648   6.376   5.526  12.616 -0.1743  1.0180 -0.0948
   9423SM   C1S12649   6.471   5.472  12.848 -0.2590 -0.4888 -0.2150
   9423SM   H1S12650   6.401   5.386  12.838  0.3939 -0.8097 -2.3414
   9423SM   H1T12651   6.406   5.562  12.847 -2.0500 -1.6834  1.4413
   9423SM    NF12652   6.437   5.481  13.087 -0.2409 -0.3314  0.2222
   9423SM   HNF12653   6.439   5.563  13.143  0.6055 -0.9727  1.1709
   9423SM   C2S12654   6.540   5.460  12.992 -1.0513  0.2452  0.1661
   9423SM   H2S12655   6.582   5.359  13.008  1.0501  1.1282  0.4695
   9423SM   C3S12656   6.663   5.552  13.013  0.3872 -0.1801  0.2042
   9423SM   H3S12657   6.628   5.656  13.024  0.9609  0.0079  0.2837
   9423SM    O312658   6.752   5.540  12.907 -0.0024  0.2205 -0.3339
   9423SM   HO312659   6.705   5.494  12.837  2.5963 -1.0962 -1.3341
   9423SM   C4S12660   6.735   5.519  13.140  0.2489 -0.3695  0.2625
   9423SM   H4S12661   6.782   5.421  13.120 -1.6349 -1.3506  0.3779
   9423SM   C5S12662   6.756   5.590  13.253  0.6752  0.3111 -0.2383
   9423SM   H5S12663   6.737   5.698  13.247 -1.4321 -0.1014 -2.6258
   9423SM   C6S12664   6.829   5.530  13.372 -0.4044  0.0978 -0.3386
   9423SM   H6S12665   6.869   5.429  13.352 -1.5174 -0.2675 -0.7649
   9423SM   H6T12666   6.757   5.532  13.457 -0.2990 -2.3448 -0.1305
   9423SM   C7S12667   6.950   5.617  13.417  0.2551 -0.1274 -0.2130
   9423SM   H7S12668   6.920   5.717  13.455  1.6559  0.9366 -1.7489
   9423SM   H7T12669   7.005   5.649  13.326 -4.2100  0.5527 -2.9598
   9423SM   C8S12670   7.039   5.538  13.510  0.0613 -0.4439  0.7786
   9423SM   H8S12671   7.092   5.463  13.447 -0.1810 -0.2715  0.3664
   9423SM   H8T12672   6.979   5.478  13.581  2.1194 -0.1507  2.9249
   9423SM   C9S12673   7.153   5.623  13.577 -0.1447 -0.4910  0.5200
   9423SM   H9S12674   7.190   5.698  13.504 -3.3181  1.0975  0.3525
   9423SM   H9T12675   7.235   5.558  13.614  1.8270  0.8220 -1.3270
   9423SM  C10S12676   7.116   5.687  13.705  0.0294  0.1282 -0.3202
   9423SM  H10S12677   7.083   5.611  13.779  0.3661  0.7452  0.4831
   9423SM  H10T12678   7.030   5.749  13.674  0.8160  0.4007 -2.0769
   9423SM  C11S12679   7.224   5.774  13.771  0.3174 -0.1144  0.8003
   9423SM  H11S12680   7.237   5.856  13.697 -2.4680  0.5562  0.9228
   9423SM  H11T12681   7.313   5.708  13.765 -0.4771 -1.1779  0.2291
   9423SM  C12S12682   7.196   5.814  13.915  0.2531 -0.5273 -0.5316
   9423SM  H12S12683   7.096   5.861  13.922  0.3953 -0.5002  2.8213
   9423SM  H12T12684   7.282   5.880  13.938  1.5219 -2.5312  0.6922
   9423SM  C13S12685   7.204   5.704  14.024  0.0659  0.2232  0.6418
   9423SM  H13S12686   7.292   5.641  14.000 -1.2653 -1.4260 -0.1265
   9423SM  H13T12687   7.108   5.649  14.012  0.7794 -1.9256  3.7042
   9423SM  C14S12688   7.234   5.762  14.166 -0.1700 -0.7434 -0.4918
   9423SM  H14S12689   7.148   5.828  14.190  1.8751  2.5974 -1.6853
   9423SM  H14T12690   7.326   5.823  14.157 -1.5561  1.6027  0.2535
   9423SM  C15S12691   7.246   5.659  14.279  0.1349  1.2340 -0.2577
   9423SM  H15S12692   7.316   5.576  14.255 -2.4423 -1.6352  1.4103
   9423SM  H15T12693   7.151   5.604  14.292 -0.5253  2.7741  2.0161
   9423SM  C16S12694   7.294   5.733  14.403  0.1535 -0.2215  0.0391
   9423SM  H16S12695   7.218   5.813  14.408 -3.1252 -3.0746  0.2194
   9423SM  H16T12696   7.400   5.764  14.396  0.0246  0.0146 -0.9714
   9423SM  C17S12697   7.276   5.645  14.533  0.1951  0.3437 -0.3874
   9423SM  H17S12698   7.340   5.555  14.520  0.9688  0.7746  0.3366
   9423SM  H17T12699   7.170   5.613  14.548  0.3355 -0.2407 -0.6204
   9423SM  C18S12700   7.319   5.717  14.658  0.4019  0.8009 -0.2389
   9423SM  H18S12701   7.426   5.748  14.653  0.1889  1.6291  0.1196
   9423SM  H18T12702   7.294   5.667  14.755  0.5302  1.4437  0.1320
   9423SM  H18U12703   7.265   5.814  14.656 -1.6141 -0.2754 -1.1703
   9423SM   C1F12704   6.333   5.398  13.103  0.3736  0.0766 -0.0060
   9423SM    OF12705   6.334   5.286  13.054 -0.3651  0.1502  0.1462
   9423SM   C2F12706   6.214   5.447  13.191 -0.2261  0.1455  0.5214
   9423SM   H2F12707   6.116   5.437  13.139  0.7486 -0.5697 -1.2604
   9423SM   H2G12708   6.228   5.550  13.231 -0.2060  1.3714 -2.4228
   9423SM   C3F12709   6.193   5.347  13.312 -0.1333 -0.9105 -0.3429
   9423SM   H3F12710   6.194   5.239  13.285 -0.3523 -1.5813  2.1147
   9423SM   H3G12711   6.092   5.360  13.356  0.5853 -0.4616  1.2237
   9423SM   C4F12712   6.304   5.374  13.411 -0.2812  0.0741 -0.4845
   9423SM   H4F12713   6.408   5.378  13.373  0.1271 -0.7062  0.5057
   9423SM   H4G12714   6.293   5.297  13.491 -3.3721  0.8674 -0.0281
   9423SM   C5F12715   6.274   5.500  13.492 -0.0929  0.1920  0.8586
   9423SM   H5F12716   6.164   5.508  13.506  0.0728  0.7059  2.0069
   9423SM   H5G12717   6.301   5.601  13.455 -1.2093  1.3739  3.0400
   9423SM   C6F12718   6.334   5.492  13.636 -0.0836 -0.6308  0.4471
   9423SM   H6F12719   6.301   5.404  13.694 -0.2415 -1.4773 -0.8815
   9423SM   H6G12720   6.302   5.586  13.685 -0.6729 -0.2254 -0.6558
   9423SM   C7F12721   6.483   5.487  13.631 -0.8511  0.3909  0.2992
   9423SM   H7F12722   6.498   5.576  13.567 -2.7019 -0.0644 -0.8345
   9423SM   H7G12723   6.508   5.389  13.586 -1.9813  0.4804 -0.5702
   9423SM   C8F12724   6.549   5.511  13.767 -0.9998  0.4779  0.4520
   9423SM   H8F12725   6.512   5.436  13.840 -2.3361  1.7370  1.1252
   9423SM   H8G12726   6.520   5.607  13.814 -0.3312  1.3627 -0.8791
   9423SM   C9F12727   6.702   5.489  13.774  0.1931  0.1460  0.1907
   9423SM   H9F12728   6.758   5.554  13.704 -1.8095  1.1764 -0.5188
   9423SM   H9G12729   6.721   5.383  13.747  1.9944  0.8173 -1.4009
   9423SM  C10F12730   6.761   5.501  13.924  0.0971 -0.1899  0.5461
   9423SM  H10F12731   6.866   5.473  13.899 -0.3697 -1.4907 -0.0419
   9423SM  H10G12732   6.715   5.424  13.989  2.0202 -1.5015  0.4308
   9423SM  C11F12733   6.763   5.638  14.005  0.0777  0.4041 -0.2444
   9423SM  H11F12734   6.665   5.691  14.009  0.4489  1.1093  3.3846
   9423SM  H11G12735   6.837   5.714  13.972 -1.1420  2.6280  1.7978
   9423SM  C12F12736   6.801   5.610  14.154 -0.2536 -0.2740  0.6156
   9423SM  H12F12737   6.890   5.545  14.147 -1.8489 -2.4587 -0.8615
   9423SM  H12G12738   6.717   5.555  14.202 -2.1508  0.9441 -1.1494
   9423SM  C13F12739   6.820   5.739  14.238 -1.2255 -0.2031 -0.1006
   9423SM  H13F12740   6.737   5.813  14.223 -0.0588  0.9716 -1.0130
   9423SM  H13G12741   6.909   5.781  14.188 -2.2455  1.1533 -0.8577
   9423SM  C14F12742   6.852   5.722  14.387 -0.2808 -0.4519  0.0496
   9423SM  H14F12743   6.930   5.644  14.398  2.2068  2.0046  0.7428
   9423SM  H14G12744   6.753   5.702  14.434 -0.0002  0.7116  1.1917
   9423SM  C15F12745   6.898   5.858  14.454 -0.5829 -0.2341  0.4284
   9423SM  H15F12746   6.823   5.935  14.430 -1.2281  0.0331  3.0396
   9423SM  H15G12747   6.990   5.895  14.402 -0.9182 -1.2560 -0.9783
   9423SM  C16F12748   6.922   5.828  14.598  0.1089  0.7269  1.0812
   9423SM  H16F12749   6.957   5.723  14.603  0.6500  0.4294 -3.7391
   9423SM  H16G12750   6.824   5.834  14.649 -0.6850  0.1843 -0.3353
   9423SM  C17F12751   7.008   5.932  14.668 -0.4539  0.2757 -0.7795
   9423SM  H17F12752   7.100   5.963  14.615  0.3689  2.0724  1.5213
   9423SM  H17G12753   7.048   5.890  14.763  0.0973  1.9904 -0.2121
   9423SM  C18F12754   6.934   6.064  14.696  0.2599  0.8009  0.6370
   9423SM  H18F12755   6.842   6.035  14.750 -0.3236 -1.8802 -1.5620
   9423SM  H18G12756   6.909   6.123  14.605  1.1999  1.0880  0.5515
   9423SM  C19F12757   7.017   6.155  14.787 -0.2265  0.6171  0.1481
   9423SM  H19F12758   7.057   6.105  14.878 -2.6551 -2.8534 -0.4635
   9423SM  H19G12759   6.951   6.239  14.820 -1.0156  0.8022 -1.7582
   9423SM  C20F12760   7.132   6.224  14.712  0.6337 -0.1006 -0.5398
   9423SM  H20F12761   7.084   6.269  14.623  1.8225 -0.4941 -1.3891
   9423SM  H20G12762   7.207   6.148  14.684  0.6366 -0.3005 -0.0132
   9423SM  C21F12763   7.192   6.335  14.796 -0.2328 -0.0495  0.5747
   9423SM  H21F12764   7.112   6.409  14.816 -1.5200 -1.8230  2.2521
   9423SM  H21G12765   7.281   6.381  14.747 -0.2093 -1.2425 -0.5686
   9423SM  C22F12766   7.255   6.277  14.919  0.3650 -0.0247 -0.1955
   9423SM  H22F12767   7.315   6.185  14.900  0.7183  0.0743  0.4129
   9423SM  H22G12768   7.175   6.258  14.994 -0.4054  2.5627 -0.2991
   9423SM  C23F12769   7.349   6.380  14.988 -0.1668 -0.5915  0.2034
   9423SM  H23F12770   7.300   6.479  14.992  2.7530  0.9670 -0.1864
   9423SM  H23G12771   7.449   6.385  14.940 -0.8516  1.4147 -1.0997
   9423SM  H23H12772   7.367   6.343  15.091  0.7953  1.6614  0.8895
   9523SM     N12773   3.205   1.832  12.641 -0.4756 -0.1088 -0.3840
   9523SM   C1512774   3.198   1.924  12.767  0.1448  0.1663  0.4850
   9523SM  H15A12775   3.101   1.971  12.764 -1.4705 -2.9167 -0.2861
   9523SM  H15B12776   3.272   2.001  12.756 -0.3726  0.3713 -1.9108
   9523SM  H15C12777   3.207   1.859  12.853  0.2454 -1.8527 -0.9880
   9523SM   C1412778   3.193   1.925  12.521 -0.0077  0.6149 -0.4536
   9523SM  H14A12779   3.200   1.864  12.432  2.7424 -0.4761  0.4163
   9523SM  H14B12780   3.274   1.996  12.522  0.3236  0.2552  1.1107
   9523SM  H14C12781   3.097   1.975  12.520  0.4759  1.6174  0.8618
   9523SM   C1312782   3.348   1.772  12.646  0.0781  0.0382 -0.3342
   9523SM  H13A12783   3.373   1.718  12.736 -0.8699  1.7581  1.0229
   9523SM  H13B12784   3.420   1.850  12.630 -0.6580  0.5904 -1.0205
   9523SM  H13C12785   3.370   1.696  12.573  2.4533 -1.0597  1.3992
   9523SM   C1212786   3.097   1.721  12.643  0.8148 -0.6147  0.7611
   9523SM  H12A12787   3.009   1.771  12.681  0.5117 -0.4536 -0.1324
   9523SM  H12B12788   3.122   1.644  12.715  0.1740 -1.0621  0.5094
   9523SM   C1112789   3.060   1.645  12.512 -0.2043  0.9054 -0.0968
   9523SM  H11A12790   3.052   1.714  12.425  0.0444  0.5653 -0.3943
   9523SM  H11B12791   2.955   1.615  12.528  0.4496 -0.8799  1.1990
   9523SM     P12792   3.137   1.403  12.557 -0.2476  0.5154  0.1069
   9523SM   O1312793   3.011   1.345  12.513 -0.0225  0.1477 -0.7014
   9523SM   O1412794   3.263   1.327  12.550 -0.1404 -0.0359  0.0711
   9523SM   O1112795   3.119   1.447  12.705 -0.4033 -0.0030  0.3382
   9523SM   O1212796   3.155   1.537  12.476 -0.1388 -0.0217  0.2992
   9523SM   C1S12797   3.041   1.373  12.802 -0.4248 -0.0996 -0.6141
   9523SM   H1S12798   3.038   1.263  12.786 -1.8939 -0.1866  0.1259
   9523SM   H1T12799   2.943   1.425  12.800 -0.0433  0.6126 -2.0723
   9523SM    NF12800   3.009   1.330  13.041  0.1423  0.3204 -0.1213
   9523SM   HNF12801   2.938   1.387  13.081 -2.2739 -2.3710 -0.1923
   9523SM   C2S12802   3.101   1.393  12.949  0.2823 -0.6495 -0.4459
   9523SM   H2S12803   3.201   1.346  12.956  0.7641  0.4931  0.7115
   9523SM   C3S12804   3.122   1.544  12.978  0.2227  0.1502 -0.4342
   9523SM   H3S12805   3.030   1.604  12.959 -0.1619 -0.1898  0.3251
   9523SM    O312806   3.237   1.597  12.902 -0.2435  0.6145 -0.2118
   9523SM   HO312807   3.249   1.528  12.836  1.0774  0.1496  0.4754
   9523SM   C4S12808   3.161   1.568  13.122 -0.2971  0.1761  0.1456
   9523SM   H4S12809   3.085   1.625  13.178 -0.3992 -0.0116  0.1974
   9523SM   C5S12810   3.272   1.534  13.189 -0.5432 -0.0790 -0.0234
   9523SM   H5S12811   3.326   1.457  13.133 -1.9004 -3.0066  2.4213
   9523SM   C6S12812   3.317   1.556  13.328  0.2688 -0.8505 -0.3064
   9523SM   H6S12813   3.259   1.628  13.390 -0.6019 -0.8198 -1.1411
   9523SM   H6T12814   3.413   1.613  13.329 -1.1668  1.7732 -1.5154
   9523SM   C7S12815   3.335   1.419  13.405 -0.5274 -0.2404  0.1232
   9523SM   H7S12816   3.421   1.359  13.367  0.0594 -0.3932  1.6382
   9523SM   H7T12817   3.243   1.356  13.403 -2.2317  2.1521 -0.0829
   9523SM   C8S12818   3.377   1.452  13.550  0.0503  0.1123 -0.6198
   9523SM   H8S12819   3.454   1.533  13.545  0.5869 -0.2519  1.0637
   9523SM   H8T12820   3.438   1.366  13.584 -0.9661 -0.4626 -0.2416
   9523SM   C9S12821   3.249   1.474  13.640 -1.2159  0.0159  0.0620
   9523SM   H9S12822   3.209   1.371  13.633 -1.4917  0.1992 -1.3544
   9523SM   H9T12823   3.192   1.544  13.575  1.2130  1.4384 -0.6767
   9523SM  C10S12824   3.295   1.541  13.769  0.3735 -0.0818  0.0618
   9523SM  H10S12825   3.217   1.598  13.824 -2.4303 -2.9405 -0.7123
   9523SM  H10T12826   3.373   1.616  13.741 -0.6141  0.2297 -2.0171
   9523SM  C11S12827   3.359   1.446  13.873  0.4665 -0.2686 -0.0662
   9523SM  H11S12828   3.407   1.514  13.947 -0.4258  0.1762  0.1229
   9523SM  H11T12829   3.439   1.394  13.816  0.0030 -1.9466  0.7667
   9523SM  C12S12830   3.262   1.354  13.940  0.0888 -0.3546 -0.1513
   9523SM  H12S12831   3.321   1.278  13.996  1.2091  1.3461  1.0849
   9523SM  H12T12832   3.217   1.297  13.856 -0.0747  0.2025 -0.4399
   9523SM  C13S12833   3.155   1.407  14.034  0.0884  0.6022  0.0133
   9523SM  H13S12834   3.113   1.500  13.990  1.1726  0.6057 -1.0554
   9523SM  H13T12835   3.200   1.439  14.130  0.5975 -1.1616  0.3963
   9523SM  C14S12836   3.030   1.316  14.049 -0.0975  0.0369 -0.2035
   9523SM  H14S12837   3.058   1.224  14.106  1.2390 -0.9468 -2.3385
   9523SM  H14T12838   3.001   1.278  13.948  1.5488  0.4371 -0.8515
   9523SM  C15S12839   2.920   1.381  14.130  0.3407 -0.3563 -0.5028
   9523SM  H15S12840   2.891   1.471  14.071  1.1553  1.3989  1.6199
   9523SM  H15T12841   2.957   1.423  14.226  1.7794  1.9456 -1.9655
   9523SM  C16S12842   2.805   1.288  14.149  0.0768 -0.6458 -0.1825
   9523SM  H16S12843   2.825   1.201  14.214 -1.1277  0.2897  1.5182
   9523SM  H16T12844   2.772   1.238  14.055  1.5965 -0.0920 -1.0451
   9523SM  C17S12845   2.682   1.366  14.204  0.0814 -0.1148 -0.3117
   9523SM  H17S12846   2.652   1.442  14.130 -2.8178  0.1794  1.0209
   9523SM  H17T12847   2.715   1.425  14.292 -0.3651 -0.7366  0.2828
   9523SM  C18S12848   2.574   1.263  14.242  0.5085 -0.1086  0.0912
   9523SM  H18S12849   2.540   1.208  14.151  1.9738 -0.3804 -0.3327
   9523SM  H18T12850   2.490   1.320  14.285  0.2679 -0.7924  0.5367
   9523SM  H18U12851   2.610   1.188  14.315 -1.2558 -1.8835 -0.7657
   9523SM   C1F12852   3.014   1.199  13.069 -0.0834  0.1920 -0.1462
   9523SM    OF12853   3.082   1.115  13.013  0.1422  0.3696 -0.2185
   9523SM   C2F12854   2.915   1.164  13.174 -0.2876  0.3935 -0.3167
   9523SM   H2F12855   2.834   1.109  13.121 -0.2985  1.3046 -1.2937
   9523SM   H2G12856   2.879   1.254  13.228  0.9433  0.1626  0.9558
   9523SM   C3F12857   2.975   1.071  13.276  0.2250 -0.2278 -0.3044
   9523SM   H3F12858   3.006   0.980  13.221  0.3969  0.4752 -1.3980
   9523SM   H3G12859   2.897   1.040  13.350  1.7066 -0.3157  1.2933
   9523SM   C4F12860   3.083   1.129  13.364  0.6342 -0.3680 -0.1665
   9523SM   H4F12861   3.050   1.231  13.395  2.2477 -0.0844  0.7447
   9523SM   H4G12862   3.179   1.135  13.309  0.8536  3.2871  0.3203
   9523SM   C5F12863   3.124   1.040  13.476 -0.0891 -0.3091 -0.1553
   9523SM   H5F12864   3.206   1.082  13.537 -0.3863  1.3007 -0.8099
   9523SM   H5G12865   3.158   0.940  13.443  3.2468  0.5823  0.1644
   9523SM   C6F12866   3.013   1.026  13.588 -0.2632  0.1841  1.3939
   9523SM   H6F12867   2.921   0.992  13.536  1.5933 -0.0653 -2.0353
   9523SM   H6G12868   3.001   1.131  13.623  0.3465  0.6198  0.3461
   9523SM   C7F12869   3.042   0.921  13.695  0.0306 -0.4197  0.0054
   9523SM   H7F12870   3.150   0.894  13.696  0.3707  0.7406  2.5373
   9523SM   H7G12871   2.990   0.830  13.660  0.2159 -0.0906 -1.2048
   9523SM   C8F12872   2.986   0.957  13.832 -0.3549 -0.2653 -0.5854
   9523SM   H8F12873   2.875   0.960  13.831 -0.3382  2.0649 -0.5037
   9523SM   H8G12874   3.024   1.057  13.860 -1.5699 -0.6351  2.8817
   9523SM   C9F12875   3.029   0.857  13.933 -0.2525 -0.5580  0.1140
   9523SM   H9F12876   3.134   0.830  13.908  0.3540  1.4129  0.3321
   9523SM   H9G12877   2.967   0.766  13.919 -0.0952 -0.6937  0.3057
   9523SM  C10F12878   2.997   0.900  14.074  0.1664 -0.4432 -0.1642
   9523SM  H10F12879   2.909   0.835  14.093 -1.0337  1.4436  1.1303
   9523SM  H10G12880   2.962   1.004  14.091  0.3841 -0.1615 -1.3231
   9523SM  C11F12881   3.097   0.857  14.184 -0.8175 -0.4052 -0.4448
   9523SM  H11F12882   3.185   0.924  14.185 -0.6310 -0.6340 -1.1673
   9523SM  H11G12883   3.128   0.752  14.163  0.3264 -0.1319 -0.2032
   9523SM  C12F12884   3.037   0.869  14.326  0.1486  0.3657 -0.2538
   9523SM  H12F12885   3.115   0.820  14.388  0.4438 -2.3256 -2.6056
   9523SM  H12G12886   2.941   0.823  14.360 -0.1403  2.1537  1.5424
   9523SM  C13F12887   3.026   1.014  14.378 -0.2999  0.3928  0.2696
   9523SM  H13F12888   2.955   1.063  14.308 -0.1944 -0.3811 -0.3984
   9523SM  H13G12889   3.129   1.050  14.359 -0.1280 -1.2294 -2.5276
   9523SM  C14F12890   2.978   1.026  14.519  0.6410 -0.2562 -0.4680
   9523SM  H14F12891   3.065   1.005  14.585  0.5544  0.9342  0.0477
   9523SM  H14G12892   2.901   0.953  14.553  0.4609  1.2016  2.5999
   9523SM  C15F12893   2.930   1.162  14.541 -0.4735 -0.3635 -0.4549
   9523SM  H15F12894   2.867   1.188  14.454  0.0417  3.3732  0.1232
   9523SM  H15G12895   3.018   1.230  14.540  0.1097 -0.9493  2.1132
   9523SM  C16F12896   2.845   1.183  14.665 -0.1359  0.0407  0.3105
   9523SM  H16F12897   2.888   1.143  14.760 -1.7576 -0.5139  0.8668
   9523SM  H16G12898   2.758   1.115  14.648 -0.0031  0.4428 -2.2533
   9523SM  C17F12899   2.800   1.324  14.692 -0.0363 -0.1976 -0.5798
   9523SM  H17F12900   2.725   1.341  14.612  0.5189 -0.3631 -1.1428
   9523SM  H17G12901   2.889   1.388  14.674 -0.1196 -0.3394 -1.5540
   9523SM  C18F12902   2.730   1.352  14.832 -0.4945 -0.0436 -0.1273
   9523SM  H18F12903   2.807   1.326  14.907  0.5309 -0.5228 -1.3119
   9523SM  H18G12904   2.657   1.269  14.844 -0.6112  0.3235  2.0049
   9523SM  C19F12905   2.667   1.494  14.839 -0.4005  1.0117 -0.1807
   9523SM  H19F12906   2.743   1.574  14.827  1.1846 -0.4188 -0.0310
   9523SM  H19G12907   2.621   1.500  14.940  0.2102 -0.6652  0.2332
   9523SM  C20F12908   2.559   1.510  14.733 -0.1462 -0.1562 -0.0305
   9523SM  H20F12909   2.492   1.421  14.730 -1.0886  0.4506  1.7614
   9523SM  H20G12910   2.605   1.513  14.632 -0.2065  1.5678 -0.0340
   9523SM  C21F12911   2.460   1.623  14.749  0.1101  0.0727 -0.1447
   9523SM  H21F12912   2.377   1.623  14.675 -1.5559  0.5099  1.6039
   9523SM  H21G12913   2.501   1.724  14.729 -1.0050  0.1318 -2.4364
   9523SM  C22F12914   2.390   1.612  14.888  0.2988  0.0593  0.1924
   9523SM  H22F12915   2.470   1.624  14.964  0.4600  0.1503  0.0122
   9523SM  H22G12916   2.349   1.509  14.896 -1.7213  0.8291  0.3036
   9523SM  C23F12917   2.273   1.709  14.903  0.3434  0.7224  0.1743
   9523SM  H23F12918   2.200   1.688  14.823 -0.6033 -0.3892  1.2923
   9523SM  H23G12919   2.297   1.818  14.910 -2.2561  1.3057  1.3178
   9523SM  H23H12920   2.214   1.686  14.995  2.3589  3.0137  2.2109
   9623SM     N12921   4.425   0.981  12.558  0.3052 -0.1166  0.5158
   9623SM   C1512922   4.317   1.078  12.524 -0.3467 -0.4506  0.5636
   9623SM  H15A12923   4.259   1.115  12.607 -0.1414  0.1298  0.4528
   9623SM  H15B12924   4.244   1.032  12.460  1.2733 -1.1676 -0.8726
   9623SM  H15C12925   4.362   1.156  12.463 -1.8112 -1.4000 -1.9024
   9623SM   C1412926   4.478   0.918  12.433  0.0480  0.7308  0.5591
   9623SM  H14A12927   4.515   0.993  12.365  1.2379  0.9968  1.4648
   9623SM  H14B12928   4.402   0.855  12.389  0.0533 -0.8131  2.6073
   9623SM  H14C12929   4.560   0.854  12.462 -0.6195 -0.0128  0.8541
   9623SM   C1312930   4.537   1.059  12.628  0.1663  0.8219 -0.1017
   9623SM  H13A12931   4.594   1.119  12.559 -0.7167 -0.2764 -1.8728
   9623SM  H13B12932   4.611   0.993  12.673  1.2422  0.8498 -1.7226
   9623SM  H13C12933   4.501   1.119  12.710  1.1382 -0.0996  1.0435
   9623SM   C1212934   4.380   0.882  12.667 -0.0654  0.8142  0.4628
   9623SM  H12A12935   4.362   0.952  12.747  0.3541 -1.0316  2.2585
   9623SM  H12B12936   4.458   0.818  12.706 -0.5587  0.4731  0.9095
   9623SM   C1112937   4.251   0.807  12.656  0.0328  0.5998  0.7450
   9623SM  H11A12938   4.163   0.875  12.655  0.8219  1.6464  1.2691
   9623SM  H11B12939   4.221   0.745  12.744 -0.8515  0.2387  0.2067
   9623SM     P12940   4.296   0.586  12.514  0.2229 -0.3502  0.6976
   9623SM   O1312941   4.198   0.533  12.415  0.0771 -0.6201  0.1531
   9623SM   O1412942   4.440   0.587  12.482 -0.2565 -0.7754 -0.3272
   9623SM   O1112943   4.269   0.528  12.657 -0.0774  0.4713  0.1962
   9623SM   O1212944   4.253   0.738  12.529 -0.3191 -0.4058 -0.1040
   9623SM   C1S12945   4.375   0.524  12.751  0.3514  0.0502 -0.3777
   9623SM   H1S12946   4.442   0.613  12.750  0.5688 -0.1073  0.1011
   9623SM   H1T12947   4.446   0.445  12.720 -0.5974 -0.0698 -2.4937
   9623SM    NF12948   4.416   0.506  13.007  0.4428 -0.1008  0.3845
   9623SM   HNF12949   4.443   0.420  13.050  0.6130  0.6755  1.9148
   9623SM   C2S12950   4.314   0.515  12.901  0.7470  0.5972  0.1869
   9623SM   H2S12951   4.254   0.606  12.923 -0.8222 -0.4938  0.6204
   9623SM   C3S12952   4.211   0.389  12.901 -0.0609 -0.0514  0.2063
   9623SM   H3S12953   4.258   0.295  12.866 -0.7398  0.2171 -1.5277
   9623SM    O312954   4.107   0.413  12.810 -0.0230 -0.2669  0.0586
   9623SM   HO312955   4.156   0.459  12.742  1.4938 -1.3593  0.3671
   9623SM   C4S12956   4.142   0.384  13.038  0.1298 -0.2925  0.2152
   9623SM   H4S12957   4.072   0.463  13.066 -0.2850 -0.8954  0.9279
   9623SM   C5S12958   4.182   0.289  13.123 -0.1668 -0.4579  0.5986
   9623SM   H5S12959   4.252   0.212  13.086 -1.1676 -1.7740  1.3358
   9623SM   C6S12960   4.123   0.270  13.260 -0.4418  0.0072  0.3182
   9623SM   H6S12961   4.116   0.161  13.279 -0.0782 -0.1338 -0.3137
   9623SM   H6T12962   4.016   0.294  13.245 -0.4461 -1.0109 -1.5824
   9623SM   C7S12963   4.184   0.355  13.375 -0.2083 -0.7780  0.1475
   9623SM   H7S12964   4.122   0.342  13.467 -1.4237  0.5158 -0.4519
   9623SM   H7T12965   4.191   0.463  13.351 -1.3992 -0.4453  1.1576
   9623SM   C8S12966   4.330   0.311  13.407  0.2810  0.6826  0.2261
   9623SM   H8S12967   4.386   0.329  13.313  0.5141  0.0173  0.2354
   9623SM   H8T12968   4.331   0.201  13.423 -0.3323  0.4413 -1.2046
   9623SM   C9S12969   4.398   0.386  13.523 -0.3305 -0.2946  0.2795
   9623SM   H9S12970   4.343   0.361  13.616 -1.0870 -0.4870 -0.2090
   9623SM   H9T12971   4.405   0.494  13.501 -1.7892 -0.4390 -1.0891
   9623SM  C10S12972   4.543   0.336  13.550  0.2638  0.1332  0.0681
   9623SM  H10S12973   4.591   0.309  13.453 -0.1178  2.0256 -0.6973
   9623SM  H10T12974   4.526   0.244  13.610  0.4632  0.3120  0.4029
   9623SM  C11S12975   4.631   0.428  13.638 -0.1742 -0.3738  0.2750
   9623SM  H11S12976   4.652   0.521  13.581 -3.2767  1.0614  1.2645
   9623SM  H11T12977   4.731   0.380  13.651  0.4898  0.8224 -0.2576
   9623SM  C12S12978   4.558   0.462  13.771  0.7282 -0.2035 -0.0837
   9623SM  H12S12979   4.528   0.370  13.824  0.0404  0.9802  1.6590
   9623SM  H12T12980   4.463   0.514  13.746 -0.2440 -1.1059  1.5477
   9623SM  C13S12981   4.644   0.550  13.870 -0.0829 -0.6624 -0.2435
   9623SM  H13S12982   4.664   0.651  13.830  0.1967 -0.1593  1.0985
   9623SM  H13T12983   4.746   0.507  13.881  0.8436  1.3547 -0.4737
   9623SM  C14S12984   4.574   0.557  14.013 -0.6707 -0.7494 -0.2642
   9623SM  H14S12985   4.480   0.616  14.009  1.1512  2.4315 -0.0840
   9623SM  H14T12986   4.627   0.630  14.078 -1.0822 -0.8909  0.2351
   9623SM  C15S12987   4.559   0.431  14.095  0.2199  0.1300 -0.2167
   9623SM  H15S12988   4.657   0.378  14.098  1.2998  2.0642  0.7614
   9623SM  H15T12989   4.487   0.364  14.043  0.4327 -0.6827  0.5213
   9623SM  C16S12990   4.527   0.445  14.248  0.1321 -0.3052  0.2104
   9623SM  H16S12991   4.445   0.520  14.254 -0.0666 -0.5014  0.0067
   9623SM  H16T12992   4.615   0.488  14.299 -0.6471  1.5835  0.0448
   9623SM  C17S12993   4.500   0.312  14.312  0.3880 -0.3887 -0.4044
   9623SM  H17S12994   4.538   0.227  14.250 -1.1679 -1.0826 -0.4492
   9623SM  H17T12995   4.392   0.287  14.303 -0.3857  2.0573  1.2679
   9623SM  C18S12996   4.538   0.306  14.463 -0.6761 -0.1828 -0.0008
   9623SM  H18S12997   4.511   0.208  14.507  0.3322 -0.5654 -0.2022
   9623SM  H18T12998   4.473   0.371  14.527  2.7200  2.3112  1.2261
   9623SM  H18U12999   4.642   0.334  14.492 -1.2704  0.4592  1.6443
   9623SM   C1F13000   4.499   0.604  13.040  0.2240  0.3214 -0.5188
   9623SM    OF13001   4.497   0.713  12.985 -0.4473 -0.4684 -0.2889
   9623SM   C2F13002   4.599   0.581  13.151  0.0783  0.6772 -0.2386
   9623SM   H2F13003   4.692   0.549  13.099 -1.2464 -0.7184 -1.8803
   9623SM   H2G13004   4.565   0.505  13.225 -0.0329  1.9928  1.0901
   9623SM   C3F13005   4.629   0.715  13.227 -0.6695  1.0780 -0.3078
   9623SM   H3F13006   4.536   0.749  13.279 -1.6610 -0.5439 -0.9165
   9623SM   H3G13007   4.655   0.799  13.160  1.3636  0.2657 -0.5938
   9623SM   C4F13008   4.735   0.703  13.337  0.1734 -0.0305 -0.5241
   9623SM   H4F13009   4.703   0.624  13.408  2.3270 -1.0374 -0.5801
   9623SM   H4G13010   4.749   0.793  13.402 -0.6405 -0.6705  0.5744
   9623SM   C5F13011   4.874   0.676  13.281 -0.5495  0.0246 -0.2126
   9623SM   H5F13012   4.892   0.751  13.201 -0.1157  0.4113  0.2374
   9623SM   H5G13013   4.887   0.572  13.243 -0.9481  0.0753 -0.4931
   9623SM   C6F13014   4.986   0.698  13.383 -0.0942 -0.3242 -0.2476
   9623SM   H6F13015   4.964   0.785  13.449  0.5474 -2.1083  2.4841
   9623SM   H6G13016   5.079   0.721  13.327 -1.1483 -0.6756 -2.2062
   9623SM   C7F13017   5.004   0.576  13.477 -0.7770  0.1921  0.4085
   9623SM   H7F13018   5.032   0.494  13.407 -0.3028  0.2721  0.4988
   9623SM   H7G13019   4.912   0.547  13.531  0.1100  0.4444  2.1185
   9623SM   C8F13020   5.115   0.592  13.592  0.0131  0.0230 -0.2094
   9623SM   H8F13021   5.104   0.698  13.626 -0.6982  0.3051 -1.2630
   9623SM   H8G13022   5.217   0.577  13.551 -0.2730 -1.4760 -0.4178
   9623SM   C9F13023   5.090   0.496  13.704 -0.4653 -0.0180  0.1187
   9623SM   H9F13024   4.993   0.523  13.752  0.1612  2.2467  0.2608
   9623SM   H9G13025   5.177   0.503  13.772 -0.8588  1.0971  0.5349
   9623SM  C10F13026   5.088   0.353  13.666 -0.3806 -0.8236  0.7136
   9623SM  H10F13027   5.187   0.331  13.622 -0.9257 -5.1818  1.1771
   9623SM  H10G13028   5.016   0.350  13.582 -1.3038 -0.6457  1.4785
   9623SM  C11F13029   5.051   0.251  13.767 -0.4826  0.1947  0.1688
   9623SM  H11F13030   4.959   0.277  13.826  0.8438  0.7607  2.1003
   9623SM  H11G13031   5.139   0.249  13.834  0.4309  1.4079 -0.9469
   9623SM  C12F13032   5.041   0.102  13.718  0.3967  0.3858 -0.5811
   9623SM  H12F13033   5.118   0.089  13.639  0.9716  0.6052 -0.0720
   9623SM  H12G13034   4.949   0.084  13.659  0.8514  0.5123 -1.3328
   9623SM  C13F13035   5.071  -0.006  13.825  0.5976  0.3032  0.1252
   9623SM  H13F13036   4.984  -0.026  13.891 -0.8103  0.9039 -1.5000
   9623SM  H13G13037   5.168   0.008  13.878  0.0998 -1.9256  1.7782
   9623SM  C14F13038   5.086  -0.133  13.749  0.2575 -0.3704 -0.3325
   9623SM  H14F13039   5.172  -0.127  13.679 -0.8723  0.7331 -1.6826
   9623SM  H14G13040   4.994  -0.149  13.689  1.4858 -0.4657 -2.2808
   9623SM  C15F13041   5.092  -0.261  13.833 -0.0590 -0.2762  0.5740
   9623SM  H15F13042   5.167  -0.238  13.911 -1.6126  1.1172  1.7128
   9623SM  H15G13043   5.128  -0.343  13.766 -1.2889 -1.7650  1.6482
   9623SM  C16F13044   4.964  -0.315  13.899  0.0685  0.2656 -0.0421
   9623SM  H16F13045   4.900  -0.227  13.919  1.7138  1.5939 -0.3800
   9623SM  H16G13046   4.988  -0.364  13.996 -1.0817 -0.9789 -0.3440
   9623SM  C17F13047   4.896  -0.436  13.819 -0.7299  0.3138 -0.6055
   9623SM  H17F13048   4.984  -0.503  13.806  0.5417  1.5194  1.2706
   9623SM  H17G13049   4.864  -0.397  13.721 -1.7632  0.8361 -0.0684
   9623SM  C18F13050   4.778  -0.504  13.889 -0.2042 -0.1092 -0.0473
   9623SM  H18F13051   4.707  -0.420  13.900 -0.5712 -0.2174 -1.4273
   9623SM  H18G13052   4.801  -0.546  13.989 -2.5962 -0.2409  0.4995
   9623SM  C19F13053   4.710  -0.624  13.811  0.1740  0.1894 -1.0293
   9623SM  H19F13054   4.693  -0.579  13.710  1.5253  0.3162 -1.2203
   9623SM  H19G13055   4.613  -0.643  13.860  0.2694  1.9933 -0.0733
   9623SM  C20F13056   4.793  -0.753  13.804  0.2596  0.0522  0.0447
   9623SM  H20F13057   4.863  -0.774  13.888  0.4189 -1.3036 -0.4072
   9623SM  H20G13058   4.862  -0.757  13.717  0.6382 -3.3668  0.3541
   9623SM  C21F13059   4.703  -0.883  13.798  0.7256  0.8795 -0.6842
   9623SM  H21F13060   4.770  -0.960  13.756  3.2410  2.8032 -0.4597
   9623SM  H21G13061   4.634  -0.861  13.714 -0.3531 -0.6906 -0.2375
   9623SM  C22F13062   4.622  -0.929  13.915 -0.3999 -0.1257  0.0191
   9623SM  H22F13063   4.581  -1.032  13.903  0.5825 -0.8582  2.4664
   9623SM  H22G13064   4.529  -0.867  13.919 -0.0135  0.4454  0.3921
   9623SM  C23F13065   4.683  -0.924  14.056 -0.4908  0.5935 -0.0743
   9623SM  H23F13066   4.712  -0.823  14.090  1.7507 -0.0907  0.2200
   9623SM  H23G13067   4.771  -0.991  14.062 -0.8398  0.2274  1.1651
   9623SM  H23H13068   4.615  -0.975  14.127  0.2671 -2.3896 -1.3078
   9723SM     N13069   5.848   6.729  12.266 -0.5524  0.1876  0.4728
   9723SM   C1513070   5.831   6.594  12.201 -1.1229  0.4724  0.2063
   9723SM  H15A13071   5.905   6.592  12.123 -1.4707  0.2941 -0.1235
   9723SM  H15B13072   5.734   6.567  12.162 -1.0129  2.6213 -1.7452
   9723SM  H15C13073   5.854   6.521  12.277  0.0299  0.8646  0.2433
   9723SM   C1413074   5.988   6.726  12.314  0.0366  0.0005  0.1121
   9723SM  H14A13075   6.020   6.819  12.358  0.7196  0.5202 -1.4211
   9723SM  H14B13076   6.059   6.720  12.233  0.7943 -2.2076  0.8664
   9723SM  H14C13077   6.008   6.646  12.383  0.1176  1.2443  1.5812
   9723SM   C1313078   5.824   6.839  12.168  0.3620  0.3778 -0.1640
   9723SM  H13A13079   5.900   6.849  12.092  0.1673  2.6498 -0.1167
   9723SM  H13B13080   5.831   6.937  12.212  2.6188  0.1487  0.1412
   9723SM  H13C13081   5.724   6.831  12.129  1.0479 -2.0954 -1.7211
   9723SM   C1213082   5.756   6.753  12.386  0.4478  0.5018  0.8802
   9723SM  H12A13083   5.657   6.747  12.343  0.6853 -1.7548  0.5170
   9723SM  H12B13084   5.768   6.856  12.417 -2.2417  0.9994  0.5322
   9723SM   C1113085   5.762   6.669  12.515 -0.8885  0.1842  0.2064
   9723SM  H11A13086   5.678   6.686  12.586 -0.7811 -0.6001  0.5361
   9723SM  H11B13087   5.856   6.698  12.566 -0.1877  0.9657 -1.4623
   9723SM     P13088   5.861   6.424  12.547  0.1722 -0.1432  0.1893
   9723SM   O1313089   5.880   6.315  12.449  0.2444  0.1711 -0.3056
   9723SM   O1413090   5.989   6.491  12.580 -0.4700 -0.1356 -0.5322
   9723SM   O1113091   5.793   6.371  12.675 -0.1430  0.3476  0.1526
   9723SM   O1213092   5.756   6.531  12.492  0.4818 -0.2462  0.0667
   9723SM   C1S13093   5.764   6.458  12.787  0.1260  0.1226 -0.0162
   9723SM   H1S13094   5.696   6.537  12.747 -0.2006  0.4067  1.0836
   9723SM   H1T13095   5.851   6.514  12.829 -0.9642  1.3697  0.6438
   9723SM    NF13096   5.694   6.474  13.023 -0.0925 -0.0074  0.2346
   9723SM   HNF13097   5.772   6.479  13.085 -0.9837  2.4206  1.2857
   9723SM   C2S13098   5.698   6.385  12.909 -0.5738 -0.5729 -0.2875
   9723SM   H2S13099   5.596   6.354  12.879 -0.1263 -2.0078 -0.3907
   9723SM   C3S13100   5.770   6.248  12.951  0.3084 -0.3681  0.0736
   9723SM   H3S13101   5.872   6.287  12.974 -0.2080  1.2290 -0.2212
   9723SM    O313102   5.777   6.144  12.856  0.3078  0.2146  0.6341
   9723SM   HO313103   5.747   6.180  12.772  0.8465 -0.4784  0.1377
   9723SM   C4S13104   5.712   6.198  13.079  0.3147 -0.4699  0.1672
   9723SM   H4S13105   5.607   6.228  13.096  0.0893  0.1967 -2.0369
   9723SM   C5S13106   5.770   6.126  13.175 -0.2283 -0.0140 -0.1664
   9723SM   H5S13107   5.868   6.078  13.157 -0.6665 -1.1268  0.3578
   9723SM   C6S13108   5.700   6.078  13.297 -0.3691  0.8852 -0.0568
   9723SM   H6S13109   5.749   5.987  13.336 -1.2389 -0.0369 -1.0521
   9723SM   H6T13110   5.595   6.053  13.272 -0.5832 -0.6665  2.0886
   9723SM   C7S13111   5.679   6.179  13.418  0.2105  0.0061 -0.0153
   9723SM   H7S13112   5.624   6.269  13.384  1.0615  0.6268  0.2323
   9723SM   H7T13113   5.780   6.209  13.453  1.1836 -0.4479 -2.2425
   9723SM   C8S13114   5.615   6.102  13.536 -0.0638  0.9234  0.1868
   9723SM   H8S13115   5.681   6.015  13.557  0.5026  1.1904 -0.4586
   9723SM   H8T13116   5.515   6.064  13.507 -0.0778 -0.2524  1.6652
   9723SM   C9S13117   5.608   6.179  13.665  0.2948 -0.1536  0.2609
   9723SM   H9S13118   5.520   6.244  13.648 -0.3398 -1.4527 -1.8145
   9723SM   H9T13119   5.702   6.235  13.680  0.0993  1.1897 -2.7695
   9723SM  C10S13120   5.579   6.089  13.782  0.5161 -0.3617  0.0059
   9723SM  H10S13121   5.676   6.043  13.809 -0.1854 -0.3700  2.7686
   9723SM  H10T13122   5.507   6.008  13.759  1.3686 -0.4716 -2.6152
   9723SM  C11S13123   5.529   6.175  13.897 -0.1425 -0.1370 -1.4612
   9723SM  H11S13124   5.429   6.214  13.866 -0.5496 -0.6642 -0.8244
   9723SM  H11T13125   5.596   6.258  13.925  0.2258 -0.2872 -1.8865
   9723SM  C12S13126   5.502   6.088  14.025  0.8856 -0.0631  0.4977
   9723SM  H12S13127   5.592   6.030  14.057 -0.2787 -3.1427 -1.3463
   9723SM  H12T13128   5.420   6.017  14.004 -1.5787  2.0687  2.3808
   9723SM  C13S13129   5.459   6.169  14.146  0.1369  0.2125  0.3441
   9723SM  H13S13130   5.380   6.239  14.113  0.8776  1.0934  0.3639
   9723SM  H13T13131   5.545   6.235  14.173 -0.5292  0.3111  2.4361
   9723SM  C14S13132   5.408   6.087  14.272 -0.4652  0.3729 -0.1885
   9723SM  H14S13133   5.474   5.998  14.284 -0.0625  0.2701 -2.6192
   9723SM  H14T13134   5.301   6.061  14.260 -0.6539  0.0004  2.0034
   9723SM  C15S13135   5.416   6.170  14.405 -0.4784 -0.0015 -0.5059
   9723SM  H15S13136   5.340   6.251  14.399 -1.2520 -0.6255  0.5377
   9723SM  H15T13137   5.517   6.215  14.399 -1.0479  1.1656 -2.0064
   9723SM  C16S13138   5.402   6.081  14.534 -0.4801 -0.0313  0.8799
   9723SM  H16S13139   5.476   5.998  14.539  0.2380  0.5879  0.8101
   9723SM  H16T13140   5.304   6.030  14.541 -0.0901 -0.6999  1.6521
   9723SM  C17S13141   5.429   6.160  14.660  0.2338  0.1302 -0.0041
   9723SM  H17S13142   5.519   6.222  14.641  1.0079 -1.1649 -0.6589
   9723SM  H17T13143   5.461   6.094  14.743  0.5985 -0.1467 -0.3686
   9723SM  C18S13144   5.301   6.222  14.712 -0.9118 -0.1476 -0.4360
   9723SM  H18S13145   5.265   6.301  14.643 -2.0200  0.7525  1.1087
   9723SM  H18T13146   5.318   6.277  14.807 -1.7868 -1.2874  0.4078
   9723SM  H18U13147   5.224   6.143  14.723  0.9536 -2.1011 -0.6033
   9723SM   C1F13148   5.602   6.573  13.010 -0.2811 -0.0676  0.4884
   9723SM    OF13149   5.521   6.558  12.917 -0.1773  0.1856  0.0591
   9723SM   C2F13150   5.602   6.692  13.101  0.5871 -0.3178 -0.3280
   9723SM   H2F13151   5.605   6.772  13.024  0.1817 -0.5914 -0.6356
   9723SM   H2G13152   5.693   6.706  13.163  1.5621 -1.3190 -1.4633
   9723SM   C3F13153   5.471   6.725  13.179 -0.3609  0.1221 -0.4975
   9723SM   H3F13154   5.382   6.729  13.113 -1.4441  0.2018  0.9160
   9723SM   H3G13155   5.490   6.827  13.218  0.6337 -0.5645  0.9507
   9723SM   C4F13156   5.441   6.627  13.291 -0.0543  0.0932  0.0854
   9723SM   H4F13157   5.429   6.521  13.259  1.3658 -0.9811  2.7764
   9723SM   H4G13158   5.353   6.657  13.353  1.4346  1.1231  1.7961
   9723SM   C5F13159   5.552   6.610  13.404  0.1593 -0.0885  0.0699
   9723SM   H5F13160   5.619   6.698  13.407  1.3581 -0.9022 -1.4198
   9723SM   H5G13161   5.626   6.530  13.381 -0.6968 -0.4221 -1.6999
   9723SM   C6F13162   5.489   6.587  13.534  0.2246 -0.3859 -0.1472
   9723SM   H6F13163   5.430   6.494  13.520 -1.1991  0.4598 -0.0227
   9723SM   H6G13164   5.412   6.666  13.551 -0.8469 -1.7539  1.7757
   9723SM   C7F13165   5.590   6.582  13.652 -0.3825  0.9894 -0.3308
   9723SM   H7F13166   5.657   6.670  13.661 -0.3366  0.7243  2.7898
   9723SM   H7G13167   5.649   6.495  13.614 -1.3524  0.5787 -0.9402
   9723SM   C8F13168   5.523   6.564  13.785  0.1009  1.0972  0.9624
   9723SM   H8F13169   5.471   6.467  13.796  1.3650  0.1984 -0.5400
   9723SM   H8G13170   5.451   6.648  13.797  0.2913  1.1167  2.0566
   9723SM   C9F13171   5.610   6.582  13.904 -0.2657  0.0008 -0.2620
   9723SM   H9F13172   5.658   6.682  13.900  1.2633 -0.6586  0.9462
   9723SM   H9G13173   5.697   6.514  13.894 -0.4982 -0.2235 -0.7879
   9723SM  C10F13174   5.534   6.583  14.042 -0.2427  0.6343  0.0435
   9723SM  H10F13175   5.470   6.493  14.045 -0.9658  1.1046 -0.8049
   9723SM  H10G13176   5.467   6.672  14.039 -1.7412 -0.3337  2.1939
   9723SM  C11F13177   5.632   6.581  14.161 -0.2436 -0.2274  0.6099
   9723SM  H11F13178   5.691   6.675  14.158 -1.2984  0.4363 -0.9861
   9723SM  H11G13179   5.692   6.488  14.174 -1.7847 -1.2849  0.4670
   9723SM  C12F13180   5.558   6.593  14.291  0.4080  0.1308 -0.4468
   9723SM  H12F13181   5.485   6.510  14.302 -3.1929  3.0625 -0.5340
   9723SM  H12G13182   5.486   6.676  14.296 -0.6113 -0.8038  2.4877
   9723SM  C13F13183   5.648   6.605  14.412  0.0014  0.1600  0.3057
   9723SM  H13F13184   5.696   6.705  14.410  1.9486 -0.7308 -1.7348
   9723SM  H13G13185   5.726   6.527  14.404 -0.3371 -0.3915  1.9671
   9723SM  C14F13186   5.558   6.578  14.535 -0.4185 -0.4446 -0.2133
   9723SM  H14F13187   5.501   6.483  14.528 -1.5751  0.0079  2.1060
   9723SM  H14G13188   5.482   6.658  14.543 -0.8879 -0.9818  1.0157
   9723SM  C15F13189   5.650   6.566  14.656 -0.1738 -0.4858  0.2116
   9723SM  H15F13190   5.702   6.663  14.671 -0.4456 -0.4883  1.2193
   9723SM  H15G13191   5.728   6.489  14.641  1.1775  1.1509 -1.6429
   9723SM  C16F13192   5.569   6.528  14.783  0.4746  0.1165  0.7129
   9723SM  H16F13193   5.520   6.429  14.770  0.3606  0.0333  1.6720
   9723SM  H16G13194   5.486   6.602  14.789 -0.4104 -0.9683  3.3985
   9723SM  C17F13195   5.645   6.519  14.912 -0.5625 -0.6163 -0.0711
   9723SM  H17F13196   5.738   6.459  14.909  0.2899  0.6882 -0.4652
   9723SM  H17G13197   5.568   6.497  14.990 -0.5930  0.2400  0.1438
   9723SM  C18F13198   5.686   6.656  14.966  0.0529  0.3660 -0.7279
   9723SM  H18F13199   5.749   6.711  14.893  0.1453  1.1360 -0.0876
   9723SM  H18G13200   5.741   6.651  15.063 -2.9568  1.0559  1.1577
   9723SM  C19F13201   5.573   6.751  15.007  0.2981 -0.2706  0.0766
   9723SM  H19F13202   5.527   6.705  15.097 -2.8855  1.6328 -0.4425
   9723SM  H19G13203   5.500   6.786  14.931 -0.1945  1.8593  1.4329
   9723SM  C20F13204   5.634   6.874  15.074  0.2729 -0.0994 -0.2764
   9723SM  H20F13205   5.743   6.858  15.090  0.3356 -1.0295 -1.5015
   9723SM  H20G13206   5.586   6.876  15.174 -0.0551  0.5878 -0.4386
   9723SM  C21F13207   5.611   7.001  14.997  0.8415 -0.8104 -0.5092
   9723SM  H21F13208   5.501   7.008  14.985  0.7807 -0.7009  0.0771
   9723SM  H21G13209   5.651   7.006  14.894 -2.0005 -0.0402 -1.6709
   9723SM  C22F13210   5.661   7.130  15.073 -0.0798 -0.2141 -0.1348
   9723SM  H22F13211   5.771   7.118  15.079 -0.0809 -0.5454 -0.7782
   9723SM  H22G13212   5.623   7.140  15.177 -0.0116 -0.4544 -0.0865
   9723SM  C23F13213   5.632   7.249  14.990 -0.4432  0.0800 -0.4876
   9723SM  H23F13214   5.524   7.258  14.963 -0.6445  1.4056  0.6625
   9723SM  H23G13215   5.691   7.251  14.896 -1.0753 -1.3776 -0.9466
   9723SM  H23H13216   5.649   7.338  15.053 -1.5079 -0.9072  1.2834
   9823SM     N13217   7.359   6.536  12.309 -0.4274  0.3288  0.4767
   9823SM   C1513218   7.361   6.669  12.242 -0.3175 -0.0203 -0.1861
   9823SM  H15A13219   7.388   6.748  12.310  1.7449  0.8155 -1.8552
   9823SM  H15B13220   7.276   6.689  12.179 -0.1057  1.4107 -0.0559
   9823SM  H15C13221   7.447   6.677  12.177  0.6068 -0.4106  0.9679
   9823SM   C1413222   7.242   6.522  12.400 -0.4448 -0.9067  0.1353
   9823SM  H14A13223   7.227   6.597  12.476 -1.9453 -0.8232 -0.2162
   9823SM  H14B13224   7.236   6.425  12.447  0.4350 -0.3072  1.5663
   9823SM  H14C13225   7.150   6.524  12.344 -1.2897 -4.2525  1.1419
   9823SM   C1313226   7.361   6.428  12.209 -0.3399  0.5433 -0.0813
   9823SM  H13A13227   7.456   6.424  12.159 -0.2429 -0.2092  0.1568
   9823SM  H13B13228   7.271   6.433  12.150 -1.4019 -4.1971  0.7246
   9823SM  H13C13229   7.355   6.329  12.251 -2.3650 -0.3824 -2.3666
   9823SM   C1213230   7.484   6.514  12.399  0.3675 -0.4175  0.0842
   9823SM  H12A13231   7.574   6.526  12.339  0.8523  0.0195  0.8746
   9823SM  H12B13232   7.492   6.410  12.426 -0.6173 -0.9067 -1.4284
   9823SM   C1113233   7.495   6.617  12.516 -0.4659  0.2044 -0.3294
   9823SM  H11A13234   7.584   6.576  12.569  0.0532  0.5464 -0.9187
   9823SM  H11B13235   7.411   6.594  12.585 -1.0721 -2.4470 -1.8221
   9823SM     P13236   7.655   6.805  12.449 -0.1711 -0.0386  0.2974
   9823SM   O1313237   7.741   6.708  12.373  0.0353 -1.0632 -1.1065
   9823SM   O1413238   7.648   6.941  12.386  0.9563 -0.5219 -1.0895
   9823SM   O1113239   7.713   6.810  12.595  0.5320 -0.3108 -0.1654
   9823SM   O1213240   7.507   6.752  12.471 -0.3762  0.4016 -0.1954
   9823SM   C1S13241   7.659   6.909  12.684  0.3251 -0.5234  0.1333
   9823SM   H1S13242   7.552   6.890  12.705 -0.1828  3.5501  2.1508
   9823SM   H1T13243   7.665   7.008  12.635 -1.1183  0.1258  1.1929
   9823SM    NF13244   7.658   6.991  12.912 -0.7129  0.4342  0.7499
   9823SM   HNF13245   7.674   7.087  12.931  0.0130  0.1469  1.6901
   9823SM   C2S13246   7.741   6.911  12.813  0.0585 -0.4399  0.2693
   9823SM   H2S13247   7.756   6.809  12.855  1.4025 -0.5377 -0.4042
   9823SM   C3S13248   7.885   6.971  12.786  0.4083  0.3198 -0.3355
   9823SM   H3S13249   7.875   7.076  12.751  0.3950 -0.2874 -2.2472
   9823SM    O313250   7.958   6.906  12.681  0.1739  0.0863  0.4835
   9823SM   HO313251   7.892   6.847  12.643  0.7998 -0.0198 -0.4558
   9823SM   C4S13252   7.963   6.962  12.913  0.6419 -0.0820  0.1612
   9823SM   H4S13253   7.988   6.859  12.944 -2.1698 -0.2336  2.3934
   9823SM   C5S13254   8.011   7.061  12.982  0.4953 -0.9627  0.2279
   9823SM   H5S13255   7.988   7.159  12.939  1.6973 -0.8227 -0.1491
   9823SM   C6S13256   8.086   7.048  13.109  0.3294  0.6872 -0.6696
   9823SM   H6S13257   8.122   7.150  13.135 -0.9607  0.8899  0.4122
   9823SM   H6T13258   8.180   6.991  13.091  0.4809  0.9212 -0.6353
   9823SM   C7S13259   8.003   7.012  13.239  0.3131 -0.2093  0.1555
   9823SM   H7S13260   7.968   6.907  13.233  1.2164 -0.5488  0.5127
   9823SM   H7T13261   7.910   7.072  13.242 -0.2543 -1.0980  0.5808
   9823SM   C8S13262   8.086   7.026  13.369 -0.2910 -1.1678  0.0857
   9823SM   H8S13263   8.124   7.130  13.368 -0.4546 -1.0903 -1.8301
   9823SM   H8T13264   8.176   6.962  13.363  0.8317  0.1854  1.4663
   9823SM   C9S13265   8.007   7.001  13.490 -0.7654  0.0151  0.0835
   9823SM   H9S13266   8.067   7.009  13.584 -1.8587  2.2685  0.6586
   9823SM   H9T13267   7.971   6.896  13.493  0.9293 -0.6015  0.2404
   9823SM  C10S13268   7.893   7.095  13.514  0.0471 -0.2416  0.4012
   9823SM  H10S13269   7.812   7.069  13.442  1.0766 -1.4129 -0.3898
   9823SM  H10T13270   7.920   7.200  13.489  0.4106 -0.3548  0.3133
   9823SM  C11S13271   7.849   7.098  13.658 -0.2177 -0.0679 -1.0426
   9823SM  H11S13272   7.763   7.168  13.663 -1.0126 -1.0020  3.6988
   9823SM  H11T13273   7.930   7.137  13.724 -2.0913 -0.5311  1.7409
   9823SM  C12S13274   7.817   6.961  13.725 -0.5833  0.2869  0.2353
   9823SM  H12S13275   7.909   6.899  13.730  0.3874  1.7576  1.3163
   9823SM  H12T13276   7.734   6.909  13.671 -0.8543 -1.8015  2.5060
   9823SM  C13S13277   7.774   6.972  13.868 -0.6936 -0.3168  0.1177
   9823SM  H13S13278   7.697   7.049  13.891 -1.0064 -1.0702  1.7094
   9823SM  H13T13279   7.861   7.001  13.930  0.0343 -3.0336  0.4795
   9823SM  C14S13280   7.728   6.843  13.947  0.1015 -0.4865 -0.3479
   9823SM  H14S13281   7.799   6.758  13.946  0.9802  0.2282 -1.1619
   9823SM  H14T13282   7.640   6.806  13.891 -1.4801  2.1368  0.2609
   9823SM  C15S13283   7.700   6.871  14.098  0.1315 -0.5451 -0.5810
   9823SM  H15S13284   7.640   6.964  14.106  2.3004  0.7983  1.1940
   9823SM  H15T13285   7.794   6.904  14.147 -0.7736  1.0600  0.1383
   9823SM  C16S13286   7.631   6.757  14.182 -0.1224 -0.1319 -0.2650
   9823SM  H16S13287   7.621   6.783  14.290 -0.5517 -0.2490 -0.2722
   9823SM  H16T13288   7.691   6.665  14.165 -2.1698 -1.1106 -3.0552
   9823SM  C17S13289   7.495   6.713  14.124 -0.5471 -0.6168  0.7355
   9823SM  H17S13290   7.515   6.679  14.020 -0.9819 -0.9736  0.7667
   9823SM  H17T13291   7.416   6.791  14.121 -0.1928 -0.2636 -1.3027
   9823SM  C18S13292   7.439   6.590  14.200  0.3110  0.3141  0.2776
   9823SM  H18S13293   7.419   6.628  14.302  1.6197 -1.6192  1.3388
   9823SM  H18T13294   7.511   6.505  14.191  1.9633  1.6659  0.0756
   9823SM  H18U13295   7.342   6.563  14.154  0.9685  0.3963 -1.2268
   9823SM   C1F13296   7.554   6.931  12.973  0.9526 -0.3702  0.1031
   9823SM    OF13297   7.528   6.811  12.953 -0.3983 -0.4537 -0.6189
   9823SM   C2F13298   7.461   7.008  13.069  0.3336 -0.6683 -1.0224
   9823SM   H2F13299   7.361   6.961  13.086  0.4303  0.1985  2.5916
   9823SM   H2G13300   7.458   7.114  13.036 -1.6239 -0.5578 -0.6390
   9823SM   C3F13301   7.533   7.008  13.212  0.1118  1.0234  0.3775
   9823SM   H3F13302   7.615   7.083  13.209  0.2159  0.8950 -0.0501
   9823SM   H3G13303   7.576   6.906  13.226 -1.2402  0.6254  2.0476
   9823SM   C4F13304   7.431   7.027  13.327  0.0693 -0.9671  0.4533
   9823SM   H4F13305   7.349   6.954  13.311 -0.2928 -0.6760  0.9330
   9823SM   H4G13306   7.391   7.129  13.310  0.6247 -0.8964 -0.4585
   9823SM   C5F13307   7.490   7.029  13.462 -0.5628  0.1218 -0.5076
   9823SM   H5F13308   7.581   7.092  13.461 -1.1990  1.0639 -0.9022
   9823SM   H5G13309   7.527   6.930  13.494 -1.4633 -0.0440  0.0444
   9823SM   C6F13310   7.386   7.072  13.558 -0.3570  0.1064 -0.4028
   9823SM   H6F13311   7.299   7.004  13.548  0.4908 -1.1017  0.1565
   9823SM   H6G13312   7.349   7.171  13.523 -0.6719 -0.2257 -1.0337
   9823SM   C7F13313   7.439   7.090  13.706  0.3747  0.4012  0.2164
   9823SM   H7F13314   7.532   7.150  13.701  1.0356 -0.6619 -0.5937
   9823SM   H7G13315   7.469   6.994  13.754  0.2634 -0.0420 -0.5837
   9823SM   C8F13316   7.339   7.156  13.803  0.4273 -0.1382 -0.3427
   9823SM   H8F13317   7.248   7.096  13.823 -0.1667  0.1739 -1.9544
   9823SM   H8G13318   7.309   7.250  13.752 -0.6360 -1.0057 -1.3837
   9823SM   C9F13319   7.398   7.179  13.945  0.1242 -0.3442 -0.1468
   9823SM   H9F13320   7.473   7.259  13.927 -0.7928  0.4315 -0.5984
   9823SM   H9G13321   7.461   7.093  13.975  0.6669  0.1789  0.2572
   9823SM  C10F13322   7.293   7.216  14.047 -0.1330  0.0593  0.2902
   9823SM  H10F13323   7.218   7.134  14.042  0.6399 -0.9616  3.5903
   9823SM  H10G13324   7.246   7.313  14.019  0.3115 -0.1190 -1.2068
   9823SM  C11F13325   7.338   7.233  14.190  0.2996  0.1186  0.3974
   9823SM  H11F13326   7.425   7.301  14.180 -1.2529  2.2616  0.6389
   9823SM  H11G13327   7.378   7.138  14.231 -0.6073 -0.9476 -1.0731
   9823SM  C12F13328   7.248   7.305  14.288 -0.5003  0.2463  0.0377
   9823SM  H12F13329   7.144   7.266  14.280 -0.1313 -0.5325 -1.0225
   9823SM  H12G13330   7.246   7.410  14.251  0.2684 -0.8426 -3.4139
   9823SM  C13F13331   7.302   7.315  14.432  0.1981 -0.3142  0.0767
   9823SM  H13F13332   7.404   7.361  14.434 -0.3336  0.8806  0.4845
   9823SM  H13G13333   7.317   7.211  14.467 -0.8022 -0.6403 -0.4303
   9823SM  C14F13334   7.215   7.402  14.519  0.4952 -0.3192 -0.5918
   9823SM  H14F13335   7.107   7.386  14.498 -0.0183  1.5981  0.3538
   9823SM  H14G13336   7.232   7.504  14.480  2.2830  1.1918  3.5132
   9823SM  C15F13337   7.237   7.390  14.667 -0.3615 -0.3961 -0.0783
   9823SM  H15F13338   7.175   7.462  14.725 -0.5881  1.1647 -2.1631
   9823SM  H15G13339   7.341   7.418  14.696 -1.0183  0.1962  1.8933
   9823SM  C16F13340   7.210   7.240  14.714  0.0149 -0.0063 -0.4553
   9823SM  H16F13341   7.307   7.188  14.694 -0.2363 -1.3482  1.5933
   9823SM  H16G13342   7.139   7.180  14.653 -1.7486 -1.6665  2.9923
   9823SM  C17F13343   7.160   7.235  14.855 -0.2726 -0.5370 -0.4028
   9823SM  H17F13344   7.107   7.327  14.887  0.6810 -0.6106  1.5466
   9823SM  H17G13345   7.245   7.224  14.926 -0.6015  2.1388  0.5003
   9823SM  C18F13346   7.060   7.117  14.874  0.1923 -0.3865 -0.2099
   9823SM  H18F13347   7.049   7.100  14.983 -0.0271 -0.0972 -0.1848
   9823SM  H18G13348   7.111   7.026  14.837  1.9746 -0.0420  1.2562
   9823SM  C19F13349   6.919   7.140  14.814  0.2515 -0.1537  0.4216
   9823SM  H19F13350   6.926   7.140  14.703  0.4440 -0.3000  0.4339
   9823SM  H19G13351   6.885   7.239  14.852  0.5250  0.0874  0.0440
   9823SM  C20F13352   6.815   7.023  14.844  0.4273 -0.6771  0.0247
   9823SM  H20F13353   6.776   7.031  14.947  0.4907  2.2793 -0.0864
   9823SM  H20G13354   6.873   6.928  14.839  1.7907  0.1177  0.1461
   9823SM  C21F13355   6.703   6.998  14.742  0.1732 -0.2148  0.0804
   9823SM  H21F13356   6.749   6.994  14.641  0.4102 -0.3969  0.1936
   9823SM  H21G13357   6.639   7.089  14.749  1.0241  0.3102  1.7411
   9823SM  C22F13358   6.626   6.861  14.753 -0.3080 -0.2233 -0.2539
   9823SM  H22F13359   6.597   6.856  14.860  0.6033  0.4560  0.0362
   9823SM  H22G13360   6.688   6.774  14.722  1.1546  0.5529  0.3912
   9823SM  C23F13361   6.505   6.852  14.658 -0.2401  0.7114  0.1379
   9823SM  H23F13362   6.456   6.753  14.668  0.8342 -0.0240 -1.5408
   9823SM  H23G13363   6.540   6.854  14.553  2.5028  0.8401  0.9714
   9823SM  H23H13364   6.440   6.940  14.678 -0.3796  0.9649 -1.3480
   9923SM     N13365   1.255   0.244  12.229  0.0746 -0.6477  0.6846
   9923SM   C1513366   1.198   0.122  12.158 -0.2473  0.3243 -0.1296
   9923SM  H15A13367   1.218   0.039  12.224 -1.0049  0.2066 -0.0462
   9923SM  H15B13368   1.252   0.097  12.068  1.0378 -0.0787  0.7191
   9923SM  H15C13369   1.094   0.147  12.143  0.0986  1.1947 -1.2429
   9923SM   C1413370   1.404   0.238  12.217  0.0889 -0.1888  0.2902
   9923SM  H14A13371   1.451   0.160  12.275  1.7091  0.8029  0.3576
   9923SM  H14B13372   1.446   0.336  12.237  0.5895 -0.4965  0.7677
   9923SM  H14C13373   1.437   0.219  12.116  1.7827  3.8626 -0.1066
   9923SM   C1313374   1.212   0.361  12.152 -0.9951 -0.5453  0.2614
   9923SM  H13A13375   1.218   0.327  12.050 -1.5381 -1.8397  0.6382
   9923SM  H13B13376   1.270   0.448  12.175 -0.6252 -0.1548 -1.9258
   9923SM  H13C13377   1.110   0.394  12.162 -0.7335  0.3968 -0.0804
   9923SM   C1213378   1.209   0.261  12.370  0.0295 -0.1789  0.0406
   9923SM  H12A13379   1.101   0.262  12.368 -0.0135  1.5536  1.1136
   9923SM  H12B13380   1.220   0.358  12.416  0.5971 -1.8209  3.7741
   9923SM   C1113381   1.239   0.152  12.479  0.0660 -0.0716 -0.3931
   9923SM  H11A13382   1.201   0.193  12.575 -0.7831  1.5962 -1.3853
   9923SM  H11B13383   1.346   0.123  12.480  0.0232 -0.3010 -1.5962
   9923SM     P13384   1.016   0.018  12.512  0.1182 -0.3692  0.2992
   9923SM   O1313385   0.952   0.144  12.464 -0.2979  0.6834 -0.2566
   9923SM   O1413386   0.956  -0.107  12.465 -0.1021  0.1348 -0.4884
   9923SM   O1113387   1.024   0.025  12.665  0.4210  0.1607 -0.4110
   9923SM   O1213388   1.165   0.028  12.466  0.1215  0.0907  0.2201
   9923SM   C1S13389   1.047  -0.091  12.742 -0.3092  0.2222  0.3646
   9923SM   H1S13390   1.150  -0.124  12.719 -0.6928 -0.7668  0.0215
   9923SM   H1T13391   0.981  -0.178  12.722  2.8918 -1.8488 -2.1655
   9923SM    NF13392   1.069  -0.170  12.968  0.2556  0.1275 -0.1183
   9923SM   HNF13393   0.999  -0.240  12.977  0.4350 -0.0176  0.1627
   9923SM   C2S13394   1.028  -0.056  12.893 -1.1038 -0.0860  0.1179
   9923SM   H2S13395   1.098   0.028  12.915 -0.2815 -0.3981 -1.1748
   9923SM   C3S13396   0.882  -0.009  12.916  0.3588  0.3416  0.3844
   9923SM   H3S13397   0.818  -0.082  12.864 -0.0655  2.4251 -2.2332
   9923SM    O313398   0.850   0.105  12.838  0.0618 -0.2605 -0.6812
   9923SM   HO313399   0.913   0.095  12.766  0.7262 -2.5139  0.1326
   9923SM   C4S13400   0.853   0.025  13.062  0.2877 -0.1613 -0.0501
   9923SM   H4S13401   0.879   0.129  13.088  0.4410 -0.1882 -0.0913
   9923SM   C5S13402   0.794  -0.050  13.159  0.0838 -0.2238  0.2460
   9923SM   H5S13403   0.777  -0.158  13.145  0.9950 -0.3517  0.0725
   9923SM   C6S13404   0.769   0.007  13.298 -0.1420  0.1172  0.1954
   9923SM   H6S13405   0.662   0.012  13.327  0.0985  0.3762  1.0498
   9923SM   H6T13406   0.810   0.110  13.301 -1.0123  0.5852 -1.8190
   9923SM   C7S13407   0.840  -0.080  13.409  0.5457 -0.1436 -0.2276
   9923SM   H7S13408   0.949  -0.073  13.390  0.9057  0.1359  1.8062
   9923SM   H7T13409   0.799  -0.183  13.412  0.8690 -0.2463  0.9754
   9923SM   C8S13410   0.807  -0.016  13.551 -0.5238  0.0789 -0.0159
   9923SM   H8S13411   0.698   0.007  13.560 -0.7512 -1.3118  1.2010
   9923SM   H8T13412   0.874   0.069  13.576  0.2224 -0.7355  0.8167
   9923SM   C9S13413   0.836  -0.123  13.658  0.0251  0.7439  0.6688
   9923SM   H9S13414   0.937  -0.164  13.635  0.5079  1.8619  0.7425
   9923SM   H9T13415   0.769  -0.210  13.641  0.0052  0.5552  1.6939
   9923SM  C10S13416   0.816  -0.072  13.801  0.6919 -0.2275  0.1064
   9923SM  H10S13417   0.710  -0.044  13.817  0.4814 -0.7949 -0.2767
   9923SM  H10T13418   0.872   0.022  13.822 -1.7019  0.7250  2.9292
   9923SM  C11S13419   0.856  -0.176  13.903  0.3729  0.0536  0.4682
   9923SM  H11S13420   0.944  -0.232  13.865  0.3831 -1.4577  2.5664
   9923SM  H11T13421   0.774  -0.249  13.916 -0.1996  0.5144 -0.4455
   9923SM  C12S13422   0.868  -0.127  14.043 -0.0939  0.0491 -0.8259
   9923SM  H12S13423   0.775  -0.067  14.058 -0.4317 -0.6370 -0.0932
   9923SM  H12T13424   0.950  -0.053  14.057 -1.1029  1.1581 -0.5083
   9923SM  C13S13425   0.880  -0.242  14.152  0.2732 -0.0547  0.3669
   9923SM  H13S13426   0.973  -0.300  14.137 -0.0491 -0.2794 -0.8826
   9923SM  H13T13427   0.803  -0.320  14.137  0.1349  0.1766 -0.1517
   9923SM  C14S13428   0.875  -0.191  14.295  0.5897 -0.8398  0.5687
   9923SM  H14S13429   0.902  -0.274  14.364  1.9563 -0.8472  0.0698
   9923SM  H14T13430   0.783  -0.141  14.331  0.6647 -0.2898  0.0073
   9923SM  C15S13431   0.976  -0.084  14.319 -0.3411 -0.0289  0.3371
   9923SM  H15S13432   0.951   0.016  14.278  1.0283 -0.2108 -1.0104
   9923SM  H15T13433   1.073  -0.105  14.270 -0.7550  0.9899 -0.9916
   9923SM  C16S13434   0.998  -0.077  14.477  0.8377  0.9951  0.1076
   9923SM  H16S13435   1.094  -0.029  14.508  0.2037  2.2653  0.1470
   9923SM  H16T13436   1.002  -0.183  14.510 -1.5811  1.1797  1.1110
   9923SM  C17S13437   0.884  -0.010  14.550  0.2978  0.5478 -0.7659
   9923SM  H17S13438   0.794  -0.076  14.552  1.2352 -0.7906  2.2561
   9923SM  H17T13439   0.856   0.089  14.507  1.4110  0.5066 -1.6343
   9923SM  C18S13440   0.917   0.015  14.697  0.2111 -0.2790  0.6032
   9923SM  H18S13441   0.831   0.053  14.754  0.6565 -0.3819  1.3508
   9923SM  H18T13442   1.007   0.079  14.708  0.0712 -0.3374  2.2341
   9923SM  H18U13443   0.955  -0.076  14.749  2.1675  1.1743  1.8412
   9923SM   C1F13444   1.195  -0.202  12.980 -0.3325  0.4802 -0.1220
   9923SM    OF13445   1.290  -0.125  12.973 -0.3213 -0.2201  0.1759
   9923SM   C2F13446   1.219  -0.341  13.016  0.7617  0.1937  0.4554
   9923SM   H2F13447   1.289  -0.368  12.933  0.5971  1.8957 -0.2725
   9923SM   H2G13448   1.121  -0.392  13.002  0.2202  0.7206  2.1066
   9923SM   C3F13449   1.276  -0.362  13.159 -0.3317 -0.6833 -0.5005
   9923SM   H3F13450   1.193  -0.323  13.223 -0.2643 -1.5265  0.1162
   9923SM   H3G13451   1.358  -0.288  13.175 -0.5270 -0.9380  2.3078
   9923SM   C4F13452   1.318  -0.499  13.204  0.2493 -0.1785  0.0576
   9923SM   H4F13453   1.402  -0.545  13.147  1.1507 -0.1032  1.2887
   9923SM   H4G13454   1.226  -0.560  13.194 -0.5641  1.2252 -1.3934
   9923SM   C5F13455   1.370  -0.496  13.346  1.0825 -0.2382  0.2280
   9923SM   H5F13456   1.309  -0.430  13.412 -0.1812 -0.3991 -0.7335
   9923SM   H5G13457   1.477  -0.464  13.340  2.1564 -3.4328  0.7057
   9923SM   C6F13458   1.361  -0.632  13.410 -0.1123 -0.1636 -0.4512
   9923SM   H6F13459   1.447  -0.691  13.372  0.5999  2.0084 -2.4499
   9923SM   H6G13460   1.262  -0.677  13.385 -0.6924  0.9458 -0.2079
   9923SM   C7F13461   1.361  -0.629  13.561  0.1849  0.6058 -0.8694
   9923SM   H7F13462   1.449  -0.576  13.604  0.4086 -1.2324  1.0886
   9923SM   H7G13463   1.364  -0.732  13.603 -1.9330  0.6940 -0.4163
   9923SM   C8F13464   1.236  -0.569  13.625  0.6324  0.2475 -0.2837
   9923SM   H8F13465   1.145  -0.596  13.567 -0.3485  0.7835  0.9647
   9923SM   H8G13466   1.241  -0.458  13.627  0.3142  0.2563  1.4358
   9923SM   C9F13467   1.205  -0.622  13.771  0.9437 -0.1239  0.2626
   9923SM   H9F13468   1.294  -0.590  13.831  0.5721 -1.2433  1.4715
   9923SM   H9G13469   1.200  -0.733  13.777 -3.3197 -0.0669  0.1736
   9923SM  C10F13470   1.080  -0.570  13.835  0.8230 -0.8073  0.2945
   9923SM  H10F13471   0.984  -0.606  13.793  0.1930  0.8192  0.3091
   9923SM  H10G13472   1.076  -0.460  13.823 -0.3436 -0.7609  0.9747
   9923SM  C11F13473   1.082  -0.606  13.988  0.0669 -0.4056  0.9158
   9923SM  H11F13474   1.166  -0.550  14.034 -0.6297  1.6085 -0.0963
   9923SM  H11G13475   1.103  -0.715  13.988 -0.7819 -0.6374 -1.5358
   9923SM  C12F13476   0.945  -0.586  14.054  0.4589  0.0858 -1.1730
   9923SM  H12F13477   0.872  -0.657  14.008  1.7802 -1.1450 -1.4341
   9923SM  H12G13478   0.909  -0.486  14.023  1.6769  1.5948  1.8898
   9923SM  C13F13479   0.955  -0.595  14.204 -0.2096 -0.2196 -0.6495
   9923SM  H13F13480   1.016  -0.514  14.249  0.5307 -0.2551 -1.5537
   9923SM  H13G13481   1.002  -0.690  14.238  1.0073  0.5414 -0.1671
   9923SM  C14F13482   0.815  -0.597  14.272 -0.0279 -0.0148  0.0603
   9923SM  H14F13483   0.747  -0.667  14.219 -3.1314  0.6120  2.8542
   9923SM  H14G13484   0.766  -0.498  14.260  1.1488  0.3982 -1.7219
   9923SM  C15F13485   0.825  -0.644  14.416 -0.1960 -0.9517 -0.4264
   9923SM  H15F13486   0.903  -0.577  14.456  1.3118 -1.7574 -1.9104
   9923SM  H15G13487   0.867  -0.747  14.414  0.8841 -0.5171 -0.6066
   9923SM  C16F13488   0.700  -0.628  14.502  0.1378 -0.2333 -0.2321
   9923SM  H16F13489   0.721  -0.648  14.610  0.0235 -0.4845 -0.2559
   9923SM  H16G13490   0.621  -0.701  14.473  0.2963 -0.3575 -0.3541
   9923SM  C17F13491   0.639  -0.483  14.485 -0.1912 -0.2756  0.3485
   9923SM  H17F13492   0.597  -0.497  14.383  2.5139 -2.1440 -0.6253
   9923SM  H17G13493   0.724  -0.412  14.477 -0.2113 -0.4008 -1.5396
   9923SM  C18F13494   0.547  -0.445  14.601  0.2849  1.0540 -0.6463
   9923SM  H18F13495   0.574  -0.354  14.658  1.1734 -0.2371  1.0823
   9923SM  H18G13496   0.540  -0.533  14.668 -0.2529  0.0335 -1.9900
   9923SM  C19F13497   0.405  -0.432  14.547  0.6601 -0.3032 -0.5499
   9923SM  H19F13498   0.381  -0.524  14.488 -3.0233 -1.0502  1.7689
   9923SM  H19G13499   0.400  -0.344  14.480  0.4215  0.7610  0.8367
   9923SM  C20F13500   0.290  -0.429  14.651  0.3231 -0.1544  0.2258
   9923SM  H20F13501   0.278  -0.529  14.698  0.0819 -0.9693 -1.5019
   9923SM  H20G13502   0.197  -0.398  14.599  0.5746  0.2520  0.0072
   9923SM  C21F13503   0.318  -0.323  14.761  0.6624 -0.0258 -0.0538
   9923SM  H21F13504   0.311  -0.221  14.717  1.9797  0.1242  0.0348
   9923SM  H21G13505   0.419  -0.348  14.801  1.4733  2.3321 -0.4393
   9923SM  C22F13506   0.195  -0.320  14.864 -0.1797  0.3009  0.5783
   9923SM  H22F13507   0.178  -0.429  14.877 -0.0553  0.1057 -0.7614
   9923SM  H22G13508   0.109  -0.279  14.806  1.4239 -0.9216 -2.9686
   9923SM  C23F13509   0.222  -0.255  14.992 -0.2258 -0.1259 -0.3575
   9923SM  H23F13510   0.229  -0.146  14.972  2.7502 -0.1278  0.1958
   9923SM  H23G13511   0.320  -0.291  15.028 -0.2164  1.2028  1.0376
   9923SM  H23H13512   0.160  -0.287  15.079  1.1173  2.3752  1.6522
  10023SM     N13513   0.535   7.662  12.537 -0.7430  0.0081 -0.3257
  10023SM   C1513514   0.418   7.660  12.630 -0.5763  0.2931 -0.0503
  10023SM  H15A13515   0.418   7.743  12.700  1.2467 -0.1817  0.5663
  10023SM  H15B13516   0.414   7.571  12.691 -0.9962  1.7105  2.1061
  10023SM  H15C13517   0.323   7.657  12.578 -0.8510  1.2157  0.3680
  10023SM   C1413518   0.662   7.685  12.624 -0.1883 -0.2605  0.1479
  10023SM  H14A13519   0.672   7.788  12.657  0.2149 -0.1194 -0.4057
  10023SM  H14B13520   0.749   7.666  12.563 -1.3733  1.5223 -2.2356
  10023SM  H14C13521   0.676   7.610  12.700 -1.0036 -1.4656 -0.8549
  10023SM   C1313522   0.546   7.531  12.471 -0.2416 -0.1171  0.0585
  10023SM  H13A13523   0.609   7.533  12.382 -0.5806  2.1746 -0.1939
  10023SM  H13B13524   0.454   7.485  12.440  0.5524 -1.1628 -0.8542
  10023SM  H13C13525   0.588   7.455  12.535  2.2012  0.8542 -0.2527
  10023SM   C1213526   0.526   7.782  12.440 -0.6064 -0.1139 -0.4572
  10023SM  H12A13527   0.481   7.758  12.344  1.3455 -3.2843 -0.7120
  10023SM  H12B13528   0.629   7.810  12.426 -0.3443 -1.2537 -0.9213
  10023SM   C1113529   0.460   7.908  12.502  0.5526  0.1642 -0.0461
  10023SM  H11A13530   0.353   7.889  12.526 -0.3889  0.9951 -3.0977
  10023SM  H11B13531   0.457   7.982  12.419 -0.8526  0.2488  0.0521
  10023SM     P13532   0.523   8.094  12.676  0.3085  0.3239 -0.3696
  10023SM   O1313533   0.644   8.170  12.656 -0.2468  0.1894 -0.4327
  10023SM   O1413534   0.396   8.152  12.621 -0.1676  0.3296 -0.2511
  10023SM   O1113535   0.504   8.080  12.837 -0.5686 -0.7351 -0.1812
  10023SM   O1213536   0.525   7.954  12.621 -0.6907  0.0056  0.5519
  10023SM   C1S13537   0.448   7.960  12.883 -0.9163  0.5490 -0.4381
  10023SM   H1S13538   0.485   7.871  12.826  0.9139 -0.4446  2.1036
  10023SM   H1T13539   0.340   7.958  12.858 -1.4203 -0.1470  1.6211
  10023SM    NF13540   0.377   7.816  13.074 -0.2177 -0.3598  0.4129
  10023SM   HNF13541   0.281   7.830  13.093 -0.1850 -0.9242  1.0264
  10023SM   C2S13542   0.458   7.933  13.043  0.1880  0.5723  0.4164
  10023SM   H2S13543   0.564   7.913  13.070  0.1990  0.2170  0.1196
  10023SM   C3S13544   0.416   8.047  13.140  0.1206 -1.4741 -0.5084
  10023SM   H3S13545   0.305   8.054  13.144  0.2195  0.2114  0.8362
  10023SM    O313546   0.460   8.181  13.096  0.0605  0.7880 -0.3335
  10023SM   HO313547   0.494   8.166  13.008  0.1968  3.9243 -0.9225
  10023SM   C4S13548   0.463   8.022  13.279 -0.2675  0.2261 -0.2275
  10023SM   H4S13549   0.573   8.014  13.287 -0.4452 -1.0075  1.4887
  10023SM   C5S13550   0.390   8.006  13.385  0.0925 -0.1526  0.1676
  10023SM   H5S13551   0.281   8.004  13.369  0.1190  3.1442 -1.1519
  10023SM   C6S13552   0.425   7.981  13.528  0.0026  0.1386  0.0562
  10023SM   H6S13553   0.391   7.881  13.562 -1.2456  1.1413  1.9501
  10023SM   H6T13554   0.365   8.047  13.595  0.0732 -1.5634  1.8716
  10023SM   C7S13555   0.573   8.020  13.554 -0.4656 -0.4457  0.0227
  10023SM   H7S13556   0.590   8.124  13.518  0.1429 -0.9155 -1.1071
  10023SM   H7T13557   0.634   7.951  13.492  0.6641  0.4790  0.0632
  10023SM   C8S13558   0.619   8.007  13.697  0.2229  0.9663 -0.9330
  10023SM   H8S13559   0.621   7.898  13.718 -1.9393  1.0491 -0.0244
  10023SM   H8T13560   0.541   8.041  13.769  0.2051 -0.7121 -0.1136
  10023SM   C9S13561   0.762   8.072  13.712  0.0986  0.7584  0.1558
  10023SM   H9S13562   0.762   8.162  13.647  2.2439  0.2587 -0.5911
  10023SM   H9T13563   0.836   8.004  13.665 -0.9259  2.0713 -3.6773
  10023SM  C10S13564   0.791   8.128  13.852  0.2100 -0.4489  0.9838
  10023SM  H10S13565   0.715   8.203  13.879 -0.0444 -0.8006  1.2565
  10023SM  H10T13566   0.887   8.184  13.855 -1.1563  2.0622  0.5845
  10023SM  C11S13567   0.779   8.018  13.963  0.5087 -0.0003  0.2974
  10023SM  H11S13568   0.835   7.929  13.926  0.8138 -0.0196  0.7957
  10023SM  H11T13569   0.675   7.985  13.981  0.4496  0.9392  1.8537
  10023SM  C12S13570   0.850   8.068  14.091  0.0616  0.7108  0.7950
  10023SM  H12S13571   0.828   8.177  14.099  2.7761  1.3456  0.4197
  10023SM  H12T13572   0.960   8.060  14.078 -0.1549 -2.6549  0.2760
  10023SM  C13S13573   0.808   7.989  14.211  0.1969 -0.1440 -0.1538
  10023SM  H13S13574   0.823   7.879  14.214 -0.5451 -0.2237  1.2890
  10023SM  H13T13575   0.700   8.007  14.225  1.0826  5.3762  1.9914
  10023SM  C14S13576   0.863   8.053  14.336  0.8892  0.9388 -0.8349
  10023SM  H14S13577   0.835   7.998  14.428  3.0285  0.8757 -0.1536
  10023SM  H14T13578   0.828   8.157  14.349  1.3862  0.9332  0.7150
  10023SM  C15S13579   1.018   8.044  14.349 -0.0129  0.3595  0.3088
  10023SM  H15S13580   1.054   8.108  14.266 -1.4083  1.3407  0.4250
  10023SM  H15T13581   1.050   7.938  14.342  3.1308  1.2478 -0.5404
  10023SM  C16S13582   1.066   8.101  14.483  0.0089  0.6020 -0.8889
  10023SM  H16S13583   1.172   8.076  14.505 -0.3962 -0.3711  0.0711
  10023SM  H16T13584   1.016   8.038  14.560  2.6885 -2.8123 -1.7001
  10023SM  C17S13585   1.055   8.252  14.499 -0.5153 -1.2183  0.5219
  10023SM  H17S13586   0.947   8.277  14.495 -0.1658  0.4069  0.5210
  10023SM  H17T13587   1.110   8.298  14.414 -1.2210  1.1103  1.2533
  10023SM  C18S13588   1.121   8.310  14.631  0.6111  0.2743  0.4705
  10023SM  H18S13589   1.053   8.286  14.715  2.2293  1.2514  2.1355
  10023SM  H18T13590   1.142   8.418  14.621  1.1683  0.3293  1.9086
  10023SM  H18U13591   1.222   8.268  14.655  1.7994  1.3951 -2.1675
  10023SM   C1F13592   0.417   7.697  13.047  0.6678 -0.3906 -0.1633
  10023SM    OF13593   0.518   7.668  12.994  0.1457  0.4841 -0.3581
  10023SM   C2F13594   0.306   7.594  13.073 -0.5412  0.5508  0.2740
  10023SM   H2F13595   0.263   7.576  12.973 -0.3793 -0.4432  0.3731
  10023SM   H2G13596   0.240   7.632  13.154 -0.5867  1.5824 -0.2236
  10023SM   C3F13597   0.358   7.462  13.129  0.1963  0.2134  0.4654
  10023SM   H3F13598   0.417   7.412  13.050 -0.7150  1.6616 -1.2003
  10023SM   H3G13599   0.266   7.402  13.139  1.0136 -1.3265 -0.8842
  10023SM   C4F13600   0.433   7.482  13.256 -0.1389 -0.3942 -0.0843
  10023SM   H4F13601   0.524   7.544  13.240 -0.1701 -0.4931 -0.6783
  10023SM   H4G13602   0.477   7.385  13.286 -0.7697 -0.5370  0.3956
  10023SM   C5F13603   0.343   7.520  13.372 -0.3327 -0.2303  0.6490
  10023SM   H5F13604   0.254   7.454  13.365  1.0149 -1.9469 -3.3197
  10023SM   H5G13605   0.314   7.627  13.366 -2.0045 -0.7099 -0.2835
  10023SM   C6F13606   0.409   7.500  13.510  0.1965 -0.1148  0.1713
  10023SM   H6F13607   0.515   7.534  13.509 -0.1368  0.9553 -0.5702
  10023SM   H6G13608   0.424   7.392  13.532  0.0848  0.1777  1.8074
  10023SM   C7F13609   0.327   7.558  13.628 -0.0198 -0.4803  0.2188
  10023SM   H7F13610   0.228   7.512  13.652 -0.1868  0.3564  1.2175
  10023SM   H7G13611   0.318   7.664  13.598  1.5541 -0.0796  1.0965
  10023SM   C8F13612   0.396   7.553  13.767 -0.7451  0.3192 -0.2345
  10023SM   H8F13613   0.502   7.585  13.757 -1.1780  1.5575 -1.0350
  10023SM   H8G13614   0.393   7.448  13.803 -1.4181 -0.5136 -2.5453
  10023SM   C9F13615   0.325   7.642  13.864 -0.8940  0.5077 -0.0803
  10023SM   H9F13616   0.222   7.605  13.884 -1.3788  1.7900 -0.1204
  10023SM   H9G13617   0.323   7.743  13.818 -1.7369  1.5677  2.1739
  10023SM  C10F13618   0.391   7.662  14.001  0.0684 -0.0632 -0.2419
  10023SM  H10F13619   0.493   7.704  13.994  0.4342 -0.9432 -0.2548
  10023SM  H10G13620   0.414   7.561  14.041  1.0730 -0.8987 -2.7218
  10023SM  C11F13621   0.297   7.747  14.092 -0.4115 -0.1984  0.2190
  10023SM  H11F13622   0.206   7.686  14.111 -0.4828 -0.2088 -0.1533
  10023SM  H11G13623   0.273   7.830  14.023 -0.3054 -0.1102  0.2882
  10023SM  C12F13624   0.361   7.809  14.215 -0.9144  0.1785  0.1009
  10023SM  H12F13625   0.303   7.898  14.247  0.0806  0.3662  1.4521
  10023SM  H12G13626   0.458   7.853  14.185  0.5356 -2.2046  1.0012
  10023SM  C13F13627   0.380   7.717  14.341  0.0574 -0.4100  0.0248
  10023SM  H13F13628   0.417   7.620  14.301 -0.0619 -0.3188 -0.3092
  10023SM  H13G13629   0.280   7.694  14.384  0.1948  0.2971  0.7296
  10023SM  C14F13630   0.470   7.789  14.448  0.9182  0.9630 -0.3572
  10023SM  H14F13631   0.448   7.898  14.460  4.8169  1.6529  2.1452
  10023SM  H14G13632   0.569   7.801  14.400  0.0050  1.4998 -2.2344
  10023SM  C15F13633   0.478   7.707  14.578 -0.2782  0.3445  0.1242
  10023SM  H15F13634   0.539   7.615  14.565 -0.4002  0.1385  0.9448
  10023SM  H15G13635   0.378   7.667  14.605  0.6576 -2.0865  0.2616
  10023SM  C16F13636   0.522   7.786  14.695  0.1396 -0.2652  1.1077
  10023SM  H16F13637   0.458   7.874  14.717  0.5160 -0.1937  1.9798
  10023SM  H16G13638   0.623   7.825  14.669 -0.1021  0.8223  1.7069
  10023SM  C17F13639   0.547   7.705  14.826  0.3239 -0.3239 -0.8626
  10023SM  H17F13640   0.618   7.620  14.821 -0.7844 -1.3514  0.1897
  10023SM  H17G13641   0.443   7.671  14.843  0.0110  0.9395 -0.0886
  10023SM  C18F13642   0.591   7.791  14.944 -0.9396 -0.4074  0.3275
  10023SM  H18F13643   0.511   7.868  14.954 -1.8799 -1.2211 -0.6447
  10023SM  H18G13644   0.693   7.832  14.928 -0.2502 -2.2714 -0.2724
  10023SM  C19F13645   0.588   7.729  15.081 -0.9654 -0.6631  0.0170
  10023SM  H19F13646   0.656   7.643  15.067 -2.8296 -1.8137 -3.1372
  10023SM  H19G13647   0.487   7.686  15.101 -0.5776 -2.2890 -1.2703
  10023SM  C20F13648   0.641   7.836  15.184 -0.2341 -0.3779 -0.3586
  10023SM  H20F13649   0.580   7.929  15.177 -0.2497 -0.4866 -2.4290
  10023SM  H20G13650   0.744   7.870  15.158  0.0860  0.2976  1.6124
  10023SM  C21F13651   0.640   7.775  15.325 -0.7763  0.4163 -0.0723
  10023SM  H21F13652   0.661   7.667  15.309 -2.7070  0.0926 -0.6322
  10023SM  H21G13653   0.538   7.767  15.367  0.2205 -1.0997  2.3068
  10023SM  C22F13654   0.727   7.843  15.429 -0.8456 -0.0934 -0.2163
  10023SM  H22F13655   0.689   7.947  15.434  0.7143  0.5057 -0.2558
  10023SM  H22G13656   0.830   7.840  15.388 -1.3877 -1.7974 -1.5582
  10023SM  C23F13657   0.713   7.785  15.570  0.4044  0.3058  0.8652
  10023SM  H23F13658   0.727   7.675  15.556  0.4060  0.4177 -0.0773
  10023SM  H23G13659   0.610   7.797  15.609  0.8883  0.4971  2.1331
  10023SM  H23H13660   0.781   7.826  15.648 -0.3052 -1.0334  2.2464
  101CHL1    C313661   5.698   4.070  16.811  0.6955  0.5301  0.0766
  101CHL1    H313662   5.800   4.041  16.778  1.9965  3.7895  0.8513
  101CHL1    O313663   5.647   4.005  16.925 -0.0472 -0.5247  0.1046
  101CHL1   H3'13664   5.654   3.911  16.906 -0.3114 -0.6361  0.5569
  101CHL1    C413665   5.709   4.226  16.851  0.5667 -0.0021  0.7847
  101CHL1   H4A13666   5.606   4.248  16.886  0.5356 -0.0373  0.7142
  101CHL1   H4B13667   5.779   4.244  16.935 -0.6260  0.7086  1.6546
  101CHL1    C513668   5.734   4.317  16.733 -0.6692  0.0253  0.1981
  101CHL1    C613669   5.841   4.396  16.734 -0.8323  0.7392 -0.6330
  101CHL1    H613670   5.905   4.408  16.823  0.1951  1.0668 -1.4000
  101CHL1    C713671   5.879   4.486  16.625 -0.1365  0.5557 -0.3636
  101CHL1   H7A13672   5.898   4.587  16.668 -1.1890 -0.3375  2.3444
  101CHL1   H7B13673   5.967   4.445  16.570  0.7832 -1.4555  2.4193
  101CHL1    C813674   5.764   4.506  16.521  0.6876  0.4642  0.5003
  101CHL1    H813675   5.687   4.569  16.571  0.4848  1.6693 -1.2656
  101CHL1   C1413676   5.810   4.580  16.392  0.0273 -0.0661 -0.2711
  101CHL1   H1413677   5.882   4.513  16.340 -0.4372  0.7667 -2.0725
  101CHL1   C1513678   5.875   4.720  16.407 -0.3365  0.1261  0.6631
  101CHL1  H15A13679   5.826   4.777  16.489 -0.4182 -0.7242  1.2130
  101CHL1  H15B13680   5.979   4.698  16.438 -1.1312  1.9238  5.4294
  101CHL1   C1613681   5.856   4.785  16.270  0.1952 -0.0836  0.0662
  101CHL1  H16A13682   5.803   4.882  16.284  0.6784  0.4440 -1.5675
  101CHL1  H16B13683   5.949   4.820  16.219 -0.3859 -0.6695 -1.4576
  101CHL1   C1713684   5.776   4.685  16.185 -0.2345  0.3717 -0.4829
  101CHL1   H1713685   5.849   4.610  16.148 -2.0359 -1.1575 -1.0513
  101CHL1   C1313686   5.701   4.600  16.289 -0.1639  0.2322  0.5042
  101CHL1   C1813687   5.590   4.689  16.353  0.1660 -0.6145  0.5426
  101CHL1  H18A13688   5.510   4.706  16.278  1.6444 -0.5708 -1.1020
  101CHL1  H18B13689   5.546   4.648  16.446 -0.2666 -1.1497  0.1094
  101CHL1  H18C13690   5.639   4.785  16.380  1.9962 -1.9383  2.1583
  101CHL1   C1213691   5.650   4.463  16.240  0.0321  0.2703 -0.0651
  101CHL1  H12A13692   5.569   4.489  16.169  0.3115  0.2121 -0.4046
  101CHL1  H12B13693   5.737   4.404  16.203  0.4038 -0.6035  2.0701
  101CHL1   C1113694   5.593   4.388  16.364 -0.3486  0.5854 -0.0758
  101CHL1  H11A13695   5.493   4.432  16.381 -0.4330  0.2709  0.2394
  101CHL1  H11B13696   5.557   4.286  16.338  0.6672 -0.0693  0.9902
  101CHL1    C913697   5.689   4.376  16.489 -0.1933 -0.6050  0.0578
  101CHL1    H913698   5.765   4.308  16.445 -0.4244  0.3917 -1.9856
  101CHL1   C1013699   5.636   4.293  16.612  0.2027 -0.6503 -0.4247
  101CHL1   C1913700   5.494   4.338  16.642 -0.0955  0.3871 -0.1271
  101CHL1  H19A13701   5.451   4.286  16.731  0.8018  1.7920  1.1741
  101CHL1  H19B13702   5.488   4.447  16.663  0.3043  0.0490  2.0089
  101CHL1  H19C13703   5.426   4.302  16.562 -1.7799 -0.7060  1.6941
  101CHL1    C113704   5.634   4.140  16.575  0.0959 -0.1342 -0.3565
  101CHL1   H1A13705   5.562   4.126  16.492 -1.0736 -2.6068  0.9767
  101CHL1   H1B13706   5.737   4.109  16.551  1.0479  0.8991  2.0302
  101CHL1    C213707   5.597   4.057  16.697 -0.4649  0.7511  0.0595
  101CHL1   H2A13708   5.612   3.956  16.651 -0.8312  0.5114  0.4598
  101CHL1   H2B13709   5.489   4.071  16.717 -1.3653 -0.1768 -3.3648
  101CHL1   C2013710   5.698   4.745  16.063  0.4410 -0.4779  0.8987
  101CHL1   H2013711   5.601   4.691  16.062  1.5136 -2.5505 -1.6594
  101CHL1   C2113712   5.780   4.712  15.939 -0.4795 -0.0150 -0.2979
  101CHL1  H21A13713   5.871   4.775  15.944  0.8672 -1.9876  2.5912
  101CHL1  H21B13714   5.724   4.730  15.845  0.5655  1.1341 -0.7293
  101CHL1  H21C13715   5.814   4.606  15.948  0.8188  0.5218  1.8971
  101CHL1   C2213716   5.669   4.896  16.071  0.1909 -0.3062  0.0347
  101CHL1  H22A13717   5.627   4.930  16.168  1.2158  0.4815  0.2193
  101CHL1  H22B13718   5.767   4.948  16.069  0.1590 -0.0618  2.2788
  101CHL1   C2313719   5.593   4.970  15.957  0.0089  0.6234  0.1277
  101CHL1  H23A13720   5.598   5.078  15.983  2.4619  0.1955  1.7420
  101CHL1  H23B13721   5.636   4.952  15.856 -1.6458  3.4807 -1.2192
  101CHL1   C2413722   5.443   4.920  15.949 -0.9655 -0.5611 -0.5043
  101CHL1  H24A13723   5.431   4.821  15.902 -0.6428 -0.4413 -0.8396
  101CHL1  H24B13724   5.416   4.895  16.054 -0.3590 -1.7296 -0.6111
  101CHL1   C2513725   5.344   5.019  15.890  0.8687  0.4091 -0.2069
  101CHL1   H2513726   5.369   5.039  15.783 -2.4729  2.9645 -0.6758
  101CHL1   C2613727   5.197   4.956  15.890 -0.5893 -0.0358 -0.1047
  101CHL1  H26A13728   5.178   4.913  15.991  1.4477  0.9281  0.7653
  101CHL1  H26B13729   5.120   5.029  15.857  0.4180  0.6738 -0.9861
  101CHL1  H26C13730   5.184   4.873  15.817 -4.7934 -2.1163  2.6361
  101CHL1   C2713731   5.349   5.162  15.950 -0.4548  0.2626 -0.4847
  101CHL1  H27A13732   5.264   5.223  15.913 -1.2771  0.7022  1.9163
  101CHL1  H27B13733   5.328   5.151  16.059  0.9472 -1.6545 -0.3590
  101CHL1  H27C13734   5.448   5.211  15.934 -0.5251  1.7205  2.7303
  102CHL1    C313735   3.985   5.029  16.718  0.0060  0.1522  0.3566
  102CHL1    H313736   3.916   5.102  16.671  2.0291  0.8449 -1.6933
  102CHL1    O313737   3.995   5.065  16.853  0.5990 -0.3279  0.5295
  102CHL1   H3'13738   4.043   5.000  16.904 -0.1147  0.8796  2.9130
  102CHL1    C413739   3.922   4.896  16.702 -0.7571  0.4049  0.6636
  102CHL1   H4A13740   3.965   4.808  16.755 -0.3407  0.1439 -0.0915
  102CHL1   H4B13741   3.822   4.905  16.748 -1.0117  1.4597 -0.0664
  102CHL1    C513742   3.912   4.872  16.549  0.4037 -0.0599 -0.7973
  102CHL1    C613743   3.793   4.861  16.488 -0.0535  0.9538  0.2592
  102CHL1    H613744   3.700   4.883  16.544  0.5046 -0.8778  2.0411
  102CHL1    C713745   3.770   4.825  16.339 -0.0044  0.0050  0.0776
  102CHL1   H7A13746   3.694   4.745  16.330  1.0445 -1.0598  0.3558
  102CHL1   H7B13747   3.735   4.907  16.274 -0.5646 -0.2824  0.0134
  102CHL1    C813748   3.902   4.779  16.276 -0.3451 -0.0917  0.7365
  102CHL1    H813749   3.911   4.673  16.310 -0.6723 -0.0029  1.1105
  102CHL1   C1413750   3.893   4.789  16.122  0.7485 -0.0478  0.2377
  102CHL1   H1413751   3.880   4.897  16.101  0.3901 -0.1038  0.1708
  102CHL1   C1513752   3.770   4.719  16.062  0.2928  0.3445 -0.1474
  102CHL1  H15A13753   3.758   4.623  16.116  1.8519  0.2919  0.1494
  102CHL1  H15B13754   3.672   4.771  16.054 -0.3894 -0.9527 -0.5231
  102CHL1   C1613755   3.812   4.696  15.917  0.4929 -0.0442  1.1552
  102CHL1  H16A13756   3.797   4.591  15.884 -2.4938  0.1922  1.4514
  102CHL1  H16B13757   3.758   4.761  15.845  2.7773  1.5218  0.7399
  102CHL1   C1713758   3.962   4.742  15.905 -0.1151 -0.3821  0.1878
  102CHL1   H1713759   3.955   4.850  15.878  1.6209  0.1615  1.7061
  102CHL1   C1313760   4.016   4.731  16.050 -0.0485  0.4990  0.1708
  102CHL1   C1813761   4.047   4.586  16.086  0.5787  0.4165  0.5616
  102CHL1  H18A13762   3.955   4.527  16.065  1.8989 -1.1378 -1.2118
  102CHL1  H18B13763   4.128   4.550  16.020  1.4157  2.2703  0.5287
  102CHL1  H18C13764   4.079   4.565  16.191  3.8817 -1.5593 -0.6945
  102CHL1   C1213765   4.131   4.828  16.086  0.3919 -0.2006  0.1428
  102CHL1  H12A13766   4.223   4.809  16.028  1.2986  1.2277  1.0256
  102CHL1  H12B13767   4.103   4.932  16.058  1.8972  0.6920  1.7408
  102CHL1   C1113768   4.162   4.822  16.236  0.6487  0.1254  0.1232
  102CHL1  H11A13769   4.194   4.718  16.256 -0.8681 -0.1780  1.1685
  102CHL1  H11B13770   4.234   4.902  16.262 -0.2035  1.6725 -1.9797
  102CHL1    C913771   4.026   4.857  16.325 -0.2324 -0.3029 -0.1390
  102CHL1    H913772   3.994   4.958  16.290  0.6311  0.6759  1.7612
  102CHL1   C1013773   4.048   4.869  16.479  0.1713  0.0231 -0.3186
  102CHL1   C1913774   4.123   4.738  16.529 -0.1386 -0.1677 -0.0202
  102CHL1  H19A13775   4.063   4.651  16.494  0.1430  0.0045 -0.9747
  102CHL1  H19B13776   4.227   4.739  16.489 -0.7370  0.4748 -1.6481
  102CHL1  H19C13777   4.141   4.740  16.638 -0.0905 -1.1773 -0.0055
  102CHL1    C113778   4.125   4.998  16.506 -0.0770 -0.3880  0.2059
  102CHL1   H1A13779   4.227   4.987  16.463 -0.8089 -0.9888 -1.4998
  102CHL1   H1B13780   4.062   5.076  16.458 -0.3116 -1.2795 -1.0036
  102CHL1    C213781   4.126   5.038  16.655 -0.3123  0.2496  0.5401
  102CHL1   H2A13782   4.167   5.141  16.663  1.8300 -0.3040 -1.9137
  102CHL1   H2B13783   4.190   4.968  16.713 -1.8884 -1.1801  0.6308
  102CHL1   C2013784   4.034   4.674  15.792 -0.6454  0.4480  0.3141
  102CHL1   H2013785   4.023   4.565  15.809 -0.3099  0.3271 -0.2356
  102CHL1   C2113786   4.178   4.717  15.776 -0.1835 -0.3115 -0.3209
  102CHL1  H21A13787   4.189   4.827  15.767 -0.6156 -0.3113 -0.8794
  102CHL1  H21B13788   4.234   4.672  15.691  2.9915 -1.8918  2.3619
  102CHL1  H21C13789   4.243   4.682  15.859 -1.0049  0.0242  0.4847
  102CHL1   C2213790   3.963   4.716  15.659 -0.0649  0.4119 -0.0877
  102CHL1  H22A13791   3.863   4.669  15.645  0.9779 -1.1027 -3.3648
  102CHL1  H22B13792   3.956   4.827  15.659 -0.6274  0.3830 -0.6063
  102CHL1   C2313793   4.034   4.668  15.522  0.2293 -0.7150  0.0946
  102CHL1  H23A13794   4.115   4.741  15.502  0.6998 -1.2461  0.0354
  102CHL1  H23B13795   4.081   4.573  15.556  0.6245 -0.0104  1.6217
  102CHL1   C2413796   3.940   4.643  15.396 -0.7537  0.4734  0.1292
  102CHL1  H24A13797   4.002   4.604  15.312 -1.1579  0.4631 -0.1650
  102CHL1  H24B13798   3.858   4.573  15.422 -0.5587 -0.0001 -0.5065
  102CHL1   C2513799   3.865   4.771  15.353  0.2527 -0.2111  0.6742
  102CHL1   H2513800   3.814   4.808  15.445 -1.1126 -1.0713  0.2894
  102CHL1   C2613801   3.951   4.890  15.303 -0.1361 -0.2799  0.5438
  102CHL1  H26A13802   4.017   4.842  15.228 -1.9275  0.0135 -1.3038
  102CHL1  H26B13803   3.904   4.971  15.244 -0.1723  0.0242  0.9848
  102CHL1  H26C13804   4.012   4.941  15.381  0.3055  0.6310 -0.3783
  102CHL1   C2713805   3.762   4.733  15.246  0.0655  0.2022 -0.4690
  102CHL1  H27A13806   3.675   4.705  15.309  0.9496  0.2634  0.8357
  102CHL1  H27B13807   3.725   4.830  15.208 -0.8963  0.0947  0.1611
  102CHL1  H27C13808   3.793   4.659  15.169 -1.0840  0.5858 -1.3257
  103CHL1    C313809   5.043   3.089  16.670  0.1148 -0.3173  0.0656
  103CHL1    H313810   5.070   3.195  16.693 -1.8557  0.2165  0.1083
  103CHL1    O313811   5.022   3.018  16.790 -0.5762 -0.0898  0.2579
  103CHL1   H3'13812   5.110   3.001  16.823 -0.9525 -1.5778  0.6015
  103CHL1    C413813   4.913   3.090  16.593 -0.3012 -0.2548 -0.4354
  103CHL1   H4A13814   4.877   2.987  16.575  0.2109 -0.6339  0.6414
  103CHL1   H4B13815   4.834   3.135  16.657 -0.2482 -1.4514  0.5186
  103CHL1    C513816   4.923   3.153  16.456 -0.4949 -0.0470  0.2598
  103CHL1    C613817   4.840   3.256  16.431 -0.0372 -1.6060 -0.0526
  103CHL1    H613818   4.758   3.285  16.498  0.7464  1.7970 -0.3718
  103CHL1    C713819   4.841   3.332  16.298 -0.2228 -0.2528 -0.6773
  103CHL1   H7A13820   4.740   3.339  16.252 -0.6582 -3.8915 -0.5897
  103CHL1   H7B13821   4.884   3.434  16.307  0.9518 -0.7109 -0.8037
  103CHL1    C813822   4.931   3.254  16.194  0.5136  0.2073 -0.0446
  103CHL1    H813823   4.885   3.166  16.143  0.6000 -0.0255  0.2717
  103CHL1   C1413824   4.969   3.352  16.080 -0.1107  0.3075 -0.1384
  103CHL1   H1413825   5.019   3.435  16.133 -1.1146  0.6117  0.3543
  103CHL1   C1513826   4.843   3.410  16.008 -0.7301 -0.1542  0.4910
  103CHL1  H15A13827   4.766   3.337  15.974  0.2356 -1.1404  0.3587
  103CHL1  H15B13828   4.794   3.494  16.061 -3.2751 -0.4307 -1.2375
  103CHL1   C1613829   4.895   3.465  15.874 -0.2263  0.2194  0.0658
  103CHL1  H16A13830   4.835   3.414  15.796 -0.0584 -0.4293  0.3584
  103CHL1  H16B13831   4.886   3.576  15.882  3.3228  0.7959 -2.1789
  103CHL1   C1713832   5.045   3.420  15.869 -0.5179  0.1521  0.4533
  103CHL1   H1713833   5.099   3.505  15.916  1.1096 -0.3591 -0.4044
  103CHL1   C1313834   5.059   3.298  15.967 -0.6240 -0.1801 -1.1195
  103CHL1   C1813835   5.008   3.171  15.891 -0.3914 -0.3460 -0.0660
  103CHL1  H18A13836   4.907   3.204  15.859 -0.1850 -1.1989 -1.6673
  103CHL1  H18B13837   5.067   3.154  15.799  0.7631  1.6791  0.2364
  103CHL1  H18C13838   5.002   3.087  15.963  2.5058  0.2438  0.9952
  103CHL1   C1213839   5.195   3.277  16.043  0.4532 -0.0902  0.5786
  103CHL1  H12A13840   5.260   3.231  15.965  0.3950  1.1659 -0.2448
  103CHL1  H12B13841   5.251   3.365  16.081  0.1859 -0.1894  1.2154
  103CHL1   C1113842   5.178   3.175  16.159 -0.3998  0.7416  0.1859
  103CHL1  H11A13843   5.162   3.079  16.107  1.4250  1.3680 -1.6740
  103CHL1  H11B13844   5.272   3.182  16.219  0.7815 -0.1265 -1.4959
  103CHL1    C913845   5.059   3.211  16.265 -0.2234  0.4736  0.3621
  103CHL1    H913846   5.102   3.302  16.313  1.9504 -0.0185 -0.5105
  103CHL1   C1013847   5.045   3.102  16.371  0.5104 -0.2986 -0.2368
  103CHL1   C1913848   4.996   2.976  16.300 -0.3195 -0.4522 -0.5307
  103CHL1  H19A13849   4.911   2.974  16.228  0.9269 -2.3011 -2.0576
  103CHL1  H19B13850   5.079   2.931  16.241  0.4697  1.4561 -0.9501
  103CHL1  H19C13851   4.975   2.900  16.379 -0.0452 -0.6451 -0.6394
  103CHL1    C113852   5.179   3.089  16.458  0.2388  0.1802 -0.0284
  103CHL1   H1A13853   5.254   3.035  16.396 -0.5568 -1.6341  0.5188
  103CHL1   H1B13854   5.222   3.189  16.480  1.5127  0.0411 -1.6868
  103CHL1    C213855   5.148   3.011  16.584  0.4348  0.2290 -0.1133
  103CHL1   H2A13856   5.238   2.996  16.649  1.2546  0.9664 -1.0539
  103CHL1   H2B13857   5.111   2.909  16.561 -1.1627  0.8514 -0.3888
  103CHL1   C2013858   5.088   3.417  15.718 -0.5775  0.4442 -0.4788
  103CHL1   H2013859   5.023   3.341  15.670 -0.7813 -0.5192  1.2104
  103CHL1   C2113860   5.234   3.389  15.704 -0.1757  0.8327 -0.1990
  103CHL1  H21A13861   5.268   3.403  15.599 -1.3872  1.3199 -0.5406
  103CHL1  H21B13862   5.244   3.285  15.742 -0.5773  0.7949 -0.1974
  103CHL1  H21C13863   5.302   3.457  15.760  2.6161 -0.0078 -2.3025
  103CHL1   C2213864   5.059   3.553  15.647  0.6069  0.1068  0.6968
  103CHL1  H22A13865   5.007   3.628  15.712  0.3935 -0.1135  0.7826
  103CHL1  H22B13866   5.153   3.611  15.632  1.4403 -1.5607 -0.8286
  103CHL1   C2313867   4.983   3.534  15.518 -0.3170 -0.6154  0.9399
  103CHL1  H23A13868   5.055   3.509  15.436  0.9273  0.5690  1.6181
  103CHL1  H23B13869   4.918   3.445  15.533 -2.9713  1.2990  1.4858
  103CHL1   C2413870   4.912   3.661  15.467  0.2318 -0.4375 -0.1957
  103CHL1  H24A13871   4.854   3.699  15.554 -0.3372 -2.8872  0.5840
  103CHL1  H24B13872   4.995   3.732  15.447 -0.1642  0.3898  1.0207
  103CHL1   C2513873   4.822   3.629  15.346 -0.1811  0.6384  0.0635
  103CHL1   H2513874   4.890   3.594  15.265  1.6446  0.4138  1.6402
  103CHL1   C2613875   4.713   3.521  15.363  0.0086 -0.3881  0.7036
  103CHL1  H26A13876   4.764   3.435  15.412  0.4764 -1.4871 -1.5499
  103CHL1  H26B13877   4.636   3.559  15.434  0.8609  0.3796  1.2433
  103CHL1  H26C13878   4.673   3.491  15.264 -0.2498 -0.8023  0.9280
  103CHL1   C2713879   4.758   3.767  15.306 -0.2394  0.4086 -1.1808
  103CHL1  H27A13880   4.838   3.843  15.296  1.0008 -0.7862 -0.6268
  103CHL1  H27B13881   4.707   3.772  15.207 -0.2043  3.0183 -1.1418
  103CHL1  H27C13882   4.692   3.798  15.390  1.7211 -0.3558  0.7312
  104CHL1    C313883   7.166   3.983  16.704 -0.4478 -0.2399 -0.4197
  104CHL1    H313884   7.102   3.894  16.722  0.9544 -1.6713 -2.1553
  104CHL1    O313885   7.232   4.031  16.823  0.1945  0.4240  0.4860
  104CHL1   H3'13886   7.279   4.110  16.797  0.0851  1.3656  2.9136
  104CHL1    C413887   7.274   3.929  16.601 -0.4453  0.2258 -1.9033
  104CHL1   H4A13888   7.356   4.004  16.591 -1.3390  1.3760 -0.9352
  104CHL1   H4B13889   7.316   3.839  16.650  1.2336  2.3019  0.7616
  104CHL1    C513890   7.201   3.886  16.478 -0.3401 -0.2338  0.0350
  104CHL1    C613891   7.212   3.762  16.419 -0.4748  0.3895  0.4360
  104CHL1    H613892   7.283   3.687  16.456 -0.8491 -0.2376 -0.0935
  104CHL1    C713893   7.143   3.722  16.287  0.3489 -0.3990 -0.3856
  104CHL1   H7A13894   7.216   3.650  16.245  0.7216 -0.9165  1.0851
  104CHL1   H7B13895   7.045   3.674  16.306 -0.5795  1.4521 -0.2045
  104CHL1    C813896   7.110   3.845  16.204 -0.1356 -0.1724  0.8029
  104CHL1    H813897   7.205   3.893  16.169  0.1805 -2.0595 -1.1466
  104CHL1   C1413898   7.029   3.805  16.083 -0.6571  0.3743  0.3132
  104CHL1   H1413899   6.945   3.744  16.121  0.5076 -1.2863  0.3706
  104CHL1   C1513900   7.106   3.708  15.986 -0.3750 -0.5729  0.0272
  104CHL1  H15A13901   7.206   3.752  15.969 -0.6464  0.5377  1.1220
  104CHL1  H15B13902   7.113   3.609  16.036  0.2381  0.0626  1.2417
  104CHL1   C1613903   7.026   3.721  15.862  0.0176  1.4371  0.6213
  104CHL1  H16A13904   7.094   3.727  15.775  2.0563  0.0342  2.0355
  104CHL1  H16B13905   6.959   3.632  15.859  1.2494  0.2212  3.9995
  104CHL1   C1713906   6.926   3.838  15.876 -0.5301  0.3176  0.5658
  104CHL1   H1713907   6.832   3.793  15.915 -1.1312  0.0624 -1.0658
  104CHL1   C1313908   6.990   3.919  15.994  0.1292  0.5430  0.3112
  104CHL1   C1813909   7.105   4.002  15.941  0.0598 -0.4894 -0.3142
  104CHL1  H18A13910   7.052   4.085  15.888  0.0900 -0.2444  0.0325
  104CHL1  H18B13911   7.161   4.059  16.019 -0.2987 -0.2075 -0.2559
  104CHL1  H18C13912   7.177   3.948  15.877 -0.6342  0.4528 -1.9489
  104CHL1   C1213913   6.887   4.007  16.074  0.5950  0.0114 -0.4125
  104CHL1  H12A13914   6.848   4.091  16.013 -1.2596  1.0827  2.0636
  104CHL1  H12B13915   6.799   3.941  16.085  0.1663  0.7981  1.1926
  104CHL1   C1113916   6.949   4.053  16.207 -0.1632 -0.3229 -0.0991
  104CHL1  H11A13917   7.019   4.138  16.192 -0.4045 -0.2533 -0.8503
  104CHL1  H11B13918   6.862   4.081  16.271 -0.3928  0.4799 -0.7617
  104CHL1    C913919   7.029   3.946  16.292  0.4940 -0.0336 -0.3057
  104CHL1    H913920   6.955   3.878  16.339 -0.2527  0.5136 -0.6659
  104CHL1   C1013921   7.116   3.996  16.409  1.1619  0.1140  0.1310
  104CHL1   C1913922   7.216   4.103  16.353  0.1986 -0.2014  0.1145
  104CHL1  H19A13923   7.268   4.060  16.265  0.9350 -0.2566  0.5749
  104CHL1  H19B13924   7.167   4.195  16.315  0.7036 -0.2263 -0.6136
  104CHL1  H19C13925   7.294   4.124  16.429 -1.2056  1.2749  1.2328
  104CHL1    C113926   7.022   4.047  16.511  0.0874 -0.5342  0.3313
  104CHL1   H1A13927   6.960   4.129  16.469 -0.3790 -1.7384 -1.4199
  104CHL1   H1B13928   6.957   3.964  16.546 -2.6681  1.3179 -0.0947
  104CHL1    C213929   7.092   4.103  16.640 -0.4814  0.4874  0.5194
  104CHL1   H2A13930   7.021   4.135  16.719 -1.5673  0.8097 -0.5642
  104CHL1   H2B13931   7.152   4.194  16.621  1.2117 -0.3764  1.5044
  104CHL1   C2013932   6.881   3.897  15.740 -0.3180 -0.1562  0.2015
  104CHL1   H2013933   6.978   3.914  15.688  0.2915  0.1888  1.4236
  104CHL1   C2113934   6.802   4.021  15.746  0.0556 -0.2138  0.2850
  104CHL1  H21A13935   6.760   4.044  15.646  0.6295 -3.6916 -0.9034
  104CHL1  H21B13936   6.857   4.113  15.774  1.3911 -0.9093  0.0402
  104CHL1  H21C13937   6.714   4.008  15.812 -0.6974  0.3282 -0.5958
  104CHL1   C2213938   6.802   3.784  15.660 -0.5986 -0.7854 -0.8843
  104CHL1  H22A13939   6.874   3.700  15.650  0.8147  0.2471  0.1473
  104CHL1  H22B13940   6.713   3.755  15.720  0.8740 -1.3582  1.1226
  104CHL1   C2313941   6.760   3.824  15.520 -0.1453  0.4708  0.4947
  104CHL1  H23A13942   6.662   3.876  15.530 -0.2641  0.1128  1.2244
  104CHL1  H23B13943   6.827   3.903  15.481 -0.0177 -0.0852 -0.4462
  104CHL1   C2413944   6.750   3.707  15.416  0.3613 -0.9564  0.5167
  104CHL1  H24A13945   6.847   3.702  15.364 -0.0429 -1.7060 -0.1794
  104CHL1  H24B13946   6.717   3.622  15.480 -1.0796 -0.1042  0.9673
  104CHL1   C2513947   6.656   3.735  15.296 -0.1224 -0.2665 -0.1088
  104CHL1   H2513948   6.672   3.833  15.246 -0.5859 -0.5805 -0.8811
  104CHL1   C2613949   6.680   3.629  15.194  0.3157 -0.3934 -0.0377
  104CHL1  H26A13950   6.788   3.616  15.171  0.9383 -3.1440  3.4749
  104CHL1  H26B13951   6.655   3.527  15.230 -0.6944 -0.0047  0.4079
  104CHL1  H26C13952   6.620   3.660  15.106  1.8177  1.8927 -0.3425
  104CHL1   C2713953   6.508   3.739  15.339  0.5751 -0.4356 -0.5788
  104CHL1  H27A13954   6.479   3.632  15.340  0.9858 -0.5730  2.1570
  104CHL1  H27B13955   6.486   3.783  15.438  1.8723  0.1974 -0.5524
  104CHL1  H27C13956   6.438   3.786  15.266 -0.7518  1.9829  2.0747
  105CHL1    C313957   7.316   2.621  16.715  0.6506  0.0078 -0.2182
  105CHL1    H313958   7.206   2.613  16.729  0.5383 -0.1053 -1.1187
  105CHL1    O313959   7.372   2.639  16.838 -0.0015 -0.2634 -0.7266
  105CHL1   H3'13960   7.468   2.640  16.829  0.0183 -1.3331 -0.8735
  105CHL1    C413961   7.363   2.484  16.667 -0.4279 -0.0651 -0.4181
  105CHL1   H4A13962   7.472   2.473  16.685 -0.4629 -3.0026 -1.5520
  105CHL1   H4B13963   7.316   2.401  16.725 -2.9427  2.0732  0.8403
  105CHL1    C513964   7.336   2.465  16.519 -0.0124  0.2448 -0.2499
  105CHL1    C613965   7.265   2.358  16.485  0.5751 -0.7203  0.0360
  105CHL1    H613966   7.236   2.283  16.560 -0.7298 -0.1421  0.1241
  105CHL1    C713967   7.230   2.334  16.338 -0.8276 -0.1380 -0.0540
  105CHL1   H7A13968   7.231   2.225  16.316  2.1538 -0.0916 -0.4874
  105CHL1   H7B13969   7.128   2.372  16.316 -0.3734  1.3051  0.2343
  105CHL1    C813970   7.335   2.404  16.242 -0.6561  0.5518  0.1059
  105CHL1    H813971   7.429   2.348  16.263 -2.4489 -1.4797  3.5733
  105CHL1   C1413972   7.285   2.398  16.105  0.2123 -1.3020  0.6398
  105CHL1   H1413973   7.191   2.458  16.097  1.3804  0.3821 -1.5925
  105CHL1   C1513974   7.255   2.257  16.063  0.2608  1.0214 -0.3649
  105CHL1  H15A13975   7.336   2.185  16.089  0.2672  1.2242  0.1837
  105CHL1  H15B13976   7.160   2.209  16.094  0.7481 -0.1863 -0.6726
  105CHL1   C1613977   7.248   2.270  15.907  0.6521  0.7044 -0.1509
  105CHL1  H16A13978   7.323   2.196  15.872  0.7342 -0.1722  1.7482
  105CHL1  H16B13979   7.148   2.254  15.862  0.2784  0.2681  0.7998
  105CHL1   C1713980   7.313   2.408  15.873 -0.0481  0.5417 -0.2512
  105CHL1   H1713981   7.226   2.473  15.852 -0.5788 -0.2519 -0.5908
  105CHL1   C1313982   7.382   2.456  16.001 -0.3468 -0.1117 -0.0488
  105CHL1   C1813983   7.524   2.403  16.015  0.5822 -0.1410  0.4418
  105CHL1  H18A13984   7.521   2.293  16.004 -0.1130 -0.0033 -0.8254
  105CHL1  H18B13985   7.592   2.446  15.938  2.9145 -2.0708  1.2740
  105CHL1  H18C13986   7.577   2.426  16.110  2.3884 -1.1346 -0.2782
  105CHL1   C1213987   7.384   2.614  16.023  0.1473 -0.2112 -0.1475
  105CHL1  H12A13988   7.445   2.661  15.943 -0.0207  1.1945  0.5270
  105CHL1  H12B13989   7.282   2.646  15.994 -0.0608 -2.3480 -2.0849
  105CHL1   C1113990   7.419   2.641  16.171 -0.4758  0.0176 -0.4949
  105CHL1  H11A13991   7.528   2.624  16.176 -0.4730  0.4219  3.4056
  105CHL1  H11B13992   7.393   2.748  16.185  1.0788  0.2566  0.7030
  105CHL1    C913993   7.344   2.550  16.276  1.0097  0.2656 -0.6693
  105CHL1    H913994   7.239   2.583  16.274  0.7646 -0.3165  1.2135
  105CHL1   C1013995   7.396   2.573  16.423  0.3434  0.5485 -0.4745
  105CHL1   C1913996   7.551   2.564  16.437  0.2315 -1.2266 -0.0048
  105CHL1  H19A13997   7.589   2.563  16.541  0.4405  0.7790 -0.0285
  105CHL1  H19B13998   7.596   2.483  16.376  0.0646  0.7637 -2.9740
  105CHL1  H19C13999   7.587   2.659  16.392  0.6966 -0.6657  1.5042
  105CHL1    C114000   7.346   2.711  16.472 -0.0560 -0.4665  0.1395
  105CHL1   H1A14001   7.386   2.798  16.415 -0.3639 -3.0013 -4.4255
  105CHL1   H1B14002   7.239   2.706  16.445 -0.0598 -0.7356  0.2031
  105CHL1    C214003   7.366   2.731  16.626  0.0060 -0.5069  0.2398
  105CHL1   H2A14004   7.311   2.825  16.650 -0.3946 -0.8893  0.8494
  105CHL1   H2B14005   7.473   2.749  16.652 -0.5307  1.0201  1.5400
  105CHL1   C2014006   7.403   2.419  15.743  0.3646 -0.2848 -0.1968
  105CHL1   H2014007   7.486   2.492  15.755  2.0539 -2.4574  2.3310
  105CHL1   C2114008   7.311   2.450  15.630  0.3785 -0.7819 -0.2773
  105CHL1  H21A14009   7.239   2.530  15.657  0.1926 -0.8928 -0.4414
  105CHL1  H21B14010   7.252   2.356  15.624 -3.9401  1.7130 -0.9205
  105CHL1  H21C14011   7.356   2.477  15.532  2.0176  0.0652  0.6576
  105CHL1   C2214012   7.490   2.298  15.698  0.1841 -0.0184 -0.2819
  105CHL1  H22A14013   7.527   2.240  15.785  1.8984  0.7311 -0.4885
  105CHL1  H22B14014   7.421   2.227  15.646  1.4038 -2.0206  0.7151
  105CHL1   C2314015   7.606   2.331  15.610 -0.2360  1.0942 -0.0194
  105CHL1  H23A14016   7.590   2.403  15.527  3.0936 -0.3869 -2.1657
  105CHL1  H23B14017   7.686   2.370  15.677 -0.0987 -1.1454  1.2374
  105CHL1   C2414018   7.665   2.206  15.526  0.9765 -0.3556 -0.2286
  105CHL1  H24A14019   7.707   2.143  15.607  3.0374  1.3670  0.1437
  105CHL1  H24B14020   7.578   2.159  15.475  2.0559 -1.8698 -0.7261
  105CHL1   C2514021   7.761   2.247  15.413 -0.2409  0.3245 -0.7676
  105CHL1   H2514022   7.829   2.325  15.455 -0.2309  1.0909 -2.1510
  105CHL1   C2614023   7.845   2.129  15.374  0.4269  0.0068 -0.1712
  105CHL1  H26A14024   7.932   2.152  15.309  1.5169 -1.8903  0.5331
  105CHL1  H26B14025   7.885   2.071  15.460  2.0973 -0.4036 -1.1851
  105CHL1  H26C14026   7.782   2.063  15.311 -1.3490 -0.2740  1.7625
  105CHL1   C2714027   7.681   2.298  15.304  0.4836 -0.2013 -0.9088
  105CHL1  H27A14028   7.626   2.394  15.322  0.5030 -0.3394 -0.0566
  105CHL1  H27B14029   7.748   2.306  15.216  1.8693  0.3608  0.1627
  105CHL1  H27C14030   7.608   2.224  15.264  1.2086 -0.5416 -1.6165
  106CHL1    C314031   4.237   1.977  16.611 -0.0894 -0.0908 -0.6530
  106CHL1    H314032   4.221   1.869  16.589 -0.2702 -0.4489  1.0683
  106CHL1    O314033   4.284   1.985  16.754 -0.1529 -0.0365  0.4971
  106CHL1   H3'14034   4.223   1.929  16.802 -1.1940  0.7810  0.1576
  106CHL1    C414035   4.340   2.038  16.517  0.4235  0.7901  0.1579
  106CHL1   H4A14036   4.355   2.137  16.564 -1.0547  0.6240  1.0362
  106CHL1   H4B14037   4.439   1.991  16.534 -0.0430 -0.1245  0.4402
  106CHL1    C514038   4.291   2.049  16.374  0.6467  0.9517  1.0409
  106CHL1    C614039   4.367   2.002  16.275  0.0939 -0.2184  0.1543
  106CHL1    H614040   4.467   1.961  16.292 -0.1810 -0.2032  1.9820
  106CHL1    C714041   4.329   2.019  16.129 -0.3696 -0.4670 -0.3604
  106CHL1   H7A14042   4.410   2.047  16.059 -1.0507 -0.6412 -1.2463
  106CHL1   H7B14043   4.308   1.917  16.091 -2.6738  0.2505 -1.1602
  106CHL1    C814044   4.204   2.109  16.102 -0.3403 -0.2520 -0.1520
  106CHL1    H814045   4.249   2.211  16.110  0.2045 -0.5698  1.0064
  106CHL1   C1414046   4.148   2.089  15.958  0.4818 -0.3871 -0.3040
  106CHL1   H1414047   4.099   1.989  15.962 -3.2433  1.3359  0.7837
  106CHL1   C1514048   4.257   2.099  15.842  0.5225  0.6104  0.5862
  106CHL1  H15A14049   4.327   2.182  15.867 -1.5993  2.5960  0.2873
  106CHL1  H15B14050   4.304   1.999  15.837  0.7812  0.7769 -0.4524
  106CHL1   C1614051   4.166   2.114  15.719 -0.1862 -0.2993  0.1684
  106CHL1  H16A14052   4.197   2.207  15.667 -2.0875  0.4529  0.2953
  106CHL1  H16B14053   4.168   2.020  15.659  1.7981  0.0417 -0.3584
  106CHL1   C1714054   4.018   2.136  15.775  0.4281  0.2987  0.3183
  106CHL1   H1714055   3.965   2.039  15.770  2.5233 -0.8456 -1.9383
  106CHL1   C1314056   4.042   2.182  15.922  0.4934 -0.5252 -0.1079
  106CHL1   C1814057   4.096   2.327  15.921  0.6667  0.5088 -0.0469
  106CHL1  H18A14058   4.018   2.390  15.873  0.6465  0.2353 -0.3789
  106CHL1  H18B14059   4.127   2.370  16.018  0.4120  1.6273 -0.4474
  106CHL1  H18C14060   4.186   2.340  15.856 -0.8774  0.8957 -2.2086
  106CHL1   C1214061   3.931   2.164  16.034  0.9208 -0.7574 -0.2221
  106CHL1  H12A14062   3.853   2.240  16.016  0.0424 -1.1267  1.8739
  106CHL1  H12B14063   3.876   2.070  16.016 -0.2334 -0.2352  0.4814
  106CHL1   C1114064   3.977   2.181  16.181 -0.4577  0.3207  0.7205
  106CHL1  H11A14065   4.005   2.289  16.184 -0.6165  0.4239 -0.5749
  106CHL1  H11B14066   3.894   2.153  16.248 -1.6781 -1.2059 -1.3168
  106CHL1    C914067   4.105   2.093  16.213  0.5819  0.6693 -0.1908
  106CHL1    H914068   4.083   1.984  16.204  2.2606  0.4157 -1.8805
  106CHL1   C1014069   4.156   2.117  16.359  0.1497  0.1281 -0.4192
  106CHL1   C1914070   4.173   2.269  16.379 -0.5963 -0.2554  0.1921
  106CHL1  H19A14071   4.078   2.325  16.389 -1.5931 -1.6751 -0.9482
  106CHL1  H19B14072   4.237   2.284  16.469  1.0158 -1.7798 -0.6381
  106CHL1  H19C14073   4.233   2.303  16.291  1.3096 -1.9750  0.7610
  106CHL1    C114074   4.052   2.059  16.458  0.4096 -0.1546 -0.0090
  106CHL1   H1A14075   3.964   2.127  16.463  0.5769  0.1006 -0.4862
  106CHL1   H1B14076   4.022   1.955  16.432  0.4307  0.4010 -2.4980
  106CHL1    C214077   4.100   2.052  16.605  0.5080  0.3374  0.0223
  106CHL1   H2A14078   4.029   1.992  16.665  0.9500  0.1829  0.4018
  106CHL1   H2B14079   4.115   2.154  16.647 -1.4397 -0.4466  2.8562
  106CHL1   C2014080   3.929   2.230  15.686 -0.4573  0.3764 -0.1046
  106CHL1   H2014081   3.983   2.326  15.677 -0.7287  0.6787  1.2611
  106CHL1   C2114082   3.782   2.245  15.746 -0.1677  0.2489  0.2597
  106CHL1  H21A14083   3.793   2.324  15.823 -0.6027  1.1224 -0.5481
  106CHL1  H21B14084   3.746   2.149  15.788 -0.3894  0.7797  1.3017
  106CHL1  H21C14085   3.712   2.304  15.683 -0.2165 -0.8082 -0.7078
  106CHL1   C2214086   3.918   2.178  15.537 -0.0804 -0.5440 -0.0858
  106CHL1  H22A14087   4.020   2.154  15.499 -0.2054  0.2856 -0.9827
  106CHL1  H22B14088   3.853   2.089  15.526  0.4841 -0.6999 -2.7984
  106CHL1   C2314089   3.874   2.291  15.439  0.3662 -0.8709 -0.5665
  106CHL1  H23A14090   3.790   2.354  15.478  0.7587  0.0744 -1.2255
  106CHL1  H23B14091   3.959   2.358  15.416  0.9299 -1.3981 -0.0426
  106CHL1   C2414092   3.825   2.243  15.302 -0.9426 -0.1305 -0.1983
  106CHL1  H24A14093   3.904   2.168  15.280  0.3919  0.8216  1.1662
  106CHL1  H24B14094   3.724   2.197  15.303 -1.2766  0.5826  0.8278
  106CHL1   C2514095   3.806   2.359  15.207 -0.1989 -0.1299 -0.4349
  106CHL1   H2514096   3.889   2.433  15.213  0.4436 -0.7272 -1.4618
  106CHL1   C2614097   3.797   2.310  15.063  0.0149 -0.1812 -0.3876
  106CHL1  H26A14098   3.886   2.248  15.038  1.4049  2.2458 -1.8431
  106CHL1  H26B14099   3.703   2.254  15.043 -0.1396 -0.1472  0.2302
  106CHL1  H26C14100   3.808   2.396  14.994 -1.0114  0.7253  0.5316
  106CHL1   C2714101   3.688   2.449  15.227  0.1644 -0.6461 -0.3221
  106CHL1  H27A14102   3.694   2.506  15.322  0.3578  0.4608 -0.9766
  106CHL1  H27B14103   3.685   2.531  15.152 -0.7822 -1.0460 -0.7362
  106CHL1  H27C14104   3.594   2.391  15.231 -0.2849  0.0546  3.4355
  107CHL1    C314105   4.969   6.471  16.735  0.4773  0.4045 -0.9181
  107CHL1    H314106   4.876   6.413  16.752  0.0002  0.8002 -2.0773
  107CHL1    O314107   5.011   6.522  16.858 -0.3202  0.1757  0.7619
  107CHL1   H3'14108   5.078   6.461  16.889  0.9240 -0.0633 -2.0609
  107CHL1    C414109   5.086   6.383  16.678 -0.7192 -0.0208  0.2096
  107CHL1   H4A14110   5.184   6.435  16.675  0.0521 -1.4482 -0.1847
  107CHL1   H4B14111   5.107   6.300  16.748 -1.3163  0.2443  0.7060
  107CHL1    C514112   5.053   6.334  16.541 -0.8886 -0.4638  0.5034
  107CHL1    C614113   5.051   6.201  16.504 -0.0164 -0.0115 -0.7440
  107CHL1    H614114   5.077   6.122  16.575 -0.7688  0.0828 -0.3450
  107CHL1    C714115   5.036   6.149  16.369  0.7429  0.1246  0.2279
  107CHL1   H7A14116   5.112   6.074  16.337  0.6547  0.5034 -0.9320
  107CHL1   H7B14117   4.938   6.099  16.355  1.5100 -1.6989  1.1253
  107CHL1    C814118   5.049   6.263  16.264 -0.1595 -0.2433 -0.6165
  107CHL1    H814119   5.155   6.297  16.264 -0.7305  1.6269 -1.2169
  107CHL1   C1414120   5.008   6.212  16.129  0.5758 -0.5557 -0.2948
  107CHL1   H1414121   4.900   6.191  16.143  0.8619 -1.3790  0.8014
  107CHL1   C1514122   5.077   6.081  16.084  0.4041 -0.1004 -0.2952
  107CHL1  H15A14123   5.187   6.091  16.093  0.3385 -0.0008  0.4289
  107CHL1  H15B14124   5.037   5.989  16.132  1.5137 -0.1146  0.6173
  107CHL1   C1614125   5.042   6.066  15.940  0.0601  0.0228  0.0709
  107CHL1  H16A14126   5.129   6.030  15.881 -0.5048 -0.2791 -0.5860
  107CHL1  H16B14127   4.953   6.001  15.930  0.8682 -1.2608  0.9424
  107CHL1   C1714128   4.996   6.209  15.899  0.6194 -0.1204 -0.0231
  107CHL1   H1714129   4.887   6.196  15.882  1.0317 -0.9311 -2.5546
  107CHL1   C1314130   5.022   6.312  16.015 -0.3718  0.3163  0.2397
  107CHL1   C1814131   5.169   6.361  16.007 -0.1361 -0.0681  0.0668
  107CHL1  H18A14132   5.238   6.274  16.001  0.8921  0.4271  3.0670
  107CHL1  H18B14133   5.180   6.426  15.918  2.2370 -0.2685  0.1320
  107CHL1  H18C14134   5.201   6.426  16.091 -0.7138  1.2646 -0.7264
  107CHL1   C1214135   4.924   6.427  16.047  0.2488  0.0909  0.0230
  107CHL1  H12A14136   4.922   6.497  15.960  1.1733 -1.0045 -0.9167
  107CHL1  H12B14137   4.831   6.367  16.053  0.8540 -1.0942 -1.6192
  107CHL1   C1114138   4.954   6.494  16.182 -0.4105  0.6808 -0.0149
  107CHL1  H11A14139   5.054   6.542  16.167 -0.0576  0.4438  1.4871
  107CHL1  H11B14140   4.874   6.565  16.213 -1.8473 -1.4282  1.3157
  107CHL1    C914141   4.970   6.390  16.300  0.5411  0.1459 -0.2927
  107CHL1    H914142   4.865   6.359  16.319  0.8776 -0.9710 -0.1612
  107CHL1   C1014143   5.017   6.448  16.439  0.0042 -0.4014 -0.3105
  107CHL1   C1914144   5.143   6.535  16.412  0.3626 -0.1367  0.1324
  107CHL1  H19A14145   5.120   6.623  16.349 -0.4559 -0.0374  0.5489
  107CHL1  H19B14146   5.175   6.590  16.503 -1.5126  1.2788 -0.0148
  107CHL1  H19C14147   5.227   6.481  16.365  1.2082 -0.9370  2.4137
  107CHL1    C114148   4.912   6.541  16.498  0.4763  0.2231  0.2818
  107CHL1   H1A14149   4.910   6.636  16.440  1.9154  0.1553  0.0860
  107CHL1   H1B14150   4.814   6.487  16.500  0.4102  0.2773 -0.8836
  107CHL1    C214151   4.932   6.587  16.642 -1.0217 -0.0958 -0.4401
  107CHL1   H2A14152   4.855   6.651  16.688  0.1306 -0.5924  2.3724
  107CHL1   H2B14153   5.024   6.648  16.648 -1.3873  0.5567 -1.2871
  107CHL1   C2014154   5.047   6.250  15.759 -0.3507 -0.0685 -0.1319
  107CHL1   H2014155   5.157   6.266  15.764 -0.2647 -0.8305  0.8039
  107CHL1   C2114156   4.988   6.393  15.707 -0.3475  0.0450  0.0338
  107CHL1  H21A14157   4.878   6.381  15.693 -0.2741  0.7289 -1.2643
  107CHL1  H21B14158   5.032   6.398  15.606  0.5625  0.6819  0.4513
  107CHL1  H21C14159   5.014   6.485  15.764 -1.1407  0.8498 -0.8740
  107CHL1   C2214160   5.015   6.147  15.654 -0.0706  0.4895  0.1558
  107CHL1  H22A14161   5.074   6.174  15.564  0.7974  0.6409  0.7436
  107CHL1  H22B14162   5.071   6.052  15.670 -2.6651 -1.6686 -2.5169
  107CHL1   C2314163   4.871   6.104  15.626 -0.0282  0.5895 -0.9146
  107CHL1  H23A14164   4.820   6.054  15.711  0.4064 -0.6752 -1.3811
  107CHL1  H23B14165   4.805   6.188  15.594  0.9978  1.8846  0.2215
  107CHL1   C2414166   4.869   5.995  15.510  0.5326 -0.1634 -0.2763
  107CHL1  H24A14167   4.908   5.897  15.545 -3.3254 -2.6433 -2.2980
  107CHL1  H24B14168   4.762   5.970  15.499  0.5265 -0.8767  1.1361
  107CHL1   C2514169   4.954   6.034  15.384  0.7799  0.0931  0.3099
  107CHL1   H2514170   5.062   6.042  15.410  1.4169 -0.5822 -1.9215
  107CHL1   C2614171   4.948   5.916  15.277 -0.0115 -0.1411  0.3856
  107CHL1  H26A14172   5.014   5.830  15.298 -0.6404 -0.9542 -0.8205
  107CHL1  H26B14173   4.841   5.885  15.285 -0.8033  2.2083 -0.0365
  107CHL1  H26C14174   4.967   5.962  15.177  0.7219  0.9157  0.9840
  107CHL1   C2714175   4.905   6.165  15.314  0.0824  0.7506  0.0519
  107CHL1  H27A14176   4.977   6.207  15.240  1.1365  0.3787  0.8429
  107CHL1  H27B14177   4.809   6.151  15.260  0.5106 -0.4061 -0.4369
  107CHL1  H27C14178   4.885   6.238  15.395 -1.1293  1.3974 -0.8037
  108CHL1    C314179   7.589   2.080  16.777 -0.4327 -0.3151 -0.1842
  108CHL1    H314180   7.517   1.999  16.750 -1.1616  0.7402 -1.5591
  108CHL1    O314181   7.559   2.122  16.911 -0.0832 -0.2784 -0.0945
  108CHL1   H3'14182   7.604   2.206  16.927 -3.7664  2.3395 -2.0367
  108CHL1    C414183   7.740   2.054  16.769  0.2519  0.5261 -0.3358
  108CHL1   H4A14184   7.794   2.138  16.816  0.4692 -0.8422  2.0098
  108CHL1   H4B14185   7.761   1.965  16.832  0.1197  0.8270  0.1299
  108CHL1    C514186   7.786   2.030  16.622 -0.9760 -0.4057 -0.4761
  108CHL1    C614187   7.839   1.917  16.577 -0.1813  0.5027  0.5085
  108CHL1    H614188   7.851   1.833  16.646  1.7370  0.3079 -0.0105
  108CHL1    C714189   7.896   1.904  16.438 -0.0485 -0.3278  0.3649
  108CHL1   H7A14190   8.000   1.866  16.444 -0.0413 -0.7629 -1.7286
  108CHL1   H7B14191   7.852   1.822  16.378  2.6031 -0.1633 -2.0659
  108CHL1    C814192   7.905   2.036  16.354  0.0463  0.1910  0.0332
  108CHL1    H814193   7.984   2.105  16.392 -0.4911  0.1236  1.3485
  108CHL1   C1414194   7.921   1.997  16.205  0.4286 -0.3193 -0.2024
  108CHL1   H1414195   7.836   1.931  16.177  0.3530  0.7212 -2.6359
  108CHL1   C1514196   8.040   1.918  16.166  0.2273 -0.7362 -0.2238
  108CHL1  H15A14197   8.133   1.966  16.204 -0.2440 -0.0803  0.1466
  108CHL1  H15B14198   8.034   1.810  16.191 -0.9214 -0.5188  0.5503
  108CHL1   C1614199   8.037   1.918  16.015  0.8122 -0.6987  0.6019
  108CHL1  H16A14200   8.136   1.936  15.967  0.1845  2.0825  0.1295
  108CHL1  H16B14201   7.982   1.825  15.992 -0.7635 -0.4035  2.8584
  108CHL1   C1714202   7.946   2.035  15.971 -0.0696  1.0769 -0.3325
  108CHL1   H1714203   7.846   1.998  15.938 -0.2192  0.0845  1.1411
  108CHL1   C1314204   7.921   2.109  16.103  0.4233 -1.0032 -0.0397
  108CHL1   C1814205   8.036   2.208  16.139 -0.4740  0.2571  0.5958
  108CHL1  H18A14206   8.027   2.292  16.067  2.5296 -1.9367 -2.7074
  108CHL1  H18B14207   8.046   2.243  16.244 -1.4170 -1.9733  1.4785
  108CHL1  H18C14208   8.139   2.177  16.109 -0.4256  3.2247 -3.0876
  108CHL1   C1214209   7.783   2.183  16.122 -0.5868 -0.3471 -0.4175
  108CHL1  H12A14210   7.777   2.273  16.056  0.5744  1.7616  2.1685
  108CHL1  H12B14211   7.692   2.122  16.106 -0.9513 -0.9144  3.0910
  108CHL1   C1114212   7.774   2.231  16.268  0.3893 -0.8358 -0.3169
  108CHL1  H11A14213   7.850   2.311  16.281  1.4068 -1.8494  0.0359
  108CHL1  H11B14214   7.672   2.272  16.288  1.3857  0.5273  2.4617
  108CHL1    C914215   7.779   2.113  16.375 -0.0300 -0.3003  0.4482
  108CHL1    H914216   7.690   2.050  16.355 -0.0730 -1.1454  2.9026
  108CHL1   C1014217   7.759   2.152  16.528  0.4390 -0.7163  0.1926
  108CHL1   C1914218   7.851   2.273  16.562 -0.6018 -0.1578 -0.4065
  108CHL1  H19A14219   7.880   2.283  16.669  0.5874 -0.5023 -0.6767
  108CHL1  H19B14220   7.954   2.262  16.523 -0.6323  0.7716 -0.7712
  108CHL1  H19C14221   7.798   2.367  16.536 -2.1304 -0.5457  1.1265
  108CHL1    C114222   7.607   2.193  16.536 -0.1943  0.1667 -0.1805
  108CHL1   H1A14223   7.602   2.297  16.497  1.2930  1.0390  1.7742
  108CHL1   H1B14224   7.535   2.131  16.478 -0.8376  0.6598  0.0820
  108CHL1    C214225   7.549   2.199  16.684  0.3400  0.0514 -0.1849
  108CHL1   H2A14226   7.440   2.218  16.679  0.5119  2.2679  2.1881
  108CHL1   H2B14227   7.602   2.281  16.737  2.4210 -2.6625  2.2631
  108CHL1   C2014228   8.002   2.120  15.857 -0.0789  0.5892 -0.6621
  108CHL1   H2014229   8.096   2.171  15.888  1.2243 -0.7643 -2.2130
  108CHL1   C2114230   7.889   2.227  15.833 -0.9014  0.8285 -0.0041
  108CHL1  H21A14231   7.914   2.272  15.735 -0.9764 -2.5534 -1.7119
  108CHL1  H21B14232   7.883   2.308  15.909 -0.7512  0.5266  0.3332
  108CHL1  H21C14233   7.795   2.169  15.818 -0.3528 -0.2911  0.6910
  108CHL1   C2214234   8.057   2.044  15.730  0.2325  0.4108  0.3123
  108CHL1  H22A14235   8.135   1.975  15.770 -0.1898  0.5588  1.4279
  108CHL1  H22B14236   7.975   1.984  15.685 -0.5198  0.3321  1.7108
  108CHL1   C2314237   8.117   2.132  15.626 -0.1385  0.3236 -0.2858
  108CHL1  H23A14238   8.032   2.155  15.558  0.9888 -0.2218 -1.9366
  108CHL1  H23B14239   8.161   2.225  15.667  1.5155 -0.5258 -0.0586
  108CHL1   C2414240   8.223   2.069  15.541  0.1612  0.5009 -0.0317
  108CHL1  H24A14241   8.310   2.037  15.602 -1.2450  0.5108  2.0915
  108CHL1  H24B14242   8.180   1.978  15.493 -1.6508  1.1165  0.3618
  108CHL1   C2514243   8.277   2.152  15.423 -0.1506 -0.0374  0.1690
  108CHL1   H2514244   8.188   2.172  15.361  1.5846  0.2759 -2.3683
  108CHL1   C2614245   8.332   2.290  15.464  0.2307  0.1635  0.7102
  108CHL1  H26A14246   8.258   2.347  15.524 -1.4022 -0.6561 -0.4406
  108CHL1  H26B14247   8.432   2.276  15.510 -0.0610  0.4148  1.4389
  108CHL1  H26C14248   8.345   2.358  15.378 -0.7331 -0.4877  0.0257
  108CHL1   C2714249   8.377   2.069  15.337  0.2322 -0.3943  1.1256
  108CHL1  H27A14250   8.460   2.049  15.408  1.8016  0.1173 -0.4982
  108CHL1  H27B14251   8.334   1.970  15.309 -1.3278  0.6493 -0.3968
  108CHL1  H27C14252   8.413   2.125  15.248  2.5704 -0.3869  2.0074
  109CHL1    C314253   3.481   5.789  16.647  0.9271 -0.4577  0.4611
  109CHL1    H314254   3.377   5.821  16.626  1.8491  1.4367 -1.6897
  109CHL1    O314255   3.499   5.805  16.786 -1.2072  0.1983 -0.2859
  109CHL1   H3'14256   3.581   5.760  16.807 -1.3858  0.4325  0.9758
  109CHL1    C414257   3.506   5.644  16.607  0.2978  0.2153  0.5319
  109CHL1   H4A14258   3.602   5.610  16.653  0.2367  1.3231  1.5417
  109CHL1   H4B14259   3.428   5.585  16.660  1.7172 -1.4185  0.9221
  109CHL1    C514260   3.519   5.631  16.455 -0.1069  0.3341  0.0052
  109CHL1    C614261   3.458   5.528  16.394  1.0304  0.2210 -0.8428
  109CHL1    H614262   3.408   5.455  16.460  2.1997  1.0490  1.0240
  109CHL1    C714263   3.456   5.508  16.247  0.4112  0.6616  0.3929
  109CHL1   H7A14264   3.477   5.400  16.230 -0.2421  0.6263 -0.2345
  109CHL1   H7B14265   3.351   5.523  16.215  0.0497 -2.0307  0.1130
  109CHL1    C814266   3.561   5.590  16.168  0.0134  0.0075  0.1290
  109CHL1    H814267   3.662   5.545  16.179  1.1377  2.7208  1.9161
  109CHL1   C1414268   3.518   5.594  16.020  0.0447 -0.6578 -0.0211
  109CHL1   H1414269   3.423   5.652  16.022 -0.9512 -2.1253 -1.8414
  109CHL1   C1514270   3.479   5.464  15.947  0.8088 -0.4322  0.4797
  109CHL1  H15A14271   3.530   5.371  15.979  2.9416  0.6752  0.5533
  109CHL1  H15B14272   3.370   5.449  15.958  0.6832 -0.0431 -0.1571
  109CHL1   C1614273   3.495   5.501  15.796  0.6350 -0.2803 -0.1275
  109CHL1  H16A14274   3.563   5.438  15.735 -0.4254 -0.3939 -1.2484
  109CHL1  H16B14275   3.391   5.487  15.760 -0.1378 -0.4822  2.0312
  109CHL1   C1714276   3.543   5.656  15.789  0.8895 -0.3493 -0.2075
  109CHL1   H1714277   3.451   5.719  15.790  0.5946 -0.7792  0.2434
  109CHL1   C1314278   3.613   5.677  15.928 -0.0364  0.7805  0.4825
  109CHL1   C1814279   3.756   5.617  15.924  0.7188 -0.1981  0.1722
  109CHL1  H18A14280   3.833   5.678  15.871  1.7354 -0.9761  0.7039
  109CHL1  H18B14281   3.788   5.605  16.029  1.2774  2.3227  0.3582
  109CHL1  H18C14282   3.748   5.513  15.885  2.0968 -0.1256 -0.3929
  109CHL1   C1214283   3.619   5.819  15.985  0.6265  0.9945  0.2900
  109CHL1  H12A14284   3.686   5.890  15.933  0.5596 -0.6155 -2.1639
  109CHL1  H12B14285   3.516   5.857  15.970  0.0871 -0.5113 -0.0131
  109CHL1   C1114286   3.650   5.825  16.134  0.0189 -0.4191 -0.5192
  109CHL1  H11A14287   3.757   5.796  16.134  0.7734  2.0316  1.6948
  109CHL1  H11B14288   3.664   5.930  16.165 -1.8118 -0.2388 -0.1843
  109CHL1    C914289   3.560   5.733  16.217  0.2855 -0.8614 -0.4050
  109CHL1    H914290   3.460   5.781  16.206  0.3723 -0.6280 -0.1846
  109CHL1   C1014291   3.582   5.741  16.375  0.2261 -0.0312 -0.0505
  109CHL1   C1914292   3.733   5.721  16.395 -0.3745 -0.4792 -0.3147
  109CHL1  H19A14293   3.758   5.725  16.503 -0.7630 -1.2773 -0.1919
  109CHL1  H19B14294   3.775   5.631  16.347  1.1406  0.2217 -0.3730
  109CHL1  H19C14295   3.786   5.809  16.351  1.0274  0.1215  2.3524
  109CHL1    C114296   3.538   5.882  16.421  0.6952 -0.0960 -0.7333
  109CHL1   H1A14297   3.599   5.959  16.369 -0.5829  0.5987 -1.2605
  109CHL1   H1B14298   3.430   5.900  16.403  0.0087 -1.1038  1.8733
  109CHL1    C214299   3.565   5.896  16.567  0.2664 -0.1922  0.5556
  109CHL1   H2A14300   3.531   5.998  16.597 -1.5883 -0.3204 -0.9058
  109CHL1   H2B14301   3.673   5.889  16.591  0.2125  0.6556  1.0974
  109CHL1   C2014302   3.623   5.689  15.663  0.7360 -0.3555 -0.5592
  109CHL1   H2014303   3.716   5.630  15.674  0.6836 -0.3287  0.1185
  109CHL1   C2114304   3.645   5.844  15.663 -0.0181  0.5463 -0.0707
  109CHL1  H21A14305   3.731   5.878  15.725 -1.0871  1.7406  0.8087
  109CHL1  H21B14306   3.555   5.895  15.703  0.0032  2.1466 -1.9175
  109CHL1  H21C14307   3.665   5.881  15.560  1.2992  0.9802  0.3071
  109CHL1   C2214308   3.546   5.632  15.538 -0.3226  0.2325 -0.0471
  109CHL1  H22A14309   3.525   5.523  15.537  0.1137  0.1391 -1.5241
  109CHL1  H22B14310   3.456   5.696  15.529 -0.3653 -0.0929 -2.4089
  109CHL1   C2314311   3.628   5.642  15.404  0.3039  0.6756 -0.1633
  109CHL1  H23A14312   3.700   5.727  15.409 -0.7866  1.7350 -1.6243
  109CHL1  H23B14313   3.693   5.553  15.391  0.5668  0.7444  0.5736
  109CHL1   C2414314   3.547   5.647  15.276 -0.3445 -0.2180  0.5705
  109CHL1  H24A14315   3.608   5.628  15.185 -2.0588 -1.0483 -0.4635
  109CHL1  H24B14316   3.476   5.562  15.278  0.8597 -1.2419  1.0640
  109CHL1   C2514317   3.472   5.776  15.236 -0.6418  0.0718 -0.7013
  109CHL1   H2514318   3.406   5.797  15.323  1.4684  0.4952  0.8548
  109CHL1   C2614319   3.565   5.892  15.224  0.4694 -0.7292 -0.1840
  109CHL1  H26A14320   3.630   5.921  15.310 -0.0029 -1.6771  0.5224
  109CHL1  H26B14321   3.641   5.876  15.144  1.9330  1.2119  0.7388
  109CHL1  H26C14322   3.511   5.982  15.190  2.2147 -0.4762 -2.5814
  109CHL1   C2714323   3.392   5.747  15.106  0.0424  0.6295 -0.7307
  109CHL1  H27A14324   3.466   5.730  15.024  1.0669 -0.1072  0.3119
  109CHL1  H27B14325   3.329   5.655  15.107 -0.0011  0.5945 -2.4539
  109CHL1  H27C14326   3.331   5.834  15.075  3.0821  3.1594 -0.1842
  110CHL1    C314327   2.504   5.438  16.652 -0.3110  0.4259  0.3292
  110CHL1    H314328   2.441   5.352  16.620 -0.5737  0.3440  1.0585
  110CHL1    O314329   2.536   5.433  16.792 -0.0563 -0.2313  0.5238
  110CHL1   H3'14330   2.583   5.353  16.817  1.7141  1.1073  1.7140
  110CHL1    C414331   2.625   5.433  16.554  0.3024  0.9139 -0.0862
  110CHL1   H4A14332   2.702   5.503  16.595 -1.3189  1.4066  2.3340
  110CHL1   H4B14333   2.662   5.330  16.571  1.5554  1.4376  0.5472
  110CHL1    C514334   2.572   5.445  16.412 -0.4539 -0.2957  0.2080
  110CHL1    C614335   2.602   5.348  16.323  0.1527  0.5876 -0.0747
  110CHL1    H614336   2.669   5.268  16.357 -0.4586 -0.2599 -0.8328
  110CHL1    C714337   2.570   5.358  16.177  0.2445  0.0315 -0.5539
  110CHL1   H7A14338   2.657   5.327  16.115  0.3817 -1.6115  0.3924
  110CHL1   H7B14339   2.488   5.285  16.160  0.8377 -0.2222 -2.6773
  110CHL1    C814340   2.518   5.497  16.131 -0.3018 -0.2740  0.4914
  110CHL1    H814341   2.607   5.563  16.117 -0.9808  0.5777  0.0877
  110CHL1   C1414342   2.452   5.489  15.990 -0.3573 -0.1756 -0.8671
  110CHL1   H1414343   2.361   5.436  16.026  0.8130 -1.5231  0.2391
  110CHL1   C1514344   2.512   5.410  15.871 -0.4581  0.2360 -0.2551
  110CHL1  H15A14345   2.618   5.419  15.841  0.5047 -0.4107  2.6472
  110CHL1  H15B14346   2.491   5.303  15.891  2.1663 -0.6011 -1.5893
  110CHL1   C1614347   2.432   5.459  15.744  0.2172 -0.0456 -0.1190
  110CHL1  H16A14348   2.504   5.503  15.672 -0.8285  0.8980 -0.6140
  110CHL1  H16B14349   2.380   5.370  15.701  0.9150  1.1168 -3.7252
  110CHL1   C1714350   2.334   5.572  15.792 -0.9305 -0.2552 -0.8434
  110CHL1   H1714351   2.238   5.518  15.809 -0.5017 -1.4624 -1.9904
  110CHL1   C1314352   2.403   5.615  15.928 -0.1699  0.0529 -0.0362
  110CHL1   C1814353   2.525   5.707  15.888  0.1298 -0.5250  0.3097
  110CHL1  H18A14354   2.557   5.764  15.979  1.6367 -0.5359 -0.1837
  110CHL1  H18B14355   2.616   5.658  15.847  0.6201  0.6354 -0.0218
  110CHL1  H18C14356   2.492   5.786  15.817 -4.2096  0.2483  2.8133
  110CHL1   C1214357   2.307   5.678  16.029  0.1054  0.1758 -0.3520
  110CHL1  H12A14358   2.278   5.781  15.997  0.4728  0.3562 -0.1102
  110CHL1  H12B14359   2.214   5.617  16.022  0.9435 -0.9462 -2.7752
  110CHL1   C1114360   2.362   5.689  16.171 -0.0641 -0.3867 -1.0483
  110CHL1  H11A14361   2.441   5.767  16.172 -0.3399 -0.1030 -1.3887
  110CHL1  H11B14362   2.288   5.728  16.245  1.0724 -0.4507  0.1541
  110CHL1    C914363   2.419   5.551  16.230  0.4490 -0.1306 -0.3147
  110CHL1    H914364   2.333   5.482  16.243 -0.7478  1.4060  0.2360
  110CHL1   C1014365   2.481   5.564  16.378  0.0415 -0.3654  0.0120
  110CHL1   C1914366   2.571   5.687  16.385 -0.0882  0.5719  0.8727
  110CHL1  H19A14367   2.623   5.692  16.287 -1.0180  1.0058  0.3899
  110CHL1  H19B14368   2.518   5.784  16.383 -2.4482 -0.6695 -0.1305
  110CHL1  H19C14369   2.654   5.686  16.459 -0.5137 -3.2220  1.4895
  110CHL1    C114370   2.370   5.580  16.486  0.3730  0.7256  0.2035
  110CHL1   H1A14371   2.329   5.684  16.476  0.3299  0.7702  0.8590
  110CHL1   H1B14372   2.284   5.510  16.477  0.6688  0.5357 -1.4923
  110CHL1    C214373   2.424   5.562  16.628  0.6546  0.1853 -0.5165
  110CHL1   H2A14374   2.344   5.555  16.704 -0.1066 -2.6136 -1.4691
  110CHL1   H2B14375   2.475   5.658  16.653 -2.6082  2.6023 -2.3466
  110CHL1   C2014376   2.308   5.668  15.679  0.2935  0.6035 -0.0129
  110CHL1   H2014377   2.402   5.703  15.632  0.2512 -0.1864 -0.7232
  110CHL1   C2114378   2.224   5.791  15.728  0.5287 -0.1904 -0.4852
  110CHL1  H21A14379   2.198   5.858  15.644 -0.2744  0.8569  0.5739
  110CHL1  H21B14380   2.277   5.852  15.804 -1.5673 -1.1639  1.8914
  110CHL1  H21C14381   2.129   5.756  15.773  1.1590 -1.1967  0.1039
  110CHL1   C2214382   2.240   5.592  15.557  0.4140 -0.5989  0.7910
  110CHL1  H22A14383   2.295   5.498  15.533 -0.2636 -1.0048  0.8064
  110CHL1  H22B14384   2.135   5.561  15.574 -0.3140  1.1451 -0.2581
  110CHL1   C2314385   2.234   5.669  15.419  0.0744  0.6739 -0.5353
  110CHL1  H23A14386   2.163   5.754  15.423  1.6473  2.1108 -1.7632
  110CHL1  H23B14387   2.334   5.715  15.406  0.5073  0.5007  1.6468
  110CHL1   C2414388   2.170   5.565  15.315  0.4475 -0.1738 -0.0877
  110CHL1  H24A14389   2.212   5.462  15.322 -1.3178 -0.9295  0.0881
  110CHL1  H24B14390   2.060   5.571  15.327  0.4622 -1.3449  0.7944
  110CHL1   C2514391   2.178   5.607  15.165 -0.1198  0.0151 -0.2944
  110CHL1   H2514392   2.172   5.717  15.162  0.6045  0.0929  0.5123
  110CHL1   C2614393   2.319   5.577  15.110  0.1437  0.1567 -0.4188
  110CHL1  H26A14394   2.398   5.639  15.157  1.3156 -2.0774  0.7446
  110CHL1  H26B14395   2.345   5.470  15.128  1.7428  0.9417  2.5384
  110CHL1  H26C14396   2.320   5.598  15.001  0.6194  1.3432 -0.2052
  110CHL1   C2714397   2.083   5.551  15.065 -0.3564  0.4722  0.0343
  110CHL1  H27A14398   2.096   5.598  14.965  0.1321  1.5101  0.5695
  110CHL1  H27B14399   2.091   5.441  15.060  3.0628  0.6274  0.0852
  110CHL1  H27C14400   1.979   5.577  15.095  0.6475  2.2114  2.2833
  111CHL1    C314401   3.851   0.369  16.805  0.6074  0.2023 -0.3135
  111CHL1    H314402   3.749   0.405  16.780  0.1751 -1.0483 -0.4148
  111CHL1    O314403   3.871   0.382  16.945 -0.3662 -0.4516 -0.4176
  111CHL1   H3'14404   3.953   0.334  16.960 -0.9306 -1.1344  0.6082
  111CHL1    C414405   3.849   0.219  16.776 -0.9531 -0.1621 -0.4374
  111CHL1   H4A14406   3.934   0.163  16.821 -0.8828 -1.6027 -2.2467
  111CHL1   H4B14407   3.764   0.170  16.826  0.2922 -1.7127  0.2495
  111CHL1    C514408   3.839   0.211  16.623  0.3719 -0.4402  0.3248
  111CHL1    C614409   3.754   0.126  16.567 -0.1037 -1.0498  0.3514
  111CHL1    H614410   3.705   0.050  16.630  0.7784 -1.4437  0.5671
  111CHL1    C714411   3.745   0.100  16.421 -0.1449  0.3642  0.2460
  111CHL1   H7A14412   3.735  -0.008  16.398 -2.5888  0.5605  0.0784
  111CHL1   H7B14413   3.656   0.157  16.385 -0.3490 -0.7114 -1.0065
  111CHL1    C814414   3.869   0.148  16.343 -0.9187  0.6316 -0.3872
  111CHL1    H814415   3.951   0.075  16.362  0.7047  2.6815  0.8855
  111CHL1   C1414416   3.828   0.155  16.197 -0.4980  0.5823 -0.0808
  111CHL1   H1414417   3.739   0.219  16.182  0.0222  0.8353 -2.6777
  111CHL1   C1514418   3.786   0.020  16.123 -0.7971  0.6038  0.3629
  111CHL1  H15A14419   3.857  -0.061  16.147 -1.8717 -0.0574  1.4319
  111CHL1  H15B14420   3.684   0.003  16.162 -0.1014 -0.6524  1.7184
  111CHL1   C1614421   3.788   0.058  15.982 -0.2080 -0.9065  0.3223
  111CHL1  H16A14422   3.851  -0.024  15.943  1.3676 -0.1102  1.1231
  111CHL1  H16B14423   3.690   0.057  15.930  0.6010 -1.6099 -1.2329
  111CHL1   C1714424   3.867   0.198  15.965  0.3073  0.2221 -0.1146
  111CHL1   H1714425   3.786   0.274  15.964 -0.6180 -0.7081  1.0464
  111CHL1   C1314426   3.937   0.215  16.105  0.5509  0.5452  0.1866
  111CHL1   C1814427   4.067   0.132  16.108 -0.4282  0.0743 -0.3215
  111CHL1  H18A14428   4.143   0.189  16.051 -1.3322  1.0400 -0.5814
  111CHL1  H18B14429   4.093   0.104  16.213 -2.9607 -0.1611  0.3168
  111CHL1  H18C14430   4.050   0.044  16.043  0.6954  0.7158 -1.5169
  111CHL1   C1214431   3.977   0.358  16.150 -0.3856 -0.5644  0.0168
  111CHL1  H12A14432   4.057   0.404  16.087  0.1028  0.3021  1.2417
  111CHL1  H12B14433   3.885   0.415  16.127 -0.9991 -1.3187  0.5258
  111CHL1   C1114434   4.024   0.359  16.297  0.4131  0.6408 -0.8776
  111CHL1  H11A14435   4.122   0.309  16.310  1.4658  2.8493  0.0267
  111CHL1  H11B14436   4.036   0.465  16.328  0.2571  0.6348 -0.7975
  111CHL1    C914437   3.914   0.292  16.384 -0.3632  0.5985 -0.2041
  111CHL1    H914438   3.825   0.356  16.369 -0.6452 -0.1746 -2.0714
  111CHL1   C1014439   3.939   0.298  16.542 -0.2583  0.4698  0.1335
  111CHL1   C1914440   4.075   0.234  16.566  0.0968  0.6732  0.4883
  111CHL1  H19A14441   4.152   0.300  16.523 -0.3937  1.8045  1.2800
  111CHL1  H19B14442   4.098   0.233  16.675 -0.4418 -0.8333  0.6166
  111CHL1  H19C14443   4.088   0.135  16.517  0.5935  1.9147 -2.0537
  111CHL1    C114444   3.933   0.451  16.582  0.0559  0.3030  0.2101
  111CHL1   H1A14445   4.005   0.512  16.523 -2.3182  1.4201 -1.6967
  111CHL1   H1B14446   3.834   0.499  16.567 -0.0888 -0.4379 -1.3952
  111CHL1    C214447   3.951   0.457  16.736  0.0482 -0.4129  0.0437
  111CHL1   H2A14448   3.925   0.560  16.771 -2.2418 -1.5350  1.9222
  111CHL1   H2B14449   4.055   0.440  16.773  0.0411  0.8179  0.6805
  111CHL1   C2014450   3.942   0.222  15.838 -1.0100  0.4697 -0.1829
  111CHL1   H2014451   4.046   0.184  15.846 -1.0730  0.4728  0.6952
  111CHL1   C2114452   3.946   0.374  15.821  0.5014 -0.6596  0.3774
  111CHL1  H21A14453   3.952   0.437  15.913 -1.6232 -0.6243  0.5509
  111CHL1  H21B14454   3.845   0.408  15.789  0.4156 -1.8527 -0.7005
  111CHL1  H21C14455   4.027   0.405  15.752  1.7063 -0.9686  1.5890
  111CHL1   C2214456   3.889   0.150  15.716 -0.5058  0.4214 -0.0508
  111CHL1  H22A14457   3.873   0.043  15.740  1.0669  0.3004  0.5766
  111CHL1  H22B14458   3.798   0.205  15.685  0.1387  0.0842 -2.7183
  111CHL1   C2314459   3.981   0.149  15.600 -0.2885 -0.3514 -0.0212
  111CHL1  H23A14460   4.001   0.252  15.563 -0.8627  0.3302  1.4857
  111CHL1  H23B14461   4.086   0.123  15.623  0.0724 -0.2250 -1.4528
  111CHL1   C2414462   3.912   0.080  15.485 -0.1929  0.3104  0.7373
  111CHL1  H24A14463   3.897  -0.030  15.493 -0.2663  0.4092  2.5881
  111CHL1  H24B14464   3.812   0.123  15.463 -0.0574  1.3572  2.0686
  111CHL1   C2514465   3.988   0.089  15.348 -0.3571 -0.4699 -0.6964
  111CHL1   H2514466   3.990   0.195  15.315  1.0127 -0.5922 -1.0844
  111CHL1   C2614467   4.125   0.024  15.347 -0.3129 -0.3529  0.0540
  111CHL1  H26A14468   4.184   0.036  15.254  0.7732 -1.9366  0.4955
  111CHL1  H26B14469   4.195   0.064  15.424 -0.0165 -1.0714  0.1657
  111CHL1  H26C14470   4.114  -0.082  15.379 -3.5686 -0.0465  0.2722
  111CHL1   C2714471   3.899   0.012  15.248  0.8750  0.8597 -0.4339
  111CHL1  H27A14472   3.886  -0.090  15.289  0.4707  1.7591  1.8089
  111CHL1  H27B14473   3.796   0.054  15.249 -0.7259 -2.7131 -0.7040
  111CHL1  H27C14474   3.939   0.010  15.144 -1.1245  1.8292 -1.3002
  112CHL1    C314475   5.630   0.591  16.760 -0.1954 -0.2888 -0.4375
  112CHL1    H314476   5.540   0.648  16.729  0.8875  1.5229 -0.4297
  112CHL1    O314477   5.626   0.587  16.896 -0.9033  0.2778 -0.1123
  112CHL1   H3'14478   5.710   0.562  16.935  0.3537  1.9485 -1.6203
  112CHL1    C414479   5.628   0.451  16.701 -0.0790  0.8406  0.2795
  112CHL1   H4A14480   5.704   0.386  16.750 -2.4186 -1.6711  0.7991
  112CHL1   H4B14481   5.532   0.400  16.723  0.3949  0.4264  1.4817
  112CHL1    C514482   5.668   0.444  16.550 -0.1759 -0.1135 -0.6723
  112CHL1    C614483   5.597   0.368  16.463 -0.3984  0.6691 -0.0038
  112CHL1    H614484   5.521   0.297  16.499 -0.6140  1.1610  0.5299
  112CHL1    C714485   5.622   0.365  16.317 -0.3497  0.2025 -0.7328
  112CHL1   H7A14486   5.614   0.263  16.274 -1.7498  0.8690 -2.1454
  112CHL1   H7B14487   5.547   0.430  16.268 -0.4405  1.6086  1.1615
  112CHL1    C814488   5.768   0.405  16.281  0.1736 -0.1798  0.4941
  112CHL1    H814489   5.838   0.325  16.312  2.1452  1.2715 -0.0371
  112CHL1   C1414490   5.765   0.440  16.135  0.1101 -0.7559 -0.6922
  112CHL1   H1414491   5.697   0.527  16.128  0.5216 -0.3953 -0.3121
  112CHL1   C1514492   5.715   0.332  16.034 -0.0097  0.1794 -0.2112
  112CHL1  H15A14493   5.747   0.232  16.071  0.4015  0.6197  0.6406
  112CHL1  H15B14494   5.604   0.326  16.028 -0.0251  1.1068 -1.2511
  112CHL1   C1614495   5.779   0.374  15.899 -0.4528 -0.3620  0.2673
  112CHL1  H16A14496   5.826   0.286  15.848  1.1933  1.0962 -0.8638
  112CHL1  H16B14497   5.703   0.408  15.826  0.0519 -0.5285 -0.3456
  112CHL1   C1714498   5.874   0.494  15.929  1.0786  0.3856 -0.1838
  112CHL1   H1714499   5.815   0.585  15.905 -2.7369 -2.0473 -1.1397
  112CHL1   C1314500   5.901   0.484  16.081 -0.1685  0.1529 -0.1779
  112CHL1   C1814501   6.005   0.364  16.094 -0.1146  0.0374 -0.3179
  112CHL1  H18A14502   6.010   0.318  16.195 -0.3551  1.5112  0.3834
  112CHL1  H18B14503   5.971   0.287  16.022 -0.5252 -0.3142  0.2416
  112CHL1  H18C14504   6.106   0.404  16.070  0.7193 -1.9582 -0.3694
  112CHL1   C1214505   5.945   0.607  16.155 -0.0887 -0.8329 -0.6643
  112CHL1  H12A14506   6.049   0.637  16.130  0.9493 -0.8418  2.9860
  112CHL1  H12B14507   5.887   0.697  16.127  0.2089 -0.4192 -0.0045
  112CHL1   C1114508   5.948   0.576  16.301 -0.1511 -0.5589  1.0236
  112CHL1  H11A14509   6.033   0.509  16.327  1.3314  1.9995  3.3720
  112CHL1  H11B14510   5.976   0.667  16.359 -0.5864  0.5445 -0.4307
  112CHL1    C914511   5.808   0.529  16.351 -0.0471  0.0982 -0.6074
  112CHL1    H914512   5.735   0.607  16.323 -2.2178  0.6382  5.1617
  112CHL1   C1014513   5.797   0.523  16.514 -0.1501 -0.3642 -0.4425
  112CHL1   C1914514   5.917   0.435  16.563 -0.1512 -0.0922 -0.1676
  112CHL1  H19A14515   6.013   0.488  16.548 -0.4822  0.8000  0.7423
  112CHL1  H19B14516   5.903   0.419  16.672 -0.3157 -1.9562 -0.4234
  112CHL1  H19C14517   5.911   0.338  16.508 -0.5614  1.2861 -2.7351
  112CHL1    C114518   5.788   0.660  16.570  0.0565 -1.0302  0.5003
  112CHL1   H1A14519   5.876   0.727  16.562 -0.9243  0.4999  1.8066
  112CHL1   H1B14520   5.703   0.710  16.519  0.1063 -0.4593  0.9642
  112CHL1    C214521   5.762   0.669  16.722 -0.0883 -0.1177  0.8196
  112CHL1   H2A14522   5.761   0.774  16.758  3.0295 -0.0502  0.9353
  112CHL1   H2B14523   5.853   0.621  16.763 -1.0302 -1.5893  1.2705
  112CHL1   C2014524   6.003   0.510  15.843  0.1202  0.3282  0.3354
  112CHL1   H2014525   6.091   0.455  15.883  1.9539  2.4104 -0.6046
  112CHL1   C2114526   6.041   0.662  15.830 -0.1143 -0.3193  0.5257
  112CHL1  H21A14527   5.973   0.716  15.761 -0.5322 -1.8794 -0.3192
  112CHL1  H21B14528   6.150   0.664  15.806  0.1303 -3.7033  0.8304
  112CHL1  H21C14529   6.028   0.716  15.927 -0.0384 -0.3335  0.5447
  112CHL1   C2214530   5.981   0.464  15.687 -0.7121 -0.3736 -0.0906
  112CHL1  H22A14531   5.927   0.367  15.682 -0.4812 -0.5393  0.5132
  112CHL1  H22B14532   5.927   0.543  15.631 -0.6829  0.5366  1.1243
  112CHL1   C2314533   6.119   0.447  15.618  0.2150 -0.0871 -0.5615
  112CHL1  H23A14534   6.096   0.478  15.514  0.2597  0.9348 -0.2829
  112CHL1  H23B14535   6.194   0.525  15.647  0.9357 -0.3587 -1.6321
  112CHL1   C2414536   6.165   0.298  15.632  0.1436 -0.3512 -0.5944
  112CHL1  H24A14537   6.160   0.282  15.742  1.0913  3.0709  0.0415
  112CHL1  H24B14538   6.102   0.222  15.579  1.2447 -0.3908 -1.9003
  112CHL1   C2514539   6.312   0.268  15.576 -0.6589 -0.2179 -0.3396
  112CHL1   H2514540   6.324   0.293  15.469  2.6354 -1.7945 -0.4748
  112CHL1   C2614541   6.417   0.364  15.640 -0.0726 -0.2783  0.1831
  112CHL1  H26A14542   6.518   0.332  15.608  1.0797  3.1682 -0.0057
  112CHL1  H26B14543   6.414   0.469  15.604  0.1325  0.4112  2.0653
  112CHL1  H26C14544   6.412   0.375  15.751 -1.2958  1.2141  0.0117
  112CHL1   C2714545   6.348   0.114  15.592  0.5297 -0.2427 -0.4479
  112CHL1  H27A14546   6.453   0.090  15.565  0.3207 -2.7318  0.7261
  112CHL1  H27B14547   6.351   0.086  15.700 -0.2897 -1.8761 -0.8163
  112CHL1  H27C14548   6.274   0.051  15.538 -1.5598 -0.5226  2.4497
  113CHL1    C314549   1.933   4.162  16.740 -0.0925  0.0895  1.0589
  113CHL1    H314550   2.044   4.162  16.735 -0.0726  1.0246  1.2686
  113CHL1    O314551   1.896   4.179  16.878  0.0208  0.3686 -0.0858
  113CHL1   H3'14552   1.800   4.170  16.870 -0.5058  2.2191  2.7246
  113CHL1    C414553   1.870   4.278  16.656 -0.0085  0.1690  0.3425
  113CHL1   H4A14554   1.761   4.276  16.676 -0.2055 -0.1479 -0.6837
  113CHL1   H4B14555   1.902   4.378  16.692  0.4298 -0.4537  1.7484
  113CHL1    C514556   1.889   4.257  16.510  0.6162  0.3800  0.7806
  113CHL1    C614557   1.953   4.350  16.435 -0.4061 -0.2353 -0.0581
  113CHL1    H614558   1.989   4.441  16.485 -0.2117  0.5359 -1.5536
  113CHL1    C714559   1.992   4.341  16.291 -0.2818 -0.2237 -0.3683
  113CHL1   H7A14560   1.977   4.439  16.241  3.5018  1.2953  1.0956
  113CHL1   H7B14561   2.102   4.332  16.284  0.1514  2.2541  1.6126
  113CHL1    C814562   1.918   4.227  16.228 -1.4675 -0.2666  0.6313
  113CHL1    H814563   1.812   4.258  16.219 -1.3266  0.0400 -0.0582
  113CHL1   C1414564   1.974   4.200  16.089  0.1452  0.8715 -0.4971
  113CHL1   H1414565   2.076   4.160  16.102 -0.3958 -0.1509  0.9721
  113CHL1   C1514566   1.991   4.323  15.996 -0.6681  0.5455 -0.2333
  113CHL1  H15A14567   1.891   4.372  15.998 -1.3719 -0.8256 -0.6263
  113CHL1  H15B14568   2.067   4.395  16.032 -0.8777 -0.4730  2.4857
  113CHL1   C1614569   2.012   4.256  15.861 -0.0917 -0.2848 -0.8729
  113CHL1  H16A14570   1.933   4.303  15.800  0.1377  1.9502  0.4293
  113CHL1  H16B14571   2.113   4.282  15.822 -0.9404  1.7610 -1.8688
  113CHL1   C1714572   1.985   4.099  15.885 -0.4475 -0.1866 -0.0547
  113CHL1   H1714573   2.088   4.063  15.904  0.6795  1.8573 -1.7842
  113CHL1   C1314574   1.897   4.101  16.003  0.9923 -0.1910 -1.1268
  113CHL1   C1814575   1.756   4.158  15.981 -0.0468  0.1495  0.2151
  113CHL1  H18A14576   1.751   4.259  15.936  0.1403  0.2546  0.4304
  113CHL1  H18B14577   1.713   4.090  15.904  2.5159 -0.3845 -0.8315
  113CHL1  H18C14578   1.684   4.151  16.066 -2.7732 -3.0135 -2.0852
  113CHL1   C1214579   1.902   3.964  16.089  0.5463  0.8250  0.2962
  113CHL1  H12A14580   1.841   3.882  16.046  1.5419 -0.9493  2.0832
  113CHL1  H12B14581   2.005   3.923  16.087  0.3618  0.3688 -0.7925
  113CHL1   C1114582   1.850   3.977  16.233  0.2082 -0.7778 -0.6824
  113CHL1  H11A14583   1.739   3.986  16.236 -0.0841 -2.3492  4.7932
  113CHL1  H11B14584   1.873   3.880  16.282  0.9777  0.4285  1.4735
  113CHL1    C914585   1.914   4.094  16.313 -0.0430  0.4239  0.2794
  113CHL1    H914586   2.021   4.071  16.326  0.1047  1.9061  1.9583
  113CHL1   C1014587   1.858   4.112  16.458 -0.2020  0.4832  0.1666
  113CHL1   C1914588   1.704   4.110  16.456  0.1754 -0.4486 -0.1438
  113CHL1  H19A14589   1.662   4.010  16.431 -2.0206  0.0638  1.2646
  113CHL1  H19B14590   1.659   4.131  16.555  0.8393  1.4768 -0.2159
  113CHL1  H19C14591   1.661   4.188  16.390  1.1214  0.0357 -0.2030
  113CHL1    C114592   1.911   4.002  16.554 -0.2199  0.0101 -0.4372
  113CHL1   H1A14593   1.854   3.908  16.535 -1.1223  0.1511  1.4072
  113CHL1   H1B14594   2.021   3.994  16.539  0.0227  0.9261  0.7908
  113CHL1    C214595   1.879   4.032  16.701 -0.7884  0.3392  0.5544
  113CHL1   H2A14596   1.901   3.946  16.768  0.5683 -1.7842 -2.4268
  113CHL1   H2B14597   1.769   4.051  16.694 -0.5112  1.8100 -0.2228
  113CHL1   C2014598   1.924   4.026  15.762 -0.0730  0.5238 -0.2645
  113CHL1   H2014599   1.854   3.945  15.792 -1.4311  1.4046 -0.9598
  113CHL1   C2114600   2.052   3.969  15.700  0.0894  0.1907  0.4368
  113CHL1  H21A14601   2.021   3.913  15.609  1.3929  1.0896 -0.5932
  113CHL1  H21B14602   2.102   3.899  15.771  0.1195  0.5501  0.7701
  113CHL1  H21C14603   2.122   4.050  15.669 -0.6058  0.5822 -0.1301
  113CHL1   C2214604   1.856   4.116  15.657  0.1183  0.5727  0.1455
  113CHL1  H22A14605   1.773   4.174  15.704  1.0547  1.0569  1.2629
  113CHL1  H22B14606   1.930   4.185  15.611 -0.3940  0.6668 -0.5583
  113CHL1   C2314607   1.797   4.033  15.542 -0.2360 -0.0893  0.1120
  113CHL1  H23A14608   1.876   3.973  15.493  1.0456  1.5188  0.1232
  113CHL1  H23B14609   1.726   3.958  15.583  0.8311 -0.8481  0.6035
  113CHL1   C2414610   1.721   4.124  15.439 -0.1724 -0.3995 -0.6559
  113CHL1  H24A14611   1.649   4.188  15.495 -2.0352 -2.0543 -1.0505
  113CHL1  H24B14612   1.792   4.190  15.385 -0.6906  0.0941 -0.7420
  113CHL1   C2514613   1.647   4.045  15.320  0.3200 -0.3119  0.4448
  113CHL1   H2514614   1.579   3.961  15.347 -0.0734 -0.4274 -0.8589
  113CHL1   C2614615   1.551   4.144  15.257  0.0753 -0.0141  0.1905
  113CHL1  H26A14616   1.607   4.207  15.184 -1.1533 -0.2476 -0.9893
  113CHL1  H26B14617   1.484   4.079  15.197  0.0250  0.9938 -0.8973
  113CHL1  H26C14618   1.496   4.197  15.338 -0.9335  1.6737 -1.5046
  113CHL1   C2714619   1.738   3.992  15.204  0.5895  0.2935 -0.2144
  113CHL1  H27A14620   1.787   4.087  15.172 -0.2633  0.8058 -0.0507
  113CHL1  H27B14621   1.808   3.912  15.234  0.6254  0.7090  0.8603
  113CHL1  H27C14622   1.679   3.960  15.116 -0.3725 -0.9596  0.8496
  114CHL1    C314623   5.909   6.305  16.659 -0.1552 -0.1545  0.0652
  114CHL1    H314624   5.808   6.342  16.630  2.4742  4.9972 -3.9112
  114CHL1    O314625   5.912   6.301  16.803 -0.0476 -0.5456  0.2201
  114CHL1   H3'14626   6.000   6.334  16.825  0.3452  1.7526 -3.7472
  114CHL1    C414627   5.945   6.160  16.602 -0.0105 -0.6559  0.4486
  114CHL1   H4A14628   6.044   6.126  16.642  0.2837  1.0987  1.2845
  114CHL1   H4B14629   5.872   6.083  16.635 -2.8190  0.7180 -2.1652
  114CHL1    C514630   5.950   6.166  16.450 -0.0431 -0.2445 -0.3216
  114CHL1    C614631   5.876   6.091  16.367 -0.0278 -0.2839 -1.3914
  114CHL1    H614632   5.818   6.006  16.406 -0.1870  0.7562  0.7689
  114CHL1    C714633   5.892   6.083  16.223 -0.1072  0.2519 -0.0655
  114CHL1   H7A14634   5.928   5.982  16.193  1.3307  1.0439 -1.1701
  114CHL1   H7B14635   5.795   6.097  16.170  0.2086  0.8540 -0.5021
  114CHL1    C814636   6.003   6.177  16.164 -0.3867  0.1775  0.2696
  114CHL1    H814637   6.097   6.119  16.173  1.1376  2.0079 -2.3934
  114CHL1   C1414638   5.968   6.208  16.025  0.4294 -0.3809 -0.3625
  114CHL1   H1414639   5.873   6.265  16.029 -0.1886 -1.4383  0.6891
  114CHL1   C1514640   5.934   6.088  15.932 -0.9288 -0.1157  0.0697
  114CHL1  H15A14641   6.012   6.008  15.929 -1.3242 -0.4936 -1.7002
  114CHL1  H15B14642   5.836   6.042  15.957 -0.5704 -1.2903 -0.5783
  114CHL1   C1614643   5.944   6.155  15.790  0.3211 -0.2662 -0.1811
  114CHL1  H16A14644   6.004   6.087  15.726 -0.3033  1.3288 -2.5843
  114CHL1  H16B14645   5.841   6.167  15.748 -0.4439  0.4738  1.7908
  114CHL1   C1714646   6.003   6.300  15.804  0.4246  0.4620  0.1794
  114CHL1   H1714647   5.919   6.369  15.825  1.0897  1.3071  0.1002
  114CHL1   C1314648   6.069   6.294  15.950 -0.2046  0.4772 -0.0364
  114CHL1   C1814649   6.208   6.236  15.936 -0.6457 -0.4617 -0.6638
  114CHL1  H18A14650   6.214   6.135  15.891  0.1702 -0.6949 -0.0546
  114CHL1  H18B14651   6.272   6.311  15.884 -1.8031 -0.5611 -2.3042
  114CHL1  H18C14652   6.259   6.225  16.034 -0.0171 -3.7690 -1.2426
  114CHL1   C1214653   6.074   6.432  16.024 -0.3618 -0.0933 -0.8351
  114CHL1  H12A14654   6.153   6.493  15.976  0.2228 -0.6184 -0.5480
  114CHL1  H12B14655   5.979   6.489  16.017 -0.4186 -0.1826 -0.7934
  114CHL1   C1114656   6.111   6.411  16.177 -0.4478 -0.3138 -0.0642
  114CHL1  H11A14657   6.214   6.371  16.185 -0.4897 -0.4887 -0.3644
  114CHL1  H11B14658   6.094   6.501  16.239  1.8937  0.0023  0.1782
  114CHL1    C914659   6.013   6.305  16.243 -0.5975 -0.6707 -0.3975
  114CHL1    H914660   5.914   6.354  16.235 -0.2868  0.0807  0.1932
  114CHL1   C1014661   6.038   6.286  16.391  0.9509  0.3535 -0.4450
  114CHL1   C1914662   6.185   6.244  16.411 -0.5666  0.3155 -0.0626
  114CHL1  H19A14663   6.207   6.222  16.518 -1.5103 -1.7886 -0.2433
  114CHL1  H19B14664   6.211   6.148  16.361 -0.4576  0.4797 -0.3209
  114CHL1  H19C14665   6.258   6.319  16.375  1.3565 -1.0480  0.8429
  114CHL1    C114666   6.005   6.419  16.466  0.4607 -0.1343  0.2521
  114CHL1   H1A14667   6.091   6.486  16.444 -0.0359  0.0464 -1.2628
  114CHL1   H1B14668   5.913   6.473  16.436  0.3754 -0.0357  0.6787
  114CHL1    C214669   6.005   6.410  16.618  0.3413  0.2125 -0.2971
  114CHL1   H2A14670   5.974   6.502  16.673  0.8142 -0.1752  0.6442
  114CHL1   H2B14671   6.104   6.372  16.651  1.1081 -0.6526 -3.2370
  114CHL1   C2014672   6.084   6.349  15.683 -0.0450  0.4031 -0.1515
  114CHL1   H2014673   6.169   6.280  15.664  0.6830  0.7705  1.5934
  114CHL1   C2114674   6.129   6.495  15.718  0.1125  0.6745  0.4906
  114CHL1  H21A14675   6.041   6.546  15.763  1.3215  1.4689  2.0505
  114CHL1  H21B14676   6.162   6.549  15.628 -0.0133  0.2176  0.1631
  114CHL1  H21C14677   6.213   6.499  15.791  0.4838 -2.9318  0.4706
  114CHL1   C2214678   5.995   6.359  15.555 -0.0026  0.9139  0.7024
  114CHL1  H22A14679   5.946   6.260  15.548  0.8299  0.4585  1.1816
  114CHL1  H22B14680   5.910   6.428  15.568 -2.2113 -1.3283 -0.9004
  114CHL1   C2314681   6.069   6.378  15.424  0.0369  0.4986  0.4693
  114CHL1  H23A14682   6.117   6.477  15.442 -0.4986  0.7872  0.3205
  114CHL1  H23B14683   6.144   6.296  15.417 -0.0333  0.4534  0.2360
  114CHL1   C2414684   5.969   6.383  15.309 -0.0393  0.5723  0.0447
  114CHL1  H24A14685   5.927   6.282  15.290 -2.0517  1.5026 -0.7151
  114CHL1  H24B14686   5.884   6.450  15.334  2.1978  3.9407 -0.6861
  114CHL1   C2514687   6.019   6.427  15.173 -0.4390 -0.1448  0.0705
  114CHL1   H2514688   5.942   6.410  15.095 -0.6385 -0.2726  0.2948
  114CHL1   C2614689   6.032   6.579  15.175 -0.4861  0.1489  0.2200
  114CHL1  H26A14690   6.082   6.619  15.084 -1.6503  0.8341 -0.1327
  114CHL1  H26B14691   5.938   6.637  15.174 -0.4035  0.2877  0.2959
  114CHL1  H26C14692   6.086   6.611  15.267  0.4714 -1.5343  0.2888
  114CHL1   C2714693   6.145   6.353  15.132  0.1395  0.1720 -0.6705
  114CHL1  H27A14694   6.168   6.357  15.024 -0.1072 -1.5689 -0.8198
  114CHL1  H27B14695   6.228   6.382  15.200 -1.8311 -1.0892  2.5461
  114CHL1  H27C14696   6.120   6.250  15.165 -0.3579 -0.1977 -2.1385
  115CHL1    C314697   2.949   1.108  16.717 -0.2522  0.4781 -0.6252
  115CHL1    H314698   3.038   1.043  16.731 -0.6050  0.2485  0.6506
  115CHL1    O314699   2.896   1.122  16.847 -0.1013 -0.2111  0.3109
  115CHL1   H3'14700   2.819   1.174  16.825 -0.5974 -1.1143 -0.1577
  115CHL1    C414701   2.965   1.246  16.650  0.4860  0.2948 -0.2489
  115CHL1   H4A14702   2.864   1.287  16.632 -1.2570 -3.2831  0.5621
  115CHL1   H4B14703   3.022   1.311  16.720  1.8135  0.4805 -1.4519
  115CHL1    C514704   3.036   1.218  16.522  0.3490 -0.1226  0.2519
  115CHL1    C614705   3.155   1.278  16.499  1.1815 -0.2302 -0.2339
  115CHL1    H614706   3.192   1.359  16.565  0.2806 -0.3878  0.4823
  115CHL1    C714707   3.225   1.270  16.371 -0.2039 -0.7211  0.7967
  115CHL1   H7A14708   3.259   1.372  16.341 -1.5122 -0.1595  1.1392
  115CHL1   H7B14709   3.315   1.211  16.399 -0.7962 -1.0537  2.0537
  115CHL1    C814710   3.149   1.195  16.258  0.0306  0.0221 -0.1770
  115CHL1    H814711   3.078   1.263  16.205  0.0560 -0.5052 -0.9077
  115CHL1   C1414712   3.248   1.136  16.156  0.1358 -0.7836 -0.9812
  115CHL1   H1414713   3.312   1.071  16.219  0.1485  1.1043  1.1067
  115CHL1   C1514714   3.349   1.234  16.089  0.1006  0.5786 -0.3309
  115CHL1  H15A14715   3.295   1.325  16.054  1.9159  2.6818  1.9441
  115CHL1  H15B14716   3.434   1.268  16.152  0.3314 -0.2370 -0.1906
  115CHL1   C1614717   3.409   1.147  15.983  0.1049  0.1686 -0.9303
  115CHL1  H16A14718   3.428   1.199  15.886 -0.4844 -0.7552 -1.5622
  115CHL1  H16B14719   3.511   1.130  16.023 -0.4940  1.7904  1.5231
  115CHL1   C1714720   3.324   1.015  15.974  0.3901 -0.4975  0.6440
  115CHL1   H1714721   3.361   0.941  16.047 -2.7289 -2.3790  0.4791
  115CHL1   C1314722   3.191   1.053  16.040 -0.3697 -0.1271 -0.1636
  115CHL1   C1814723   3.101   1.129  15.941 -0.2412 -0.9147 -0.3099
  115CHL1  H18A14724   3.143   1.222  15.896 -0.1725 -0.9584 -0.3352
  115CHL1  H18B14725   3.076   1.060  15.858  1.7781 -0.6199 -1.2193
  115CHL1  H18C14726   3.001   1.147  15.987  0.1107  1.9656 -0.5043
  115CHL1   C1214727   3.107   0.936  16.100 -0.5585  0.2744  0.0672
  115CHL1  H12A14728   3.059   0.874  16.021  1.1696 -3.5472  1.7209
  115CHL1  H12B14729   3.181   0.863  16.142  1.6225  1.2887 -1.8054
  115CHL1   C1114730   3.008   0.986  16.205 -0.2224  0.2156  0.4427
  115CHL1  H11A14731   2.929   1.039  16.147 -0.2271 -0.7729 -0.4712
  115CHL1  H11B14732   2.957   0.904  16.258  0.8065  0.5210  1.9836
  115CHL1    C914733   3.065   1.078  16.313  0.1696 -0.2244 -0.2262
  115CHL1    H914734   3.139   1.012  16.364  0.6947  0.5110 -0.0248
  115CHL1   C1014735   2.964   1.117  16.427  0.7599 -0.4657 -0.0371
  115CHL1   C1914736   2.836   1.188  16.363 -0.6287  0.8184 -0.2788
  115CHL1  H19A14737   2.862   1.272  16.294 -1.5969 -0.3650 -2.1917
  115CHL1  H19B14738   2.776   1.120  16.299 -1.5722  0.9430  0.4517
  115CHL1  H19C14739   2.764   1.225  16.439 -1.9616 -0.2948 -0.9613
  115CHL1    C114740   2.919   0.992  16.503 -0.0894  0.4110  0.2291
  115CHL1   H1A14741   2.845   0.936  16.442  0.1005  1.5301 -1.0917
  115CHL1   H1B14742   3.005   0.925  16.522 -1.5820 -2.0104 -1.0345
  115CHL1    C214743   2.856   1.019  16.635 -0.3787 -0.0096 -0.0161
  115CHL1   H2A14744   2.826   0.923  16.682 -1.0905  0.6123  0.8324
  115CHL1   H2B14745   2.761   1.076  16.623 -0.5025 -0.0717  0.6172
  115CHL1   C2014746   3.329   0.946  15.831  0.0088 -0.4008 -0.0719
  115CHL1   H2014747   3.288   1.021  15.760  0.1230  0.2019  0.4926
  115CHL1   C2114748   3.246   0.814  15.814 -0.3722  0.5715  0.0754
  115CHL1  H21A14749   3.271   0.737  15.890 -0.5284  0.9926  0.5571
  115CHL1  H21B14750   3.250   0.771  15.712  0.6936  0.9533 -0.0596
  115CHL1  H21C14751   3.141   0.834  15.845 -1.3229 -1.4081 -1.6193
  115CHL1   C2214752   3.479   0.925  15.778 -0.0756  0.3775  0.1513
  115CHL1  H22A14753   3.469   0.898  15.670  0.9108 -1.4822  0.4782
  115CHL1  H22B14754   3.535   1.019  15.795 -3.3623  2.4259  0.6132
  115CHL1   C2314755   3.543   0.808  15.849 -0.0186 -0.7094  0.2060
  115CHL1  H23A14756   3.520   0.814  15.957  0.8819  1.7860  0.3306
  115CHL1  H23B14757   3.510   0.710  15.808  1.8303 -0.4645 -2.0851
  115CHL1   C2414758   3.699   0.824  15.840 -0.2451 -0.1429 -0.1026
  115CHL1  H24A14759   3.722   0.837  15.732  0.6756 -0.3941  0.0478
  115CHL1  H24B14760   3.728   0.925  15.877 -1.4486  0.8756 -1.8088
  115CHL1   C2514761   3.792   0.711  15.893  0.3733  0.4132  0.0007
  115CHL1   H2514762   3.747   0.618  15.851 -2.6109 -0.2744  4.1074
  115CHL1   C2614763   3.935   0.737  15.847 -0.1774 -0.1227 -0.8797
  115CHL1  H26A14764   3.972   0.834  15.886  2.8356 -1.3314 -0.4921
  115CHL1  H26B14765   3.992   0.653  15.893 -0.1937 -0.9024 -2.2256
  115CHL1  H26C14766   3.931   0.744  15.736 -0.1640 -0.5501 -0.9096
  115CHL1   C2714767   3.797   0.697  16.044 -0.6861  0.1964  0.0439
  115CHL1  H27A14768   3.847   0.785  16.089 -2.0503  0.4764  1.0860
  115CHL1  H27B14769   3.689   0.708  16.070 -1.0251 -0.6192 -0.9502
  115CHL1  H27C14770   3.843   0.602  16.079  2.1442  1.0159 -1.2109
  116CHL1    C314771   3.276   0.739  16.645  0.3426 -1.0254 -0.1013
  116CHL1    H314772   3.167   0.722  16.632  0.2745 -1.6129  1.1279
  116CHL1    O314773   3.306   0.796  16.774  0.4376  0.1589 -0.1756
  116CHL1   H3'14774   3.393   0.837  16.771 -0.4711  2.7018  2.6164
  116CHL1    C414775   3.341   0.596  16.646  0.1085  0.3698  0.7786
  116CHL1   H4A14776   3.441   0.606  16.694 -0.5877 -1.5169  2.8033
  116CHL1   H4B14777   3.289   0.534  16.722  2.2926 -0.5445  1.6021
  116CHL1    C514778   3.344   0.524  16.516  0.4550  0.0366 -0.2721
  116CHL1    C614779   3.303   0.396  16.506 -0.0898  0.2045 -0.0310
  116CHL1    H614780   3.273   0.343  16.597 -2.4850  2.9565  0.9262
  116CHL1    C714781   3.292   0.309  16.381 -0.2428 -0.3195  0.2555
  116CHL1   H7A14782   3.343   0.213  16.404  0.0799 -0.5329 -1.2494
  116CHL1   H7B14783   3.183   0.304  16.362 -0.0438 -1.1936 -0.7465
  116CHL1    C814784   3.373   0.382  16.265 -0.1942  0.9487  0.5658
  116CHL1    H814785   3.480   0.358  16.282 -0.1320  1.8636  1.5821
  116CHL1   C1414786   3.334   0.309  16.140 -0.6571 -0.0869  0.1200
  116CHL1   H1414787   3.225   0.320  16.125 -0.3831  0.7245 -1.4945
  116CHL1   C1514788   3.364   0.156  16.130 -0.1880 -0.6077 -1.0506
  116CHL1  H15A14789   3.466   0.122  16.160 -0.7488 -0.7471  0.8804
  116CHL1  H15B14790   3.294   0.100  16.197 -0.0853 -0.2689 -0.6534
  116CHL1   C1614791   3.342   0.125  15.978  0.3766  0.1321 -0.1889
  116CHL1  H16A14792   3.414   0.048  15.943  0.7865  0.0647  0.7829
  116CHL1  H16B14793   3.242   0.076  15.974  0.8109 -0.9044  1.0842
  116CHL1   C1714794   3.332   0.269  15.904 -0.6201 -0.4524 -0.3488
  116CHL1   H1714795   3.224   0.290  15.889 -0.5825  0.3041  0.3395
  116CHL1   C1314796   3.390   0.370  16.013 -0.3585 -0.0595  0.7304
  116CHL1   C1814797   3.545   0.363  16.007 -0.4950  0.3834  0.2856
  116CHL1  H18A14798   3.584   0.413  15.916  0.5306 -0.4399  0.2617
  116CHL1  H18B14799   3.590   0.417  16.093  3.1321 -3.1434  0.9197
  116CHL1  H18C14800   3.579   0.257  16.007  0.5077  0.6614 -1.4953
  116CHL1   C1214801   3.342   0.507  16.003 -0.2349  0.0544  0.2608
  116CHL1  H12A14802   3.377   0.568  15.916  1.4561  0.0666  0.9044
  116CHL1  H12B14803   3.234   0.485  15.992 -0.0582  0.1352 -2.1890
  116CHL1   C1114804   3.375   0.597  16.127 -0.1931 -0.0223 -0.6027
  116CHL1  H11A14805   3.481   0.629  16.130 -0.7459  1.8791  1.9553
  116CHL1  H11B14806   3.315   0.689  16.114 -0.4710 -0.4158 -2.4102
  116CHL1    C914807   3.340   0.534  16.261 -0.1023 -0.0860 -0.5589
  116CHL1    H914808   3.231   0.543  16.241 -0.3355  0.0276  0.7106
  116CHL1   C1014809   3.371   0.609  16.395  0.2979  0.3630 -0.2855
  116CHL1   C1914810   3.523   0.637  16.393 -0.1952 -0.2012  0.7737
  116CHL1  H19A14811   3.539   0.728  16.331 -1.5703 -1.1382 -1.0626
  116CHL1  H19B14812   3.548   0.667  16.497 -2.3146  2.3077  0.6667
  116CHL1  H19C14813   3.589   0.556  16.357  1.4148  1.1072  0.6843
  116CHL1    C114814   3.298   0.749  16.400 -0.4587  0.3098  0.7172
  116CHL1   H1A14815   3.341   0.809  16.317 -0.3861  0.3860  0.8099
  116CHL1   H1B14816   3.194   0.730  16.369 -0.1625  0.8224 -0.6672
  116CHL1    C214817   3.326   0.824  16.532 -0.0410  0.8894 -0.5036
  116CHL1   H2A14818   3.270   0.919  16.529  0.0756  1.1277  2.5418
  116CHL1   H2B14819   3.432   0.856  16.546  0.9270 -1.3741 -1.9855
  116CHL1   C2014820   3.395   0.274  15.761 -0.0119 -0.6860  0.1964
  116CHL1   H2014821   3.501   0.240  15.759  0.0327 -0.5839  0.6468
  116CHL1   C2114822   3.407   0.413  15.707  0.2417  0.7745  0.3747
  116CHL1  H21A14823   3.436   0.409  15.600 -1.2417 -0.1790 -0.0224
  116CHL1  H21B14824   3.485   0.482  15.747  1.3222  1.1294 -2.1005
  116CHL1  H21C14825   3.307   0.461  15.711  0.7380  1.7519  1.7471
  116CHL1   C2214826   3.316   0.180  15.668 -0.0341  0.2804  0.2422
  116CHL1  H22A14827   3.293   0.080  15.710 -0.2620 -0.2709 -1.1537
  116CHL1  H22B14828   3.220   0.228  15.639 -1.4006 -2.7390 -0.6242
  116CHL1   C2314829   3.397   0.146  15.541  0.0055 -0.0688 -1.1089
  116CHL1  H23A14830   3.413   0.235  15.477 -3.6191  1.2055 -0.4824
  116CHL1  H23B14831   3.495   0.112  15.582 -0.0633  0.8266 -0.1700
  116CHL1   C2414832   3.320   0.043  15.458  0.1350 -0.6643  0.5013
  116CHL1  H24A14833   3.309  -0.053  15.513 -1.5745 -0.7282  0.1172
  116CHL1  H24B14834   3.218   0.085  15.446  0.0289 -0.5057  1.8499
  116CHL1   C2514835   3.387   0.025  15.320  0.0993 -0.5149 -0.5807
  116CHL1   H2514836   3.420   0.125  15.286  0.8064 -1.1655 -1.8861
  116CHL1   C2614837   3.514  -0.055  15.346 -0.4887  0.1956  0.6686
  116CHL1  H26A14838   3.487  -0.158  15.377  0.4279  0.6212  3.1752
  116CHL1  H26B14839   3.588  -0.063  15.263  0.3878 -1.8909  1.5610
  116CHL1  H26C14840   3.572  -0.019  15.435  1.4116  1.0685 -0.8470
  116CHL1   C2714841   3.291  -0.043  15.225  0.3225 -0.3677  1.0931
  116CHL1  H27A14842   3.196   0.014  15.227  0.9529  0.7058  2.6714
  116CHL1  H27B14843   3.336  -0.067  15.127 -0.1141  0.0431  0.7897
  116CHL1  H27C14844   3.265  -0.136  15.281  1.1652 -0.9894  0.4722
  117CHL1    C314845   6.387   6.644  16.781  0.8884  0.0596 -0.5032
  117CHL1    H314846   6.490   6.607  16.801  0.7372 -0.8063 -1.2774
  117CHL1    O314847   6.319   6.629  16.903  0.0035 -0.6722 -0.1995
  117CHL1   H3'14848   6.306   6.722  16.925  1.0472 -0.8040  1.0185
  117CHL1    C414849   6.388   6.794  16.737  0.2186 -0.3596  0.2084
  117CHL1   H4A14850   6.283   6.821  16.757  0.4364 -0.2439  1.2541
  117CHL1   H4B14851   6.448   6.860  16.803 -0.9674  1.2186 -0.2295
  117CHL1    C514852   6.435   6.820  16.591  0.2096  0.8459 -0.1212
  117CHL1    C614853   6.538   6.897  16.554  0.0141  0.0930 -0.5923
  117CHL1    H614854   6.600   6.958  16.622  0.3220 -0.5662 -0.2691
  117CHL1    C714855   6.583   6.923  16.415 -0.5850 -0.3728 -0.7980
  117CHL1   H7A14856   6.612   7.029  16.403 -1.8830  0.2078  0.6865
  117CHL1   H7B14857   6.671   6.860  16.391  0.3972 -0.1620  1.8835
  117CHL1    C814858   6.472   6.884  16.315  0.7165 -0.1583 -0.2502
  117CHL1    H814859   6.389   6.957  16.330 -0.1528 -0.5747 -2.5707
  117CHL1   C1414860   6.513   6.898  16.173  0.2289 -0.4430  0.5657
  117CHL1   H1414861   6.602   6.832  16.160  1.1600  0.8636  0.1009
  117CHL1   C1514862   6.579   7.033  16.129  0.2731 -0.4234 -0.2230
  117CHL1  H15A14863   6.516   7.118  16.161 -0.0276  0.1686 -2.2387
  117CHL1  H15B14864   6.681   7.035  16.171  0.2116  0.1211 -0.1035
  117CHL1   C1614865   6.568   7.032  15.979 -0.5024 -0.1174 -0.1460
  117CHL1  H16A14866   6.508   7.117  15.940  1.0777  0.4634 -1.3890
  117CHL1  H16B14867   6.667   7.035  15.929 -0.9928 -2.1792 -1.3189
  117CHL1   C1714868   6.500   6.898  15.941  0.0732 -0.4197  0.1926
  117CHL1   H1714869   6.580   6.820  15.937  0.5020  0.0663 -1.7330
  117CHL1   C1314870   6.418   6.855  16.061  0.4390  0.1316 -0.1096
  117CHL1   C1814871   6.295   6.951  16.075  0.7156  0.2779 -0.8166
  117CHL1  H18A14872   6.238   6.958  16.170 -1.5767  3.5149 -2.2397
  117CHL1  H18B14873   6.333   7.053  16.056  0.7386  0.0901 -1.8834
  117CHL1  H18C14874   6.227   6.929  15.989  0.8058 -0.4639 -0.7013
  117CHL1   C1214875   6.391   6.709  16.097  0.5570  0.2715  0.5374
  117CHL1  H12A14876   6.317   6.664  16.027  0.0830  0.0364  1.1753
  117CHL1  H12B14877   6.487   6.654  16.092  1.4117  1.6682  1.0225
  117CHL1   C1114878   6.336   6.697  16.231 -0.4515  0.2015 -0.3993
  117CHL1  H11A14879   6.241   6.754  16.221 -1.0950 -0.3234  2.1800
  117CHL1  H11B14880   6.308   6.590  16.239  0.2435  0.0282 -0.2291
  117CHL1    C914881   6.428   6.745  16.346  1.1601 -0.0292  0.3999
  117CHL1    H914882   6.518   6.679  16.346  1.6674  0.5958 -1.4112
  117CHL1   C1014883   6.364   6.730  16.489  0.0419  0.5889 -0.2505
  117CHL1   C1914884   6.217   6.781  16.476  0.0750 -0.3356 -0.1510
  117CHL1  H19A14885   6.174   6.760  16.576 -0.9402 -1.8564 -0.8658
  117CHL1  H19B14886   6.206   6.889  16.452  0.5774 -0.2788 -0.1248
  117CHL1  H19C14887   6.155   6.716  16.410  0.1196 -1.3501  0.7743
  117CHL1    C114888   6.368   6.587  16.532 -0.0963  0.9013  0.9682
  117CHL1   H1A14889   6.310   6.526  16.460  0.7266  0.2648  0.8319
  117CHL1   H1B14890   6.472   6.549  16.527  0.2879  1.8440  1.4828
  117CHL1    C214891   6.330   6.554  16.679 -0.2486 -0.3210  0.4519
  117CHL1   H2A14892   6.352   6.450  16.710  0.6225  0.1912  1.6115
  117CHL1   H2B14893   6.219   6.565  16.681 -0.3218 -1.0913  1.5491
  117CHL1   C2014894   6.428   6.891  15.804  0.2422  0.0203 -0.1510
  117CHL1   H2014895   6.343   6.963  15.807  0.6548  0.4819  0.8930
  117CHL1   C2114896   6.387   6.751  15.767  0.3836  0.4586 -0.3595
  117CHL1  H21A14897   6.463   6.672  15.782 -1.1759 -0.7277  1.8135
  117CHL1  H21B14898   6.358   6.757  15.660 -0.6793  1.9549 -0.0257
  117CHL1  H21C14899   6.286   6.721  15.802 -0.3882  2.6221 -0.5656
  117CHL1   C2214900   6.509   6.959  15.683  0.1952 -0.1336 -0.3473
  117CHL1  H22A14901   6.436   6.960  15.599 -0.1473  0.2126 -0.0484
  117CHL1  H22B14902   6.531   7.062  15.721 -1.7565 -0.5799  2.2594
  117CHL1   C2314903   6.639   6.887  15.643  0.4400 -0.2411  0.0467
  117CHL1  H23A14904   6.697   6.865  15.736 -0.1284 -0.4335  0.3579
  117CHL1  H23B14905   6.625   6.788  15.596  2.5530  0.6216 -2.6762
  117CHL1   C2414906   6.715   6.987  15.552 -0.0102 -0.0306 -0.0241
  117CHL1  H24A14907   6.654   7.017  15.464 -0.3680 -0.0333  0.2214
  117CHL1  H24B14908   6.734   7.077  15.613  0.3293 -0.0233 -0.1391
  117CHL1   C2514909   6.857   6.946  15.500  0.5754 -0.7919  0.0168
  117CHL1   H2514910   6.924   6.904  15.578  0.6210  0.5700  0.7444
  117CHL1   C2614911   6.842   6.836  15.395 -0.0149  0.4159 -0.1832
  117CHL1  H26A14912   6.942   6.826  15.348 -0.0868  0.0505 -0.2651
  117CHL1  H26B14913   6.800   6.742  15.436 -0.9748  1.2411  0.8042
  117CHL1  H26C14914   6.777   6.878  15.315 -0.7538  1.8427  1.1054
  117CHL1   C2714915   6.939   7.061  15.432 -0.5386 -0.3653 -0.2392
  117CHL1  H27A14916   6.878   7.107  15.351 -0.7987 -1.3818 -0.6296
  117CHL1  H27B14917   6.978   7.130  15.510  3.7518 -0.4493 -1.9813
  117CHL1  H27C14918   7.029   7.031  15.374  0.2475 -0.2342  0.8882
  118CHL1    C314919   1.115   1.773  16.749 -0.3494  0.1334 -0.4861
  118CHL1    H314920   1.219   1.810  16.765  0.6328 -1.9180 -1.7192
  118CHL1    O314921   1.035   1.817  16.852  0.3070  0.1034  0.3876
  118CHL1   H3'14922   0.955   1.764  16.847  0.6474 -0.6528  2.0610
  118CHL1    C414923   1.062   1.833  16.610 -0.4700  0.4876 -0.0840
  118CHL1   H4A14924   0.952   1.829  16.602 -0.4347 -1.9138 -0.1301
  118CHL1   H4B14925   1.077   1.943  16.606  1.0763  0.4099  1.7964
  118CHL1    C514926   1.133   1.771  16.490  0.1737  0.8722 -0.4586
  118CHL1    C614927   1.191   1.852  16.397 -0.3153  0.3321  0.2395
  118CHL1    H614928   1.190   1.958  16.425 -0.5827 -0.0117  1.6567
  118CHL1    C714929   1.222   1.801  16.263 -0.1753  0.5534  0.0189
  118CHL1   H7A14930   1.186   1.873  16.186  0.2054 -0.4881 -1.1602
  118CHL1   H7B14931   1.333   1.800  16.254  0.4612 -0.0628  5.1269
  118CHL1    C814932   1.186   1.658  16.232 -0.0395 -0.1466  0.8684
  118CHL1    H814933   1.087   1.646  16.183  1.4106 -3.2416 -1.7183
  118CHL1   C1414934   1.276   1.606  16.122 -0.5035  0.2258 -0.0809
  118CHL1   H1414935   1.377   1.606  16.167 -1.3566  2.4197  2.0972
  118CHL1   C1514936   1.281   1.691  15.993  0.2574  0.1167  0.4618
  118CHL1  H15A14937   1.183   1.721  15.950  0.0235  0.5622  1.2781
  118CHL1  H15B14938   1.348   1.780  16.003  0.8304 -0.1100 -1.0821
  118CHL1   C1614939   1.329   1.588  15.884 -0.5841 -0.2479  0.7818
  118CHL1  H16A14940   1.249   1.578  15.808  1.5381  0.2000 -1.6429
  118CHL1  H16B14941   1.431   1.603  15.841 -0.4661 -0.5798  0.9423
  118CHL1   C1714942   1.340   1.449  15.952 -0.4244 -0.5584  0.6519
  118CHL1   H1714943   1.441   1.435  15.996 -0.3691 -1.9754  0.1046
  118CHL1   C1314944   1.252   1.461  16.084  0.0599 -0.0768 -0.6150
  118CHL1   C1814945   1.108   1.436  16.034  0.0193  0.6139 -0.4320
  118CHL1  H18A14946   1.084   1.494  15.943 -3.0780  0.9597  0.4769
  118CHL1  H18B14947   1.094   1.327  16.015 -1.0854  0.2616  2.0239
  118CHL1  H18C14948   1.027   1.467  16.103  0.6875 -0.5943  0.9765
  118CHL1   C1214949   1.277   1.376  16.210 -0.2725  0.3330 -0.0910
  118CHL1  H12A14950   1.249   1.271  16.186 -0.8891  0.2085  1.1243
  118CHL1  H12B14951   1.384   1.375  16.238 -0.3030  0.8472  0.0494
  118CHL1   C1114952   1.195   1.423  16.325 -0.4192  1.1702  0.4998
  118CHL1  H11A14953   1.091   1.392  16.301  0.2149 -0.3046 -0.5034
  118CHL1  H11B14954   1.216   1.361  16.415  0.0001 -1.0016 -1.0199
  118CHL1    C914955   1.208   1.572  16.358 -0.1391  0.2698 -0.1445
  118CHL1    H914956   1.313   1.591  16.387 -0.7615  4.1212  0.1049
  118CHL1   C1014957   1.116   1.621  16.484  0.2915  0.2575  0.4500
  118CHL1   C1914958   0.969   1.590  16.457 -0.3632 -0.1312  0.4250
  118CHL1  H19A14959   0.943   1.643  16.362  1.8357 -1.3456 -0.9295
  118CHL1  H19B14960   0.955   1.482  16.433  1.6753 -0.3057 -0.1497
  118CHL1  H19C14961   0.890   1.614  16.531 -0.1523 -0.0918  0.6382
  118CHL1    C114962   1.179   1.560  16.616  0.5506 -0.2550  0.3025
  118CHL1   H1A14963   1.173   1.449  16.608 -0.1432 -0.4121  2.3149
  118CHL1   H1B14964   1.288   1.581  16.625  0.2765  1.6805 -0.5754
  118CHL1    C214965   1.108   1.612  16.744  0.0562 -0.6769 -0.3810
  118CHL1   H2A14966   1.152   1.562  16.832 -0.3264  1.1283  0.8960
  118CHL1   H2B14967   1.003   1.578  16.732  0.4367 -1.4845 -1.6344
  118CHL1   C2014968   1.317   1.338  15.853  0.0098 -0.1604  0.3061
  118CHL1   H2014969   1.217   1.339  15.804  0.5758 -2.7091 -1.0804
  118CHL1   C2114970   1.337   1.205  15.914  0.4956  0.1358 -0.1794
  118CHL1  H21A14971   1.264   1.187  15.996  0.6067 -3.0981 -0.6671
  118CHL1  H21B14972   1.437   1.204  15.961  0.5176  0.3237 -0.2234
  118CHL1  H21C14973   1.321   1.117  15.848 -2.2790  1.0809 -0.9274
  118CHL1   C2214974   1.422   1.339  15.736  0.1187  0.1374  0.0177
  118CHL1  H22A14975   1.407   1.435  15.682  1.0539  0.8488  0.9776
  118CHL1  H22B14976   1.526   1.341  15.776  0.4638  1.3333 -0.8564
  118CHL1   C2314977   1.425   1.221  15.634 -0.6251 -0.5166  0.6163
  118CHL1  H23A14978   1.424   1.124  15.689  1.2760 -0.3034  1.0925
  118CHL1  H23B14979   1.335   1.222  15.569 -0.9195 -1.4746  0.9977
  118CHL1   C2414980   1.555   1.216  15.555  0.3254  0.2793  0.2533
  118CHL1  H24A14981   1.589   1.311  15.507  4.9056 -0.5552  1.3976
  118CHL1  H24B14982   1.635   1.189  15.627 -1.2656 -1.4371  1.4612
  118CHL1   C2514983   1.559   1.114  15.434  0.4115  0.2087  0.1447
  118CHL1   H2514984   1.460   1.110  15.383  0.4462  0.8913  0.0181
  118CHL1   C2614985   1.668   1.156  15.340  0.4145 -0.2868  0.3536
  118CHL1  H26A14986   1.663   1.086  15.254 -3.9331  2.0544 -1.6262
  118CHL1  H26B14987   1.649   1.252  15.288 -0.3590 -0.5257  0.1831
  118CHL1  H26C14988   1.768   1.162  15.388 -0.8003  1.6671  2.9349
  118CHL1   C2714989   1.583   0.965  15.486  0.4645  0.1183 -0.2416
  118CHL1  H27A14990   1.572   0.890  15.405  2.4525  2.0295 -2.4520
  118CHL1  H27B14991   1.688   0.959  15.523  0.6303 -0.3256 -0.7677
  118CHL1  H27C14992   1.516   0.944  15.572  0.7965  0.5739  0.1346
  119CHL1    C314993   2.910   0.519  16.766 -0.1962  0.4437  0.7220
  119CHL1    H314994   2.983   0.602  16.750 -0.7340  0.6044 -1.1978
  119CHL1    O314995   2.891   0.489  16.904  0.6313  0.3134 -0.0094
  119CHL1   H3'14996   2.970   0.443  16.934 -0.3009 -1.0159  0.4967
  119CHL1    C414997   2.769   0.547  16.701 -0.5941 -0.3725  0.0297
  119CHL1   H4A14998   2.705   0.463  16.733 -0.1910 -0.1631  1.4801
  119CHL1   H4B14999   2.739   0.641  16.752 -0.5498  0.3048 -1.1653
  119CHL1    C515000   2.763   0.562  16.551 -1.0904 -0.6231 -0.5282
  119CHL1    C615001   2.700   0.667  16.499 -0.3427  0.2805 -0.0190
  119CHL1    H615002   2.653   0.742  16.563 -0.1965  0.6488 -0.3402
  119CHL1    C715003   2.684   0.681  16.351  0.1156 -0.0982 -0.4040
  119CHL1   H7A15004   2.576   0.700  16.330 -0.7406 -0.8807  2.8427
  119CHL1   H7B15005   2.744   0.766  16.310 -0.4604 -1.2672 -4.0671
  119CHL1    C815006   2.724   0.554  16.268 -0.0879 -0.6837 -0.5546
  119CHL1    H815007   2.637   0.488  16.255 -0.6580 -0.1611  0.4689
  119CHL1   C1415008   2.775   0.591  16.128  0.1992  0.2061 -0.3515
  119CHL1   H1415009   2.870   0.646  16.148  0.2196 -0.1439  0.5425
  119CHL1   C1515010   2.689   0.683  16.037 -0.2684  0.0136  0.2313
  119CHL1  H15A15011   2.583   0.647  16.040  0.4287 -2.1097  1.6306
  119CHL1  H15B15012   2.688   0.785  16.080 -0.6628 -0.0394  0.3576
  119CHL1   C1615013   2.738   0.664  15.896 -0.1998 -0.7597 -0.0505
  119CHL1  H16A15014   2.655   0.626  15.832  1.6817 -3.1415 -1.2695
  119CHL1  H16B15015   2.780   0.758  15.856 -0.1421  0.1742  2.0946
  119CHL1   C1715016   2.843   0.549  15.903 -0.2446 -0.0300 -0.4620
  119CHL1   H1715017   2.947   0.588  15.907  0.1218 -0.8594 -1.4057
  119CHL1   C1315018   2.818   0.482  16.039 -0.4760  0.2739 -0.5097
  119CHL1   C1815019   2.705   0.376  16.020 -0.1498  0.2218 -0.2322
  119CHL1  H18A15020   2.607   0.425  16.005  0.3705  1.9819  1.6797
  119CHL1  H18B15021   2.731   0.308  15.936 -0.4512  0.5111 -0.5601
  119CHL1  H18C15022   2.698   0.319  16.115  1.9784 -1.5674 -1.0641
  119CHL1   C1215023   2.954   0.425  16.095  0.4748  0.6081 -0.2006
  119CHL1  H12A15024   2.976   0.337  16.031 -0.7270 -1.1378  1.6711
  119CHL1  H12B15025   3.025   0.510  16.085  0.2263  1.0351  1.4183
  119CHL1   C1115026   2.927   0.380  16.240  0.2931  0.1765 -0.0838
  119CHL1  H11A15027   2.869   0.286  16.252 -2.9171  2.3121  2.9996
  119CHL1  H11B15028   3.027   0.369  16.288  1.0575  2.3596 -1.0514
  119CHL1    C915029   2.852   0.487  16.328  0.2658 -0.2789  0.2642
  119CHL1    H915030   2.925   0.570  16.324  0.4344 -0.4640 -1.1319
  119CHL1   C1015031   2.835   0.449  16.479 -0.2868 -0.2192 -0.3414
  119CHL1   C1915032   2.735   0.324  16.479  0.2847  0.6719 -0.1461
  119CHL1  H19A15033   2.640   0.344  16.425 -0.0320 -0.1495  0.0925
  119CHL1  H19B15034   2.785   0.234  16.439  1.4187  0.6331  1.2794
  119CHL1  H19C15035   2.727   0.280  16.580 -1.4901 -2.9082 -1.6678
  119CHL1    C115036   2.974   0.416  16.549  0.3641 -0.7429 -0.5440
  119CHL1   H1A15037   3.009   0.327  16.493  1.0574  0.1409 -1.5680
  119CHL1   H1B15038   3.043   0.498  16.521  0.3081 -0.7976 -0.8447
  119CHL1    C215039   2.958   0.389  16.701  0.3499 -0.6759  0.8891
  119CHL1   H2A15040   3.061   0.361  16.733  0.9034  0.7090  0.3573
  119CHL1   H2B15041   2.891   0.303  16.722  1.0153 -1.0084  1.7188
  119CHL1   C2015042   2.836   0.468  15.773 -0.6931  0.3017 -0.6841
  119CHL1   H2015043   2.741   0.411  15.768 -0.3558 -0.3270 -0.0215
  119CHL1   C2115044   2.942   0.357  15.764  0.5833  0.2337  0.6664
  119CHL1  H21A15045   2.916   0.267  15.823 -0.8182 -0.4612 -0.9259
  119CHL1  H21B15046   3.042   0.397  15.789  1.6281 -1.8301 -0.0347
  119CHL1  H21C15047   2.962   0.331  15.657  1.0409  0.0879  0.7856
  119CHL1   C2215048   2.843   0.560  15.645  0.4296 -0.1054  0.2865
  119CHL1  H22A15049   2.818   0.491  15.562  1.2570  0.7506 -0.7065
  119CHL1  H22B15050   2.755   0.627  15.635  0.0379 -0.9275 -2.8970
  119CHL1   C2315051   2.975   0.629  15.618 -0.7451  0.5580 -0.3400
  119CHL1  H23A15052   2.978   0.714  15.690  1.3993  2.2586 -2.2825
  119CHL1  H23B15053   3.065   0.567  15.642 -2.1964 -0.7082  2.3413
  119CHL1   C2415054   2.991   0.667  15.469 -0.3792 -0.2342 -0.2922
  119CHL1  H24A15055   2.996   0.572  15.411 -1.0988 -1.3175  1.3356
  119CHL1  H24B15056   2.900   0.717  15.428  0.3245  0.5577 -0.9133
  119CHL1   C2515057   3.103   0.766  15.442 -0.4656  0.2934 -0.7228
  119CHL1   H2515058   3.194   0.737  15.500  0.3236  2.5789 -0.7259
  119CHL1   C2615059   3.125   0.764  15.294  0.7441  0.5812 -0.4077
  119CHL1  H26A15060   3.025   0.770  15.245 -0.4395 -2.6972  1.3008
  119CHL1  H26B15061   3.187   0.854  15.276 -0.2202  1.1354 -1.0367
  119CHL1  H26C15062   3.171   0.668  15.262 -0.1212  0.8269 -2.5533
  119CHL1   C2715063   3.066   0.908  15.497  0.2425 -0.1202  0.2734
  119CHL1  H27A15064   3.155   0.973  15.486 -0.8615  1.2723 -0.7979
  119CHL1  H27B15065   2.981   0.949  15.439  2.5592 -0.2702 -3.5798
  119CHL1  H27C15066   3.038   0.898  15.604 -1.2130  4.6787  0.5624
  120CHL1    C315067   1.783   0.147  16.700  0.4842 -0.0843 -0.5036
  120CHL1    H315068   1.720   0.223  16.649 -1.7613 -0.0807  2.0282
  120CHL1    O315069   1.770   0.166  16.844  0.0705 -0.6078 -0.1992
  120CHL1   H3'15070   1.816   0.088  16.879 -0.8607 -0.2383  2.0223
  120CHL1    C415071   1.721   0.006  16.662 -0.1193 -0.4451  0.4823
  120CHL1   H4A15072   1.791  -0.073  16.696 -1.2212 -2.9024 -2.5571
  120CHL1   H4B15073   1.625   0.006  16.718 -0.3409  1.2479  0.1665
  120CHL1    C515074   1.717  -0.002  16.513  0.6137  0.1739  0.6568
  120CHL1    C615075   1.602  -0.032  16.457 -0.3600  0.7085  1.0903
  120CHL1    H615076   1.515  -0.053  16.521 -1.4343  0.2535 -0.4447
  120CHL1    C715077   1.589  -0.067  16.312  0.5032  0.1750  0.0604
  120CHL1   H7A15078   1.529  -0.160  16.301 -0.9192  0.6888  2.5598
  120CHL1   H7B15079   1.522   0.005  16.261 -1.7063 -1.1910  0.9006
  120CHL1    C815080   1.725  -0.075  16.244 -0.1190  0.0401  0.2535
  120CHL1    H815081   1.758  -0.177  16.272 -1.1266 -0.2511  0.4154
  120CHL1   C1415082   1.706  -0.060  16.094  0.7576  0.1676 -0.1373
  120CHL1   H1415083   1.665   0.043  16.082 -0.5344 -0.3057 -0.0143
  120CHL1   C1515084   1.605  -0.141  16.018  0.5585 -0.1567 -0.7776
  120CHL1  H15A15085   1.617  -0.245  16.056  0.2643 -0.1714 -0.7230
  120CHL1  H15B15086   1.498  -0.118  16.037  0.4968 -0.9889 -0.0370
  120CHL1   C1615087   1.636  -0.116  15.868  0.2721  0.0882 -0.1514
  120CHL1  H16A15088   1.649  -0.217  15.823 -1.0612 -0.6725  1.1240
  120CHL1  H16B15089   1.561  -0.061  15.808 -1.4902 -1.4153  0.6011
  120CHL1   C1715090   1.776  -0.054  15.861  0.1457  0.8276  0.0357
  120CHL1   H1715091   1.764   0.055  15.843  1.2266  0.5914 -2.4800
  120CHL1   C1315092   1.832  -0.071  16.005  0.2493 -0.9816  0.1608
  120CHL1   C1815093   1.879  -0.212  16.006 -0.3989  0.7898 -0.8619
  120CHL1  H18A15094   1.907  -0.236  16.111  0.6401  0.8174 -1.1242
  120CHL1  H18B15095   1.810  -0.292  15.972 -0.1763 -1.3489  3.2200
  120CHL1  H18C15096   1.974  -0.222  15.949 -0.6310  2.1417 -1.5390
  120CHL1   C1215097   1.950   0.030  16.048  0.3136 -0.3952 -0.0458
  120CHL1  H12A15098   2.050   0.009  16.003  0.4647 -1.1095  0.6162
  120CHL1  H12B15099   1.909   0.128  16.015  2.8174  1.0695  0.9217
  120CHL1   C1115100   1.957   0.027  16.201 -0.5513  0.3673  0.3576
  120CHL1  H11A15101   2.007  -0.072  16.210  0.5729  0.8027 -0.7945
  120CHL1  H11B15102   2.028   0.112  16.207 -0.9079  0.7519 -0.6760
  120CHL1    C915103   1.830   0.027  16.290  0.2111 -0.1632  0.6852
  120CHL1    H915104   1.782   0.123  16.264 -0.0750 -0.6503 -0.6651
  120CHL1   C1015105   1.852   0.024  16.446 -0.5709  0.8510 -0.5218
  120CHL1   C1915106   1.947  -0.092  16.474 -0.6543 -0.0127 -0.6127
  120CHL1  H19A15107   1.966  -0.096  16.583 -2.3288  2.2839 -0.1848
  120CHL1  H19B15108   1.908  -0.192  16.445  0.2981 -0.3337 -0.8303
  120CHL1  H19C15109   2.051  -0.077  16.436 -0.7638 -0.7585 -1.2452
  120CHL1    C115110   1.925   0.145  16.492  0.4910  0.7558  0.7351
  120CHL1   H1A15111   2.030   0.150  16.457 -0.3630  2.4379 -1.9449
  120CHL1   H1B15112   1.877   0.235  16.448  1.6150  1.0892  0.1504
  120CHL1    C215113   1.922   0.160  16.646 -0.4195 -0.1147  0.7217
  120CHL1   H2A15114   1.969   0.255  16.680 -2.1019  1.1904 -0.4016
  120CHL1   H2B15115   1.986   0.086  16.699 -0.7532  0.8723  2.5758
  120CHL1   C2015116   1.852  -0.096  15.737 -0.7627  0.0074 -0.2490
  120CHL1   H2015117   1.867  -0.206  15.746 -1.0807 -0.0045  0.2053
  120CHL1   C2115118   1.991  -0.037  15.748 -0.7324  0.6357 -0.4001
  120CHL1  H21A15119   1.986   0.072  15.767  0.5728  0.6892 -0.3208
  120CHL1  H21B15120   2.045  -0.052  15.653 -0.5082 -0.7900 -0.0831
  120CHL1  H21C15121   2.054  -0.080  15.829  0.4522 -0.5666 -1.9138
  120CHL1   C2215122   1.789  -0.077  15.598 -0.0939  0.4456 -0.1971
  120CHL1  H22A15123   1.714  -0.158  15.611  1.3793 -0.7415  1.3355
  120CHL1  H22B15124   1.741   0.023  15.607  0.0343  0.5096 -0.2272
  120CHL1   C2315125   1.874  -0.108  15.474  0.2531 -0.2185 -0.1964
  120CHL1  H23A15126   1.966  -0.046  15.465 -0.6658  1.1599 -0.5349
  120CHL1  H23B15127   1.891  -0.217  15.476 -2.0830 -0.6839 -1.7731
  120CHL1   C2415128   1.785  -0.071  15.351 -0.1824  0.0073  0.7361
  120CHL1  H24A15129   1.703  -0.145  15.334 -1.0139  1.1113 -0.2650
  120CHL1  H24B15130   1.747   0.031  15.371  3.6173  2.1560 -1.7041
  120CHL1   C2515131   1.859  -0.076  15.218 -0.6293  0.1631 -0.5490
  120CHL1   H2515132   1.953  -0.017  15.228  0.2111 -0.9819 -1.3952
  120CHL1   C2615133   1.921  -0.214  15.183 -0.5362  0.5678 -0.2006
  120CHL1  H26A15134   1.981  -0.257  15.266 -0.0182 -0.9283 -1.3167
  120CHL1  H26B15135   1.843  -0.292  15.176 -1.1217  1.0800  0.4313
  120CHL1  H26C15136   1.978  -0.213  15.088  0.7417  0.7153  0.5424
  120CHL1   C2715137   1.768  -0.016  15.113  0.1988  0.7067 -0.5221
  120CHL1  H27A15138   1.802  -0.028  15.008  1.6948  0.4048 -0.0280
  120CHL1  H27B15139   1.665  -0.055  15.132  0.7930 -0.8361 -0.3147
  120CHL1  H27C15140   1.773   0.094  15.124  1.5704  0.6732 -0.6400
  121CHL1    C315141   5.948   3.519  13.223 -0.0739 -0.2200 -0.3645
  121CHL1    H315142   5.900   3.611  13.263 -0.0050 -0.3667  0.0609
  121CHL1    O315143   5.946   3.518  13.080 -0.3663 -0.1575  0.6641
  121CHL1   H3'15144   5.987   3.439  13.045 -0.2532  0.6495 -1.1662
  121CHL1    C415145   6.099   3.514  13.265  0.0569 -0.2347  0.3264
  121CHL1   H4A15146   6.135   3.423  13.214 -1.5177  0.8967 -3.1163
  121CHL1   H4B15147   6.151   3.601  13.219  1.8199 -1.7205 -0.6015
  121CHL1    C515148   6.116   3.508  13.412  0.5024 -0.0525 -0.6159
  121CHL1    C615149   6.194   3.602  13.480 -0.3504 -0.0382  0.2317
  121CHL1    H615150   6.244   3.685  13.427 -1.3492  0.7117  0.4448
  121CHL1    C715151   6.238   3.570  13.616  0.0099  0.4518  0.1727
  121CHL1   H7A15152   6.349   3.575  13.623 -0.0325  0.6481  0.7154
  121CHL1   H7B15153   6.198   3.651  13.681 -0.9484 -2.0675  2.9306
  121CHL1    C815154   6.190   3.441  13.687  0.0648 -0.0507  0.1995
  121CHL1    H815155   6.255   3.356  13.656 -3.7454 -2.6236 -1.4914
  121CHL1   C1415156   6.195   3.446  13.835  0.1341 -0.3263 -0.6849
  121CHL1   H1415157   6.116   3.520  13.861 -0.7677 -0.8107 -1.9786
  121CHL1   C1515158   6.322   3.483  13.906 -0.1948  0.2053  0.8133
  121CHL1  H15A15159   6.402   3.429  13.852 -1.0716  0.8645 -1.2154
  121CHL1  H15B15160   6.337   3.592  13.900  1.8072  0.0932  2.6124
  121CHL1   C1615161   6.314   3.432  14.053 -0.0074  0.0242  0.3558
  121CHL1  H16A15162   6.388   3.349  14.059 -0.0859 -0.0894 -0.2511
  121CHL1  H16B15163   6.342   3.506  14.132 -0.3870 -2.8808  3.4339
  121CHL1   C1715164   6.172   3.369  14.057 -0.7009 -0.1717  0.3171
  121CHL1   H1715165   6.102   3.455  14.073 -1.0780 -0.6977  1.5922
  121CHL1   C1315166   6.140   3.332  13.914 -0.6861  0.8435  1.2321
  121CHL1   C1815167   6.228   3.210  13.877 -0.1419 -0.3187 -0.1594
  121CHL1  H18A15168   6.183   3.126  13.934 -2.4994  1.1229  0.2032
  121CHL1  H18B15169   6.230   3.184  13.769 -0.5346  0.1565 -0.2871
  121CHL1  H18C15170   6.335   3.221  13.907 -0.7546 -1.1046  2.6121
  121CHL1   C1215171   5.993   3.300  13.870 -0.2117 -0.1788 -0.2235
  121CHL1  H12A15172   5.946   3.210  13.917 -1.9176 -0.0981 -1.6972
  121CHL1  H12B15173   5.926   3.375  13.917  0.6520  0.4995 -0.0320
  121CHL1   C1115174   5.979   3.290  13.716 -0.4859  0.2471 -0.1169
  121CHL1  H11A15175   6.035   3.200  13.685 -0.9019 -0.5603  1.3632
  121CHL1  H11B15176   5.873   3.277  13.685 -0.6270  1.0407  0.0093
  121CHL1    C915177   6.041   3.407  13.636  0.0093 -1.0856 -0.1415
  121CHL1    H915178   5.981   3.498  13.657 -0.5669 -1.0484 -1.7873
  121CHL1   C1015179   6.040   3.395  13.486 -0.1912  0.4632 -0.4703
  121CHL1   C1915180   6.114   3.271  13.436 -1.0822  0.3697 -0.0486
  121CHL1  H19A15181   6.067   3.182  13.483  1.3289 -1.1499 -0.3787
  121CHL1  H19B15182   6.119   3.245  13.328 -1.0198  2.0024 -0.4621
  121CHL1  H19C15183   6.217   3.264  13.476 -0.5954 -1.4994 -1.4738
  121CHL1    C115184   5.887   3.388  13.435 -0.4422 -0.5438  0.0628
  121CHL1   H1A15185   5.846   3.289  13.464 -2.7212 -0.7808 -3.3926
  121CHL1   H1B15186   5.824   3.464  13.486 -1.6452 -1.8087  0.5057
  121CHL1    C215187   5.873   3.405  13.280  0.6588  0.6050  0.5628
  121CHL1   H2A15188   5.766   3.429  13.264  0.2853 -0.5291  1.1945
  121CHL1   H2B15189   5.905   3.315  13.223  1.4133  2.1755 -1.6131
  121CHL1   C2015190   6.147   3.257  14.163  0.0653 -0.0617 -0.2757
  121CHL1   H2015191   6.079   3.185  14.113 -0.8975  2.0447 -2.1264
  121CHL1   C2115192   6.083   3.311  14.289  0.1793  0.0234  0.2927
  121CHL1  H21A15193   6.011   3.239  14.332 -2.1756  1.2099 -1.3868
  121CHL1  H21B15194   6.028   3.408  14.287 -0.6534 -0.3374  2.7121
  121CHL1  H21C15195   6.163   3.332  14.362 -0.0961  0.0392  0.5915
  121CHL1   C2215196   6.262   3.170  14.212 -0.3747 -0.5187  0.4407
  121CHL1  H22A15197   6.332   3.144  14.130  0.1748 -1.4726  1.1979
  121CHL1  H22B15198   6.325   3.217  14.290  1.4597 -1.4791 -0.3982
  121CHL1   C2315199   6.217   3.039  14.283  0.2648  0.6319  0.4171
  121CHL1  H23A15200   6.300   3.004  14.348 -0.7208 -1.2356  0.7623
  121CHL1  H23B15201   6.147   3.059  14.367 -1.4361 -2.0903 -0.2157
  121CHL1   C2415202   6.158   2.921  14.193  1.0750 -0.3834 -0.0957
  121CHL1  H24A15203   6.068   2.972  14.153  1.7429  1.4918  0.6778
  121CHL1  H24B15204   6.214   2.898  14.100 -0.6695  1.2860 -1.6616
  121CHL1   C2515205   6.109   2.797  14.257  0.5325  0.2643 -0.3351
  121CHL1   H2515206   6.016   2.821  14.311 -0.0076 -0.3423 -0.9698
  121CHL1   C2615207   6.075   2.683  14.160  0.1638 -0.4398  0.1652
  121CHL1  H26A15208   6.173   2.648  14.122  1.3517  1.7847  0.9719
  121CHL1  H26B15209   6.025   2.602  14.219 -0.4355  0.4073  0.8467
  121CHL1  H26C15210   6.004   2.719  14.083  1.4806  0.2333 -0.7621
  121CHL1   C2715211   6.201   2.728  14.361 -0.4024 -0.1314  0.3892
  121CHL1  H27A15212   6.297   2.708  14.308  0.1354  1.5394  0.6661
  121CHL1  H27B15213   6.221   2.794  14.448  0.1156 -1.7678  1.5690
  121CHL1  H27C15214   6.156   2.633  14.397  0.6043 -0.8200 -0.1318
  122CHL1    C315215   3.727   4.591  13.248  0.5740  0.2062 -0.1589
  122CHL1    H315216   3.835   4.570  13.230  0.3159  1.2622 -3.7279
  122CHL1    O315217   3.692   4.698  13.169 -0.0883  0.1310  0.5817
  122CHL1   H3'15218   3.602   4.674  13.145 -0.5915  0.0143  2.4343
  122CHL1    C415219   3.644   4.462  13.207  0.7601  0.0287 -0.1432
  122CHL1   H4A15220   3.538   4.495  13.215 -0.5486 -3.7122 -0.4406
  122CHL1   H4B15221   3.663   4.441  13.100  1.3752 -0.2942  0.0269
  122CHL1    C515222   3.661   4.343  13.305 -0.2766 -0.2969  0.5035
  122CHL1    C615223   3.703   4.222  13.259 -0.2068  0.2535  0.4177
  122CHL1    H615224   3.725   4.207  13.152  2.1749  0.9886  0.7464
  122CHL1    C715225   3.717   4.107  13.349 -0.3174 -0.1344  0.3388
  122CHL1   H7A15226   3.673   4.011  13.314 -0.3444  0.4968 -1.4681
  122CHL1   H7B15227   3.823   4.081  13.368 -0.1642  0.8213  0.8098
  122CHL1    C815228   3.659   4.124  13.492 -0.1065 -0.1874  0.4159
  122CHL1    H815229   3.550   4.118  13.471  0.1602 -0.0092 -1.1551
  122CHL1   C1415230   3.699   4.019  13.593  0.1431  0.1232  0.2477
  122CHL1   H1415231   3.810   4.021  13.601  0.4308 -3.1167 -1.1225
  122CHL1   C1515232   3.666   3.877  13.552 -0.1087 -0.8236 -0.0028
  122CHL1  H15A15233   3.561   3.878  13.515  0.3467  0.2178 -1.3578
  122CHL1  H15B15234   3.727   3.843  13.466 -1.0946 -0.5543 -0.8359
  122CHL1   C1615235   3.695   3.801  13.682 -0.7081  0.3991  0.1537
  122CHL1  H16A15236   3.612   3.732  13.707 -0.0128  0.5640  3.4018
  122CHL1  H16B15237   3.790   3.747  13.663  0.3821  2.4867 -0.6208
  122CHL1   C1715238   3.713   3.906  13.801 -0.5060 -1.3105  0.1501
  122CHL1   H1715239   3.821   3.928  13.809 -0.4087 -0.4505 -2.6815
  122CHL1   C1315240   3.653   4.034  13.740  0.0048 -0.1776 -0.1520
  122CHL1   C1815241   3.503   4.028  13.753 -0.4079  0.0592 -0.3137
  122CHL1  H18A15242   3.458   4.113  13.698  0.8939  0.4590 -0.7910
  122CHL1  H18B15243   3.462   3.935  13.710  0.5738 -0.5401  0.0236
  122CHL1  H18C15244   3.467   4.019  13.858  1.6950 -1.4880  0.3415
  122CHL1   C1215245   3.695   4.170  13.790 -0.8835  0.0595 -0.1618
  122CHL1  H12A15246   3.671   4.202  13.894  0.5322  1.6483 -0.2781
  122CHL1  H12B15247   3.806   4.169  13.781 -1.0211  0.8258 -2.8041
  122CHL1   C1115248   3.654   4.283  13.696 -0.5806 -0.3280 -0.5584
  122CHL1  H11A15249   3.550   4.315  13.715  0.0240  1.5806 -0.2634
  122CHL1  H11B15250   3.723   4.366  13.723  1.6378 -1.4036 -2.5747
  122CHL1    C915251   3.694   4.267  13.543  0.4189  0.7138 -0.2291
  122CHL1    H915252   3.804   4.281  13.544  0.7439 -1.5504  1.2416
  122CHL1   C1015253   3.639   4.374  13.448 -0.1355 -0.6544 -0.6143
  122CHL1   C1915254   3.488   4.392  13.467  0.1504 -0.1974 -0.2611
  122CHL1  H19A15255   3.447   4.471  13.401 -0.1152  0.4913  0.6978
  122CHL1  H19B15256   3.436   4.298  13.438  0.9010 -1.4675  2.2432
  122CHL1  H19C15257   3.463   4.423  13.571  2.4619 -1.9250  0.8892
  122CHL1    C115258   3.720   4.508  13.484  0.3621 -0.2833 -0.1284
  122CHL1   H1A15259   3.701   4.539  13.589  2.3429  0.5371  0.0185
  122CHL1   H1B15260   3.827   4.483  13.499  0.7450 -0.0007 -2.0843
  122CHL1    C215261   3.681   4.625  13.390 -0.2189 -0.4925  0.3373
  122CHL1   H2A15262   3.748   4.713  13.405  0.5489 -0.3258 -3.2506
  122CHL1   H2B15263   3.575   4.656  13.380  0.0013 -0.1029 -1.1086
  122CHL1   C2015264   3.673   3.848  13.944 -0.6467  0.9562  0.4982
  122CHL1   H2015265   3.570   3.807  13.948 -0.5625  0.7930  1.0668
  122CHL1   C2115266   3.681   3.964  14.047 -0.4904 -0.3774 -0.0711
  122CHL1  H21A15267   3.779   4.014  14.029  0.1919 -1.3038  0.9757
  122CHL1  H21B15268   3.690   3.931  14.152  1.5480 -2.2355 -0.7538
  122CHL1  H21C15269   3.602   4.041  14.034 -0.1622  0.1169  0.7882
  122CHL1   C2215270   3.763   3.728  13.978  0.3507 -0.7864  0.2579
  122CHL1  H22A15271   3.753   3.662  13.889 -2.1547 -1.7617  1.1798
  122CHL1  H22B15272   3.868   3.762  13.990  1.0756 -1.7621 -2.5422
  122CHL1   C2315273   3.716   3.640  14.089 -0.1979  0.2052 -0.0208
  122CHL1  H23A15274   3.712   3.704  14.179  2.3913  3.8717 -2.2247
  122CHL1  H23B15275   3.613   3.606  14.064 -0.0291  0.6267 -1.3837
  122CHL1   C2415276   3.810   3.519  14.119  0.0667 -0.1275  0.8483
  122CHL1  H24A15277   3.840   3.468  14.025  0.0329 -1.9409  1.7537
  122CHL1  H24B15278   3.910   3.550  14.157  2.4261 -4.0974 -1.3845
  122CHL1   C2515279   3.746   3.409  14.204  0.2985 -0.7688  0.0742
  122CHL1   H2515280   3.719   3.445  14.306  1.9761  0.5046  0.1032
  122CHL1   C2615281   3.621   3.349  14.141 -0.1833 -0.1321  0.0675
  122CHL1  H26A15282   3.584   3.275  14.215  1.1219 -1.1142 -0.2087
  122CHL1  H26B15283   3.539   3.422  14.123  0.3100  0.5869  0.7169
  122CHL1  H26C15284   3.633   3.302  14.041  0.5729  0.5314 -0.1601
  122CHL1   C2715285   3.854   3.299  14.242  0.0868 -0.8211 -0.5266
  122CHL1  H27A15286   3.922   3.348  14.316 -1.5660 -2.8087  2.5209
  122CHL1  H27B15287   3.804   3.215  14.294  0.5351 -0.3621  0.6950
  122CHL1  H27C15288   3.900   3.275  14.144 -1.9647  1.7844 -2.2847
  123CHL1    C315289   6.557   3.167  13.353  0.1216 -0.6442  0.5166
  123CHL1    H315290   6.471   3.236  13.368  0.9893  0.8939 -1.2108
  123CHL1    O315291   6.563   3.122  13.217 -0.3373  0.3836  0.1088
  123CHL1   H3'15292   6.508   3.045  13.200  0.6578 -0.2451 -0.2831
  123CHL1    C415293   6.684   3.253  13.378 -0.2710  0.1558 -0.2694
  123CHL1   H4A15294   6.774   3.195  13.351 -0.6708 -0.4755 -0.2558
  123CHL1   H4B15295   6.702   3.344  13.316  0.7722  0.9945  1.2069
  123CHL1    C515296   6.701   3.297  13.526 -0.3480  0.0547 -0.6508
  123CHL1    C615297   6.714   3.430  13.550 -0.0798  0.0367 -0.7288
  123CHL1    H615298   6.719   3.502  13.467  2.8029  0.3747 -0.3715
  123CHL1    C715299   6.717   3.487  13.693 -0.0535  0.4825  0.5874
  123CHL1   H7A15300   6.785   3.573  13.710 -0.6490  0.8252  1.2884
  123CHL1   H7B15301   6.612   3.515  13.715 -1.3369 -0.7899 -3.1232
  123CHL1    C815302   6.757   3.375  13.797  0.0492 -0.0518 -0.4393
  123CHL1    H815303   6.863   3.346  13.780  0.2257 -0.3056  1.0160
  123CHL1   C1415304   6.738   3.419  13.944  0.4859 -0.8191  0.2867
  123CHL1   H1415305   6.628   3.436  13.944  0.2990 -1.9113  1.0662
  123CHL1   C1515306   6.801   3.550  13.994  0.4653  0.1968 -0.2464
  123CHL1  H15A15307   6.900   3.572  13.949 -0.0204  0.7230 -1.0851
  123CHL1  H15B15308   6.728   3.632  13.981  1.6774  1.0217 -2.2887
  123CHL1   C1615309   6.817   3.524  14.142 -0.1593 -0.1717 -0.3619
  123CHL1  H16A15310   6.926   3.526  14.162  0.0395 -2.4628 -0.8890
  123CHL1  H16B15311   6.771   3.610  14.195  0.0030  0.7525 -1.6586
  123CHL1   C1715312   6.746   3.392  14.175 -0.0444  0.2919 -0.4519
  123CHL1   H1715313   6.637   3.414  14.182 -0.3340 -0.9350 -0.9354
  123CHL1   C1315314   6.761   3.311  14.049  0.6656  0.0707 -0.4460
  123CHL1   C1815315   6.909   3.266  14.040  0.6496  0.1769  0.9602
  123CHL1  H18A15316   6.973   3.357  14.041 -0.5952  1.0889  2.6853
  123CHL1  H18B15317   6.931   3.197  14.123 -0.5813 -2.8263 -1.0241
  123CHL1  H18C15318   6.922   3.212  13.943  1.3701  1.2944  0.4077
  123CHL1   C1215319   6.656   3.202  14.027 -0.5167 -0.5073 -0.4136
  123CHL1  H12A15320   6.667   3.130  14.111  0.8302  0.9026  0.6942
  123CHL1  H12B15321   6.554   3.246  14.033  0.6361  2.2073  1.3355
  123CHL1   C1115322   6.676   3.137  13.890  0.7164  0.6496  0.8362
  123CHL1  H11A15323   6.771   3.080  13.894  1.3719  1.5417 -0.9907
  123CHL1  H11B15324   6.599   3.063  13.859 -1.6424  3.1543  0.3682
  123CHL1    C915325   6.673   3.246  13.774  0.1210  0.1929 -0.1270
  123CHL1    H915326   6.568   3.281  13.771  0.2026  0.3916 -3.1092
  123CHL1   C1015327   6.684   3.189  13.634 -0.2075 -0.2646  0.3159
  123CHL1   C1915328   6.809   3.092  13.637 -0.2820 -0.1405  0.3183
  123CHL1  H19A15329   6.783   3.003  13.698  4.2073 -1.6154  0.4515
  123CHL1  H19B15330   6.844   3.064  13.535  1.7478 -1.0817  1.2204
  123CHL1  H19C15331   6.901   3.144  13.671 -1.1753  1.6005  0.1636
  123CHL1    C115332   6.559   3.097  13.598 -0.2860 -0.0193 -0.2127
  123CHL1   H1A15333   6.558   3.009  13.665  0.0176 -0.2920 -0.5626
  123CHL1   H1B15334   6.462   3.146  13.622 -0.7367 -0.6123 -0.7854
  123CHL1    C215335   6.543   3.052  13.450 -0.7322  0.0557 -0.1812
  123CHL1   H2A15336   6.446   3.000  13.438 -0.0777 -0.6395 -3.4023
  123CHL1   H2B15337   6.614   2.971  13.423  0.3360  1.0756 -0.5634
  123CHL1   C2015338   6.775   3.321  14.307  0.1790 -0.4911  0.1314
  123CHL1   H2015339   6.765   3.211  14.297 -1.6442 -0.5104  1.6659
  123CHL1   C2115340   6.673   3.361  14.414  0.0027  0.3923  0.1246
  123CHL1  H21A15341   6.690   3.313  14.513  1.0333 -0.1216 -0.2875
  123CHL1  H21B15342   6.568   3.330  14.395  0.3383 -0.4862 -0.3374
  123CHL1  H21C15343   6.673   3.472  14.422 -1.2087  0.4079  0.0142
  123CHL1   C2215344   6.919   3.353  14.363  0.1251 -0.3020  0.0111
  123CHL1  H22A15345   6.995   3.342  14.283 -0.3117 -1.3909 -0.2770
  123CHL1  H22B15346   6.918   3.457  14.402  1.5420 -0.8116  1.4759
  123CHL1   C2315347   6.961   3.257  14.476 -0.5444  0.2331 -0.0561
  123CHL1  H23A15348   6.911   3.287  14.571 -1.1166 -0.2135 -0.2137
  123CHL1  H23B15349   6.942   3.149  14.460 -0.2570  0.4033 -1.6412
  123CHL1   C2415350   7.120   3.258  14.497  0.7033 -0.2574 -0.0159
  123CHL1  H24A15351   7.170   3.258  14.398  0.4571 -0.7118 -0.1434
  123CHL1  H24B15352   7.138   3.356  14.548  0.0325  0.6328 -1.4254
  123CHL1   C2515353   7.165   3.138  14.586  0.0281 -0.2294  0.5865
  123CHL1   H2515354   7.091   3.129  14.669 -1.5926 -1.7312 -0.9184
  123CHL1   C2615355   7.150   3.009  14.505 -0.7668  0.1547  0.1364
  123CHL1  H26A15356   7.044   2.979  14.496 -1.3442  1.5898  1.6440
  123CHL1  H26B15357   7.197   3.037  14.408 -0.0371  0.8871  0.6872
  123CHL1  H26C15358   7.207   2.925  14.552 -0.3496  0.8278  0.8550
  123CHL1   C2715359   7.312   3.158  14.642  0.7660 -0.1494 -0.1466
  123CHL1  H27A15360   7.342   3.081  14.717  1.9263  0.5956  0.1814
  123CHL1  H27B15361   7.393   3.140  14.568 -0.3824 -0.2046 -1.4355
  123CHL1  H27C15362   7.331   3.263  14.674  0.1155  0.0972 -0.5660
  124CHL1    C315363   4.975   4.962  13.349 -0.5272  0.0941 -0.2590
  124CHL1    H315364   5.050   5.039  13.376  0.3480 -0.4735 -1.0249
  124CHL1    O315365   4.958   4.966  13.207 -0.3474 -0.0341 -0.1147
  124CHL1   H3'15366   4.873   4.927  13.187  0.0323 -0.5289 -0.7819
  124CHL1    C415367   5.037   4.825  13.399  0.0814 -0.1333 -0.0084
  124CHL1   H4A15368   4.983   4.735  13.363 -1.0946  0.4228  0.2953
  124CHL1   H4B15369   5.139   4.815  13.355  0.3220 -0.3923  0.6068
  124CHL1    C515370   5.045   4.814  13.551 -0.2682 -0.5797  0.5254
  124CHL1    C615371   5.160   4.785  13.615  0.3248  0.1321 -0.0524
  124CHL1    H615372   5.256   4.763  13.566 -0.5447 -0.3643 -1.6097
  124CHL1    C715373   5.154   4.776  13.764  0.2750  0.4228 -0.4949
  124CHL1   H7A15374   5.214   4.687  13.795  0.4149  0.1151 -1.6013
  124CHL1   H7B15375   5.221   4.862  13.784  0.7330  0.1224 -0.7141
  124CHL1    C815376   5.017   4.775  13.837 -0.3756 -0.2423  0.5857
  124CHL1    H815377   4.968   4.676  13.833  0.2381 -0.6569  2.3512
  124CHL1   C1415378   5.035   4.811  13.983 -0.7065 -0.1178  0.4384
  124CHL1   H1415379   5.064   4.918  13.987 -0.0413 -0.3253  1.7316
  124CHL1   C1515380   5.146   4.737  14.058 -0.8788 -0.1029 -0.0670
  124CHL1  H15A15381   5.165   4.631  14.032 -0.6887 -0.5077  1.6225
  124CHL1  H15B15382   5.245   4.786  14.047 -1.4180  0.8513 -0.8021
  124CHL1   C1615383   5.098   4.744  14.203 -0.9434  0.8078  0.7730
  124CHL1  H16A15384   5.082   4.641  14.240 -0.1193 -0.4202 -2.0118
  124CHL1  H16B15385   5.171   4.802  14.263 -1.8104  3.9674 -0.9758
  124CHL1   C1715386   4.962   4.822  14.195  0.2775  1.3716  0.2171
  124CHL1   H1715387   4.988   4.930  14.204  0.2620  1.2636  2.1050
  124CHL1   C1315388   4.903   4.802  14.062  0.6914  0.0407 -0.0833
  124CHL1   C1815389   4.848   4.663  14.061  0.0877  0.6320 -0.2299
  124CHL1  H18A15390   4.918   4.592  14.110 -2.7055 -1.1358  1.4538
  124CHL1  H18B15391   4.755   4.646  14.118 -0.3613  0.9363 -0.8595
  124CHL1  H18C15392   4.837   4.615  13.961 -0.0088 -0.3870  0.2540
  124CHL1   C1215393   4.810   4.904  13.998 -0.4222  0.0187  0.0268
  124CHL1  H12A15394   4.711   4.909  14.047  0.9337  0.8615  2.9249
  124CHL1  H12B15395   4.859   5.003  14.009  0.2300 -0.2872 -0.0942
  124CHL1   C1115396   4.787   4.868  13.852 -0.1895 -0.6251  0.2142
  124CHL1  H11A15397   4.748   4.765  13.848  1.3488 -1.2537  0.6591
  124CHL1  H11B15398   4.717   4.938  13.801 -0.8388 -2.1944 -1.1270
  124CHL1    C915399   4.921   4.873  13.775  0.9838 -0.3860  0.0015
  124CHL1    H915400   4.966   4.974  13.780  0.2182  0.0057 -0.8059
  124CHL1   C1015401   4.909   4.850  13.619 -0.1165 -0.3037 -0.0612
  124CHL1   C1915402   4.817   4.727  13.586 -0.3253 -0.2312 -0.6440
  124CHL1  H19A15403   4.793   4.722  13.477  0.9579  2.8355 -1.1626
  124CHL1  H19B15404   4.868   4.633  13.614  0.2545  0.1155 -0.5206
  124CHL1  H19C15405   4.727   4.723  13.651 -0.2608 -1.9614 -0.6068
  124CHL1    C115406   4.859   4.990  13.562 -0.2563  0.0610  0.4787
  124CHL1   H1A15407   4.761   5.014  13.609 -0.3163 -0.1073  0.4387
  124CHL1   H1B15408   4.942   5.056  13.596  0.5276  0.1780 -1.5503
  124CHL1    C215409   4.841   4.998  13.407  0.1300  0.2053 -0.4977
  124CHL1   H2A15410   4.808   5.102  13.387 -1.2114 -0.2950 -0.9891
  124CHL1   H2B15411   4.771   4.921  13.370 -1.8593  1.9089 -0.4387
  124CHL1   C2015412   4.879   4.794  14.321  0.0543 -0.7277 -0.3293
  124CHL1   H2015413   4.850   4.686  14.328 -0.1445 -0.6895 -0.5423
  124CHL1   C2115414   4.746   4.873  14.319 -0.0750  0.1036 -0.5417
  124CHL1  H21A15415   4.680   4.848  14.405 -1.2887  0.4264 -1.3431
  124CHL1  H21B15416   4.686   4.860  14.226  0.4524  0.5459 -0.9505
  124CHL1  H21C15417   4.770   4.981  14.321 -2.6977  0.7752 -1.1775
  124CHL1   C2215418   4.957   4.835  14.448 -0.6745  0.0416 -0.9787
  124CHL1  H22A15419   5.049   4.776  14.468 -1.5566 -0.9881  0.1880
  124CHL1  H22B15420   4.984   4.943  14.449 -0.9307  0.2548  3.4611
  124CHL1   C2315421   4.880   4.818  14.579 -0.2354  0.2806 -0.6420
  124CHL1  H23A15422   4.802   4.895  14.589 -0.1392  0.3740 -0.6167
  124CHL1  H23B15423   4.821   4.724  14.583 -0.6807  0.5264 -1.2123
  124CHL1   C2415424   4.978   4.814  14.696  0.6858  0.8587  0.1306
  124CHL1  H24A15425   5.051   4.731  14.690 -0.6527 -0.6860  3.0417
  124CHL1  H24B15426   5.025   4.914  14.710 -1.5990  2.2302 -1.1500
  124CHL1   C2515427   4.909   4.788  14.834 -0.4156  0.4028 -0.4861
  124CHL1   H2515428   4.991   4.808  14.905  0.9262  3.2927 -2.6561
  124CHL1   C2615429   4.795   4.886  14.880 -0.9352  0.5893  0.3420
  124CHL1  H26A15430   4.698   4.865  14.830  0.1412  1.3310 -2.2228
  124CHL1  H26B15431   4.780   4.876  14.990 -2.6521  0.9760  0.1764
  124CHL1  H26C15432   4.829   4.989  14.856  0.2318  0.7254  2.3447
  124CHL1   C2715433   4.871   4.645  14.861 -0.6046 -0.7878  0.3428
  124CHL1  H27A15434   4.787   4.602  14.802 -0.9315 -0.3357  0.4696
  124CHL1  H27B15435   4.951   4.573  14.837  0.9990  0.0495  2.7886
  124CHL1  H27C15436   4.848   4.643  14.970  0.6704  0.7346  0.6804
  125CHL1    C315437   5.367   4.246  13.243 -0.4782 -0.7071 -0.2378
  125CHL1    H315438   5.258   4.246  13.261 -0.3715  2.6986  1.1831
  125CHL1    O315439   5.399   4.266  13.105 -0.3648  0.0371  0.1765
  125CHL1   H3'15440   5.419   4.180  13.067  1.0718 -0.1869  1.3894
  125CHL1    C415441   5.433   4.359  13.326  0.0070 -0.2664 -0.9187
  125CHL1   H4A15442   5.536   4.378  13.291  0.2528 -0.3228 -0.2303
  125CHL1   H4B15443   5.380   4.453  13.299  0.0316 -0.0821 -0.3421
  125CHL1    C515444   5.421   4.345  13.475  0.0320 -0.1520 -0.7427
  125CHL1    C615445   5.375   4.439  13.556 -0.5126 -0.4572 -0.1507
  125CHL1    H615446   5.345   4.536  13.514 -0.3903 -1.2936 -2.2957
  125CHL1    C715447   5.362   4.423  13.708  0.8062 -0.3382 -0.0521
  125CHL1   H7A15448   5.417   4.503  13.762  0.9589 -0.2517 -0.3335
  125CHL1   H7B15449   5.254   4.420  13.730  0.5167 -0.3521 -1.3585
  125CHL1    C815450   5.433   4.304  13.760  0.3726  0.6593 -0.9751
  125CHL1    H815451   5.543   4.322  13.759  0.4104  0.7184  1.0326
  125CHL1   C1415452   5.380   4.270  13.900 -0.4606  0.7721  0.4904
  125CHL1   H1415453   5.278   4.231  13.882  0.3709 -1.9488  1.2596
  125CHL1   C1515454   5.360   4.387  13.998 -0.7648  0.0600 -0.9680
  125CHL1  H15A15455   5.445   4.455  13.980 -0.2164 -0.0783  0.8845
  125CHL1  H15B15456   5.263   4.441  13.997 -0.1519  1.1725 -1.4348
  125CHL1   C1615457   5.361   4.314  14.138 -0.1602 -0.2173  0.7538
  125CHL1  H16A15458   5.445   4.348  14.203  1.0087 -1.1445 -0.2346
  125CHL1  H16B15459   5.269   4.355  14.186 -0.0346 -1.1571  1.8519
  125CHL1   C1715460   5.385   4.167  14.106 -0.2002  0.0274  0.1117
  125CHL1   H1715461   5.283   4.139  14.073 -0.1413 -1.9444  1.4819
  125CHL1   C1315462   5.464   4.165  13.976 -0.0015  0.1585  0.4718
  125CHL1   C1815463   5.612   4.211  14.005  0.7570 -0.7812 -0.0184
  125CHL1  H18A15464   5.672   4.225  13.913  2.2487 -2.1650  0.6987
  125CHL1  H18B15465   5.613   4.299  14.073 -0.0327  0.7728 -1.9304
  125CHL1  H18C15466   5.671   4.128  14.048  1.5818  0.1733  0.7542
  125CHL1   C1215467   5.456   4.043  13.892 -0.1477 -0.1124 -0.2607
  125CHL1  H12A15468   5.518   3.961  13.933 -1.0866  1.2535  4.5168
  125CHL1  H12B15469   5.349   4.014  13.897 -0.7798  1.9469 -0.5744
  125CHL1   C1115470   5.508   4.062  13.749 -0.0898 -0.7706  0.1233
  125CHL1  H11A15471   5.618   4.080  13.742  0.1043 -1.3868  1.2766
  125CHL1  H11B15472   5.479   3.978  13.682  0.4785 -1.1445  0.3379
  125CHL1    C915473   5.429   4.176  13.675  0.1495  0.0217 -0.3410
  125CHL1    H915474   5.321   4.149  13.676  0.3647 -0.8686  0.7894
  125CHL1   C1015475   5.462   4.203  13.525  0.5198 -0.3185  0.1529
  125CHL1   C1915476   5.613   4.202  13.520 -0.8810  0.2019  0.0164
  125CHL1  H19A15477   5.646   4.236  13.420  0.0978 -1.8395 -0.4081
  125CHL1  H19B15478   5.663   4.265  13.596 -1.0460 -1.7137  1.8003
  125CHL1  H19C15479   5.649   4.099  13.539 -2.6832 -1.1512 -3.0142
  125CHL1    C115480   5.403   4.094  13.432 -0.1431 -0.5761 -0.0969
  125CHL1   H1A15481   5.450   4.000  13.465  0.5484 -0.1642  0.1067
  125CHL1   H1B15482   5.293   4.090  13.446 -0.8996 -2.5763 -4.7287
  125CHL1    C215483   5.422   4.109  13.278  0.0729 -0.4148 -0.5049
  125CHL1   H2A15484   5.371   4.032  13.217  0.0130 -2.4539  1.9211
  125CHL1   H2B15485   5.532   4.110  13.259  0.1714  0.2372  0.0577
  125CHL1   C2015486   5.432   4.078  14.216 -0.4061  0.0729 -0.4180
  125CHL1   H2015487   5.541   4.083  14.239 -0.5666 -0.3360  0.4410
  125CHL1   C2115488   5.388   3.929  14.190 -0.3215 -0.5804  0.1196
  125CHL1  H21A15489   5.284   3.941  14.151  0.5703  0.7000 -2.1038
  125CHL1  H21B15490   5.386   3.880  14.289  1.2203  0.3987  0.6742
  125CHL1  H21C15491   5.457   3.886  14.114  0.4160 -1.4545  1.2640
  125CHL1   C2215492   5.367   4.116  14.358  0.6160  0.5155  0.5192
  125CHL1  H22A15493   5.357   4.227  14.357 -0.8716  0.3983 -0.7510
  125CHL1  H22B15494   5.265   4.074  14.368  0.3049  1.0003 -0.5552
  125CHL1   C2315495   5.442   4.055  14.479  0.1094  0.0195  0.9350
  125CHL1  H23A15496   5.440   3.943  14.475 -0.7691  0.0540 -0.6338
  125CHL1  H23B15497   5.550   4.083  14.476  0.3927 -1.0394 -1.4111
  125CHL1   C2415498   5.384   4.109  14.613 -0.1385  0.9956  0.0922
  125CHL1  H24A15499   5.394   4.220  14.616 -0.6196  1.0294  0.8180
  125CHL1  H24B15500   5.278   4.079  14.629 -0.0110  0.3077 -0.3383
  125CHL1   C2515501   5.472   4.059  14.728  0.6644 -0.0424  0.8656
  125CHL1   H2515502   5.576   4.081  14.695  0.5991  0.7808  1.1952
  125CHL1   C2615503   5.444   4.140  14.854 -0.2362 -0.1777 -0.1737
  125CHL1  H26A15504   5.342   4.129  14.897 -0.3899 -1.5115 -0.8317
  125CHL1  H26B15505   5.515   4.111  14.934 -0.1324  1.3078  0.3020
  125CHL1  H26C15506   5.462   4.248  14.834  1.1904 -0.6216 -1.5429
  125CHL1   C2715507   5.454   3.909  14.762  0.1560  0.6538 -0.2339
  125CHL1  H27A15508   5.516   3.887  14.852  1.0207  0.8245 -0.7791
  125CHL1  H27B15509   5.352   3.882  14.795  0.3872 -1.6662 -1.2483
  125CHL1  H27C15510   5.481   3.844  14.677  0.5276  2.2083 -1.3450
  126CHL1    C315511   4.302   5.273  13.238  0.1524  0.1122  0.5673
  126CHL1    H315512   4.193   5.259  13.224  0.2876 -1.5069  0.8631
  126CHL1    O315513   4.359   5.309  13.112 -0.1415  0.1757 -0.3028
  126CHL1   H3'15514   4.450   5.282  13.117  0.7221  2.4915 -1.7719
  126CHL1    C415515   4.330   5.381  13.345  0.2550  0.5711  0.3368
  126CHL1   H4A15516   4.438   5.405  13.351  0.6972 -0.9403 -0.9840
  126CHL1   H4B15517   4.265   5.465  13.311 -1.0918 -0.6733 -0.2585
  126CHL1    C515518   4.287   5.331  13.481 -0.4943 -0.3167 -0.8506
  126CHL1    C615519   4.218   5.414  13.562 -0.2810 -0.4584 -0.3484
  126CHL1    H615520   4.183   5.508  13.518 -0.4846  0.4048  1.5655
  126CHL1    C715521   4.191   5.384  13.708 -0.2858 -0.8179 -0.7385
  126CHL1   H7A15522   4.227   5.472  13.766 -0.7075 -2.0536  1.5077
  126CHL1   H7B15523   4.081   5.378  13.722 -0.2449 -2.9097 -1.1347
  126CHL1    C815524   4.276   5.268  13.767 -0.1243 -0.1943 -0.1636
  126CHL1    H815525   4.372   5.305  13.809  0.8574 -2.1709 -0.5090
  126CHL1   C1415526   4.209   5.216  13.893 -0.3061 -0.7703  0.1413
  126CHL1   H1415527   4.105   5.186  13.867 -0.7262 -0.1601  1.0823
  126CHL1   C1515528   4.178   5.322  14.011 -0.0283 -0.3985  0.3858
  126CHL1  H15A15529   4.269   5.382  14.032 -0.9210  1.0485  0.3140
  126CHL1  H15B15530   4.095   5.393  13.988  0.4221  0.4045  1.1636
  126CHL1   C1615531   4.141   5.227  14.127  0.0560  0.3408  0.1779
  126CHL1  H16A15532   4.200   5.261  14.215 -0.7997  2.2160  0.0859
  126CHL1  H16B15533   4.031   5.214  14.139  0.2242 -3.1667 -0.9470
  126CHL1   C1715534   4.186   5.079  14.094  0.2141  0.1877  0.6119
  126CHL1   H1715535   4.103   5.024  14.044  1.3629  0.3883 -1.6604
  126CHL1   C1315536   4.274   5.094  13.971 -0.9124 -0.6654 -0.2665
  126CHL1   C1815537   4.411   5.147  14.020 -1.1515  0.1261 -0.6189
  126CHL1  H18A15538   4.406   5.235  14.088  0.3038  0.4386 -0.8885
  126CHL1  H18B15539   4.469   5.061  14.060  0.0066  1.3891  0.5255
  126CHL1  H18C15540   4.470   5.191  13.937  1.0535  0.3961  0.9913
  126CHL1   C1215541   4.287   4.986  13.861  0.0238 -0.0824 -0.2236
  126CHL1  H12A15542   4.347   4.899  13.897 -0.6276 -0.3618  0.2007
  126CHL1  H12B15543   4.184   4.958  13.830 -0.1378 -0.6213  0.7720
  126CHL1   C1115544   4.355   5.035  13.732  0.3582 -0.7335  0.0926
  126CHL1  H11A15545   4.458   5.069  13.754  0.0125  2.1607 -2.1580
  126CHL1  H11B15546   4.345   4.947  13.665  0.1756 -0.9943  0.4622
  126CHL1    C915547   4.288   5.163  13.669 -0.2041 -0.4963  0.0907
  126CHL1    H915548   4.181   5.133  13.665 -0.3608 -0.9156  3.8931
  126CHL1   C1015549   4.342   5.204  13.529  0.5503  0.4107 -0.8948
  126CHL1   C1915550   4.495   5.225  13.541 -0.4928 -0.4956  0.1313
  126CHL1  H19A15551   4.537   5.254  13.442  0.1938 -1.9571 -0.0435
  126CHL1  H19B15552   4.525   5.298  13.619  1.9627 -2.3249  1.0206
  126CHL1  H19C15553   4.530   5.123  13.568 -1.6411 -0.7188  0.8252
  126CHL1    C115554   4.300   5.103  13.424  0.2653 -0.2134  0.6478
  126CHL1   H1A15555   4.342   5.004  13.452  0.2470 -0.3687  0.1180
  126CHL1   H1B15556   4.189   5.097  13.430  0.0458  2.6952  1.0065
  126CHL1    C215557   4.354   5.136  13.288 -0.7416 -0.1752  0.0439
  126CHL1   H2A15558   4.312   5.066  13.213  0.7337  1.5305 -2.5465
  126CHL1   H2B15559   4.465   5.138  13.282 -0.6623  1.9882  1.3079
  126CHL1   C2015560   4.231   4.995  14.211 -0.3265 -0.0240 -0.2178
  126CHL1   H2015561   4.329   5.033  14.248  1.2414 -0.9761 -3.0739
  126CHL1   C2115562   4.242   4.841  14.176 -0.6295 -0.4608 -0.3368
  126CHL1  H21A15563   4.315   4.827  14.093  0.8426 -0.3371  0.9056
  126CHL1  H21B15564   4.147   4.794  14.142 -0.6257  0.0002 -1.0133
  126CHL1  H21C15565   4.281   4.788  14.265  0.0731  2.1046  0.9841
  126CHL1   C2215566   4.132   5.001  14.335  0.1599 -0.0314 -1.2661
  126CHL1  H22A15567   4.173   4.936  14.416 -1.1371 -1.8289 -1.9880
  126CHL1  H22B15568   4.136   5.101  14.383 -1.6543 -0.8854  0.8447
  126CHL1   C2315569   3.988   4.957  14.305 -0.6843 -0.3966  0.4802
  126CHL1  H23A15570   3.919   5.042  14.324 -2.5547 -2.0071  1.2198
  126CHL1  H23B15571   3.979   4.926  14.198  1.4492 -0.4082  0.2582
  126CHL1   C2415572   3.939   4.849  14.398  0.7882 -0.1430  0.2052
  126CHL1  H24A15573   3.983   4.753  14.363 -0.8651 -0.2919 -1.6366
  126CHL1  H24B15574   3.969   4.869  14.503 -1.6848 -1.3249  1.2070
  126CHL1   C2515575   3.788   4.826  14.409  0.5947  0.4737  0.2269
  126CHL1   H2515576   3.730   4.919  14.426 -1.9377 -1.2579  1.9084
  126CHL1   C2615577   3.725   4.759  14.282 -0.5587  0.5720 -0.0944
  126CHL1  H26A15578   3.748   4.650  14.277 -1.2037  0.4729 -2.3344
  126CHL1  H26B15579   3.617   4.778  14.261 -0.7510  0.7325  1.0049
  126CHL1  H26C15580   3.780   4.791  14.191 -0.3451 -2.3189 -1.0948
  126CHL1   C2715581   3.753   4.739  14.538  0.1836 -0.2894  0.4822
  126CHL1  H27A15582   3.645   4.752  14.561  0.1638  0.4367  0.0225
  126CHL1  H27B15583   3.769   4.630  14.521 -0.2563 -0.3535  0.4687
  126CHL1  H27C15584   3.798   4.771  14.634 -1.0799 -0.0900  1.0273
  127CHL1    C315585   5.280   6.185  13.271  0.4928 -0.1868 -0.3445
  127CHL1    H315586   5.385   6.187  13.309  0.2597 -0.3113  0.3139
  127CHL1    O315587   5.270   6.236  13.140  0.6334 -0.1887 -0.8035
  127CHL1   H3'15588   5.176   6.231  13.117  0.5996  1.4113 -1.1474
  127CHL1    C415589   5.225   6.047  13.284  0.2088  0.3698 -0.4359
  127CHL1   H4A15590   5.123   6.046  13.241  0.5740  0.5137 -1.3387
  127CHL1   H4B15591   5.284   5.986  13.212  3.1140  0.0390  2.0163
  127CHL1    C515592   5.217   5.993  13.421 -0.0194  0.1687 -0.4117
  127CHL1    C615593   5.283   5.882  13.467 -0.5564 -0.6015  1.1917
  127CHL1    H615594   5.338   5.817  13.397 -1.3703  0.2355 -0.2721
  127CHL1    C715595   5.268   5.829  13.609  0.3106 -0.0452 -0.4625
  127CHL1   H7A15596   5.257   5.718  13.604 -0.9391 -0.2555  3.5064
  127CHL1   H7B15597   5.365   5.850  13.660  0.0297 -0.4342  0.2436
  127CHL1    C815598   5.162   5.902  13.692 -0.1970 -0.2402  0.3008
  127CHL1    H815599   5.064   5.859  13.662  0.1789 -0.3708 -0.7870
  127CHL1   C1415600   5.179   5.867  13.836 -0.0112 -0.1499 -0.2634
  127CHL1   H1415601   5.277   5.894  13.880 -0.0906 -2.0005  1.1774
  127CHL1   C1515602   5.165   5.721  13.874 -0.0072  0.4933  0.1049
  127CHL1  H15A15603   5.092   5.673  13.807  0.8883 -1.8879  0.7376
  127CHL1  H15B15604   5.265   5.673  13.868  1.6502  3.5992  0.6071
  127CHL1   C1615605   5.105   5.712  14.014 -1.0325 -0.1760  0.4721
  127CHL1  H16A15606   5.004   5.666  14.011 -1.2471  0.2175  1.3937
  127CHL1  H16B15607   5.174   5.660  14.084 -1.0717 -1.5618 -0.4717
  127CHL1   C1715608   5.088   5.860  14.062 -0.0305  0.3212  0.2608
  127CHL1   H1715609   5.190   5.878  14.102  0.0663 -0.8741  0.5979
  127CHL1   C1315610   5.068   5.935  13.923 -0.1291 -0.6646  0.0135
  127CHL1   C1815611   4.920   5.905  13.872  0.5566  0.6532  0.1622
  127CHL1  H18A15612   4.852   5.951  13.947  0.0229 -0.2091  0.2125
  127CHL1  H18B15613   4.898   5.956  13.776 -1.6827  1.4885  1.0448
  127CHL1  H18C15614   4.902   5.796  13.858  1.5781  0.7891 -3.1098
  127CHL1   C1215615   5.102   6.082  13.918 -0.0109 -0.2415  0.0054
  127CHL1  H12A15616   5.020   6.143  13.961  0.5685  0.9916 -0.5746
  127CHL1  H12B15617   5.206   6.104  13.951  1.1173 -0.9092 -2.7784
  127CHL1   C1115618   5.094   6.139  13.778 -0.3309 -0.2230 -0.5556
  127CHL1  H11A15619   4.991   6.139  13.736 -0.4860 -0.2092 -0.1807
  127CHL1  H11B15620   5.121   6.246  13.767 -0.0762 -0.3461 -1.1666
  127CHL1    C915621   5.177   6.052  13.678  0.0619 -0.7801  0.4519
  127CHL1    H915622   5.283   6.078  13.700  0.3354 -2.4534  1.2351
  127CHL1   C1015623   5.152   6.089  13.528  0.0386  0.8858 -0.5715
  127CHL1   C1915624   4.996   6.075  13.490  0.2973  0.0240  0.1314
  127CHL1  H19A15625   4.933   6.150  13.541 -2.9837 -3.0165  0.9904
  127CHL1  H19B15626   4.984   6.094  13.381  1.7382  0.7078  0.0754
  127CHL1  H19C15627   4.959   5.974  13.519  1.0828 -0.2123  0.3274
  127CHL1    C115628   5.209   6.228  13.507  0.3515 -0.0086 -0.1828
  127CHL1   H1A15629   5.151   6.298  13.570  0.6394  0.6534 -0.6430
  127CHL1   H1B15630   5.315   6.231  13.542  0.1296  1.1257  0.4332
  127CHL1    C215631   5.202   6.283  13.365 -0.1851  0.1862  0.2522
  127CHL1   H2A15632   5.244   6.386  13.361 -0.2851  0.1935 -1.1625
  127CHL1   H2B15633   5.096   6.290  13.332 -0.1741 -1.2309 -0.1380
  127CHL1   C2015634   4.978   5.887  14.168  0.5033  0.1518  0.1671
  127CHL1   H2015635   4.872   5.876  14.137  0.0399  0.6762  1.4940
  127CHL1   C2115636   4.978   6.037  14.211  0.1962  0.5686 -0.0927
  127CHL1  H21A15637   4.909   6.048  14.297  2.2377  1.4877  1.5243
  127CHL1  H21B15638   4.951   6.113  14.134  1.3342 -0.0495 -1.1293
  127CHL1  H21C15639   5.080   6.053  14.253  0.0677  1.0273  0.0456
  127CHL1   C2215640   4.997   5.791  14.289  0.8628 -0.1407  0.6511
  127CHL1  H22A15641   4.902   5.805  14.343  0.6546 -0.6313  0.4167
  127CHL1  H22B15642   4.993   5.688  14.248  0.6064  0.2653 -0.3643
  127CHL1   C2315643   5.118   5.811  14.382 -0.1334 -0.2272  0.0512
  127CHL1  H23A15644   5.209   5.793  14.322 -0.9859  3.6752 -2.8339
  127CHL1  H23B15645   5.120   5.921  14.396  0.7860 -0.1900 -0.3511
  127CHL1   C2415646   5.106   5.737  14.512 -0.1387 -0.3195 -1.0179
  127CHL1  H24A15647   5.094   5.630  14.485 -1.9320 -0.5807  0.6487
  127CHL1  H24B15648   5.205   5.735  14.563 -1.0661 -1.0558  0.8237
  127CHL1   C2515649   4.997   5.786  14.610  0.0614 -0.1070 -0.4643
  127CHL1   H2515650   4.904   5.808  14.554 -0.6800 -2.0573 -0.0701
  127CHL1   C2615651   4.953   5.670  14.706 -0.2017  0.9664 -0.1600
  127CHL1  H26A15652   5.047   5.637  14.757 -0.2458  2.4514  0.9580
  127CHL1  H26B15653   4.884   5.697  14.788 -0.5713  0.3259 -0.2494
  127CHL1  H26C15654   4.910   5.587  14.645  1.3303  0.6580 -0.8852
  127CHL1   C2715655   5.047   5.904  14.701  0.3020  0.0394  0.0280
  127CHL1  H27A15656   5.079   5.992  14.641  2.6533 -0.5234  0.3539
  127CHL1  H27B15657   4.970   5.930  14.777  0.7739 -1.0678  0.9198
  127CHL1  H27C15658   5.138   5.868  14.753  0.8762  2.1833  0.6292
  128CHL1    C315659   3.704   0.996  13.203  0.3365 -0.2508 -0.5531
  128CHL1    H315660   3.685   0.887  13.217 -2.2121  0.1381 -0.5781
  128CHL1    O315661   3.705   1.033  13.062  0.1066  0.5737  0.0240
  128CHL1   H3'15662   3.725   1.125  13.046  1.2918  0.3010 -0.1861
  128CHL1    C415663   3.592   1.077  13.272  0.0953  0.3263 -0.0976
  128CHL1   H4A15664   3.606   1.184  13.243  0.7691  0.2092 -0.2275
  128CHL1   H4B15665   3.496   1.053  13.223 -1.2936  1.8450  1.7440
  128CHL1    C515666   3.598   1.055  13.423 -0.9786  0.1785  0.1192
  128CHL1    C615667   3.493   1.004  13.487 -0.1826 -0.0840 -0.2967
  128CHL1    H615668   3.415   0.958  13.424  0.8409 -0.1955 -1.5256
  128CHL1    C715669   3.495   0.971  13.637 -0.1199 -0.4278 -0.0254
  128CHL1   H7A15670   3.392   0.990  13.676 -0.8022 -0.6033 -1.6565
  128CHL1   H7B15671   3.524   0.866  13.662 -0.5892 -0.9832 -1.6694
  128CHL1    C815672   3.604   1.054  13.716  0.0216  0.6943 -0.7001
  128CHL1    H815673   3.569   1.158  13.731 -0.7159  0.1921  1.3838
  128CHL1   C1415674   3.607   0.981  13.845  0.0299 -0.5539 -0.6063
  128CHL1   H1415675   3.654   0.880  13.836 -1.2811 -1.2003 -0.5220
  128CHL1   C1515676   3.476   0.965  13.931 -0.5371  0.6035  0.9986
  128CHL1  H15A15677   3.405   1.044  13.898 -1.2894 -0.7526 -0.7969
  128CHL1  H15B15678   3.425   0.870  13.904  0.9157 -1.0578  3.6531
  128CHL1   C1615679   3.521   0.969  14.074 -0.5079  0.7479 -0.1243
  128CHL1  H16A15680   3.486   1.058  14.130  1.7427 -0.7002  4.0164
  128CHL1  H16B15681   3.488   0.879  14.130 -0.6043  1.0379  0.2876
  128CHL1   C1715682   3.681   0.984  14.070 -0.5047 -0.2473 -0.5926
  128CHL1   H1715683   3.705   0.875  14.067 -2.0460 -0.6043 -0.5146
  128CHL1   C1315684   3.711   1.046  13.937  0.5035 -0.0302 -0.1322
  128CHL1   C1815685   3.685   1.197  13.961  0.3150 -0.0295 -0.3220
  128CHL1  H18A15686   3.689   1.254  13.865 -1.1712  1.2947  0.3554
  128CHL1  H18B15687   3.580   1.211  13.994  0.7405  1.9845  0.2875
  128CHL1  H18C15688   3.757   1.240  14.033 -0.4875  1.3422 -0.3110
  128CHL1   C1215689   3.847   1.029  13.873 -0.0463 -0.1561 -0.0574
  128CHL1  H12A15690   3.924   1.070  13.941 -2.2062  1.4745  1.5580
  128CHL1  H12B15691   3.870   0.922  13.853  0.5448 -0.2314  0.9673
  128CHL1   C1115692   3.858   1.085  13.730  0.7365  0.5054 -0.4295
  128CHL1  H11A15693   3.854   1.196  13.739 -1.7388  0.3024  2.2200
  128CHL1  H11B15694   3.959   1.060  13.691  0.9865 -0.5632  0.8665
  128CHL1    C915695   3.737   1.041  13.642 -0.0692  0.0621 -0.0528
  128CHL1    H915696   3.759   0.932  13.636  1.1932  0.2260  1.1531
  128CHL1   C1015697   3.729   1.091  13.496 -0.6944  0.5240  1.2421
  128CHL1   C1915698   3.717   1.246  13.508  0.0577 -0.7219 -0.4993
  128CHL1  H19A15699   3.637   1.281  13.577  0.8336  0.1762 -0.0338
  128CHL1  H19B15700   3.809   1.294  13.546 -0.1024 -0.6259 -0.2268
  128CHL1  H19C15701   3.691   1.293  13.411  1.8844  2.4989  0.4231
  128CHL1    C115702   3.850   1.035  13.415  0.6505  0.2272 -0.3684
  128CHL1   H1A15703   3.948   1.071  13.454 -0.1515  0.9659  1.0480
  128CHL1   H1B15704   3.844   0.927  13.438  0.8080  0.3274  0.1625
  128CHL1    C215705   3.841   1.053  13.266  0.6980  0.2413  0.0962
  128CHL1   H2A15706   3.931   1.007  13.220  1.3325  1.1040  0.4339
  128CHL1   H2B15707   3.842   1.162  13.244  0.6356  0.4272  0.9967
  128CHL1   C2015708   3.740   1.038  14.204  0.3440  0.1343 -0.5117
  128CHL1   H2015709   3.712   1.144  14.219 -2.2760 -0.7304  1.3638
  128CHL1   C2115710   3.898   1.021  14.204  0.1324 -0.5156  0.2525
  128CHL1  H21A15711   3.920   0.926  14.151  1.6540 -0.7998  1.3175
  128CHL1  H21B15712   3.940   1.018  14.307 -0.5069  0.0769  0.5353
  128CHL1  H21C15713   3.934   1.107  14.143  1.0077 -0.2353  1.1431
  128CHL1   C2215714   3.675   0.963  14.325 -0.7315  0.2593  0.5462
  128CHL1  H22A15715   3.722   1.021  14.407 -1.5938  0.4780  0.8988
  128CHL1  H22B15716   3.569   0.997  14.331 -1.4935 -1.7377 -0.6524
  128CHL1   C2315717   3.685   0.811  14.339  0.2178  0.3113  0.0909
  128CHL1  H23A15718   3.646   0.762  14.247  0.2414 -0.9684  0.7489
  128CHL1  H23B15719   3.788   0.772  14.337 -0.5022 -1.6788  0.0968
  128CHL1   C2415720   3.635   0.733  14.470  0.3453  0.1298 -0.5919
  128CHL1  H24A15721   3.701   0.645  14.485 -1.1472 -0.8891  0.2765
  128CHL1  H24B15722   3.650   0.802  14.556  0.0257  0.7433 -1.0215
  128CHL1   C2515723   3.491   0.677  14.468  0.1375 -0.1542  0.3819
  128CHL1   H2515724   3.480   0.613  14.377  0.3642  0.2031  0.0965
  128CHL1   C2615725   3.461   0.585  14.583  0.1396 -0.0142 -0.3768
  128CHL1  H26A15726   3.357   0.548  14.568  0.0286 -1.0028  2.3024
  128CHL1  H26B15727   3.530   0.498  14.578  1.3791  0.8594  0.8214
  128CHL1  H26C15728   3.470   0.637  14.680  0.9948  0.1730 -0.5499
  128CHL1   C2715729   3.396   0.798  14.458 -0.0509 -0.1845 -0.1817
  128CHL1  H27A15730   3.396   0.836  14.354  0.1790 -1.3392 -0.6118
  128CHL1  H27B15731   3.300   0.764  14.503 -0.1450  1.0125  0.5827
  128CHL1  H27C15732   3.427   0.882  14.524  0.2454 -0.4690  0.0411
  129CHL1    C315733   7.538   5.797  13.284 -0.9025 -0.5509 -0.0119
  129CHL1    H315734   7.439   5.824  13.327 -0.1017 -0.4386  1.8753
  129CHL1    O315735   7.534   5.839  13.149 -0.6234 -0.4672 -0.3542
  129CHL1   H3'15736   7.613   5.815  13.100 -0.9489  0.5859 -1.4508
  129CHL1    C415737   7.642   5.872  13.372 -0.0534  0.2418 -0.3819
  129CHL1   H4A15738   7.739   5.856  13.321  0.0020  1.0034 -0.5217
  129CHL1   H4B15739   7.634   5.981  13.351  0.0776  0.7056  1.7509
  129CHL1    C515740   7.630   5.834  13.519  0.2332 -0.4181 -0.8335
  129CHL1    C615741   7.599   5.923  13.615  0.0398  0.9950 -0.3933
  129CHL1    H615742   7.599   6.029  13.588  0.3984  0.9462 -0.5921
  129CHL1    C715743   7.605   5.889  13.762  0.8651 -0.4766  0.1103
  129CHL1   H7A15744   7.666   5.959  13.823 -0.5377 -0.7542  1.9141
  129CHL1   H7B15745   7.507   5.886  13.814  1.8414 -2.7064  1.9656
  129CHL1    C815746   7.664   5.752  13.797  0.2781 -0.1060 -0.5098
  129CHL1    H815747   7.775   5.751  13.802  0.2227 -0.8077  1.4755
  129CHL1   C1415748   7.612   5.705  13.932  0.3433  0.3484 -0.0414
  129CHL1   H1415749   7.504   5.686  13.915  0.3071 -0.1436  0.6793
  129CHL1   C1515750   7.634   5.800  14.051  0.1543  1.0130 -0.9197
  129CHL1  H15A15751   7.744   5.813  14.059  0.3293 -0.1589 -1.2417
  129CHL1  H15B15752   7.571   5.891  14.058 -1.4784 -0.1806  2.9352
  129CHL1   C1615753   7.612   5.701  14.178 -0.3408  0.1581 -0.1341
  129CHL1  H16A15754   7.707   5.701  14.236 -0.8405 -1.9829  0.7596
  129CHL1  H16B15755   7.526   5.728  14.244 -0.8588 -0.3984 -0.5722
  129CHL1   C1715756   7.597   5.557  14.120  0.7338  0.1552 -0.4894
  129CHL1   H1715757   7.491   5.536  14.095  0.7138 -1.4714  0.7962
  129CHL1   C1315758   7.661   5.567  13.984  0.5144 -0.3861  0.4739
  129CHL1   C1815759   7.812   5.570  14.000  0.8179  0.1105  0.2119
  129CHL1  H18A15760   7.851   5.627  14.086  1.6418 -1.0920  0.6550
  129CHL1  H18B15761   7.849   5.466  14.013  0.6060  0.0186  0.0976
  129CHL1  H18C15762   7.858   5.591  13.901 -3.3111  0.2238 -1.9282
  129CHL1   C1215763   7.623   5.458  13.875 -0.1809 -0.5742  0.5340
  129CHL1  H12A15764   7.675   5.363  13.899 -0.5095 -0.5286  1.4804
  129CHL1  H12B15765   7.513   5.443  13.873 -0.5304  1.3080  2.2045
  129CHL1   C1115766   7.664   5.511  13.739  0.0804  0.0382  0.6116
  129CHL1  H11A15767   7.775   5.509  13.744  0.2427  0.3600 -1.7368
  129CHL1  H11B15768   7.638   5.441  13.656  0.1664  0.5313  0.1628
  129CHL1    C915769   7.625   5.644  13.698  0.8715 -0.4104  0.4298
  129CHL1    H915770   7.514   5.651  13.694  0.9621  0.4424 -1.4339
  129CHL1   C1015771   7.652   5.683  13.549 -0.2685 -0.3942 -0.8687
  129CHL1   C1915772   7.798   5.654  13.518  0.9550 -1.0688 -0.2923
  129CHL1  H19A15773   7.854   5.706  13.600 -0.9247  1.1710 -0.3233
  129CHL1  H19B15774   7.816   5.546  13.533 -1.8090 -1.3025  2.3385
  129CHL1  H19C15775   7.836   5.690  13.421  1.1231  0.8536  0.4400
  129CHL1    C115776   7.554   5.609  13.458 -0.4000 -0.1356  0.5588
  129CHL1   H1A15777   7.566   5.499  13.470  0.1711 -0.1750 -0.2682
  129CHL1   H1B15778   7.453   5.637  13.496  0.4389  1.0397  2.0218
  129CHL1    C215779   7.559   5.642  13.311 -0.2980 -0.0740  0.2596
  129CHL1   H2A15780   7.473   5.596  13.258 -0.0371  0.1571 -0.3710
  129CHL1   H2B15781   7.657   5.623  13.262  1.2224 -0.1129  3.1249
  129CHL1   C2015782   7.635   5.436  14.212 -0.5399 -0.6088 -0.1494
  129CHL1   H2015783   7.736   5.399  14.183  0.1881 -0.3248  1.8567
  129CHL1   C2115784   7.548   5.320  14.163 -0.2074  1.4144 -0.4612
  129CHL1  H21A15785   7.442   5.343  14.186  0.1154  2.0155  0.5109
  129CHL1  H21B15786   7.573   5.221  14.208 -2.0589 -0.1007 -2.5669
  129CHL1  H21C15787   7.559   5.297  14.055  0.7415 -2.5270  0.3128
  129CHL1   C2215788   7.620   5.469  14.364 -0.6719  0.1418 -0.1609
  129CHL1  H22A15789   7.700   5.541  14.392 -0.7056  0.4084 -0.7239
  129CHL1  H22B15790   7.523   5.521  14.378 -0.7461  0.2613 -1.0463
  129CHL1   C2315791   7.634   5.344  14.453  0.4120 -0.0639 -0.0912
  129CHL1  H23A15792   7.572   5.264  14.406  0.2591 -0.8688  1.4320
  129CHL1  H23B15793   7.735   5.299  14.446 -0.2457 -1.9988  1.6746
  129CHL1   C2415794   7.582   5.370  14.597 -0.2347 -0.0951 -0.1866
  129CHL1  H24A15795   7.637   5.458  14.638  0.9040 -1.4376  1.3212
  129CHL1  H24B15796   7.477   5.404  14.602 -0.2161 -0.0453 -0.1392
  129CHL1   C2515797   7.583   5.246  14.701  0.2087  0.3988  0.4356
  129CHL1   H2515798   7.687   5.207  14.712  0.0163 -0.1828  0.2272
  129CHL1   C2615799   7.545   5.303  14.837  0.4296 -0.2368 -0.6424
  129CHL1  H26A15800   7.635   5.349  14.884  0.7189 -2.4784  1.1469
  129CHL1  H26B15801   7.469   5.380  14.812  2.1304  0.4337 -4.4626
  129CHL1  H26C15802   7.495   5.227  14.901 -0.0547  0.0339 -0.6874
  129CHL1   C2715803   7.492   5.136  14.653 -0.1237 -0.4775  0.5370
  129CHL1  H27A15804   7.391   5.181  14.644 -0.6092 -1.1169  2.4440
  129CHL1  H27B15805   7.514   5.096  14.552 -2.9209 -0.9513  0.0366
  129CHL1  H27C15806   7.474   5.065  14.737 -1.2391  1.9333  2.4868
  130CHL1    C315807   4.544   6.277  13.233 -0.2460  0.6654 -0.1260
  130CHL1    H315808   4.539   6.387  13.244 -0.6831  0.7737 -1.2510
  130CHL1    O315809   4.553   6.228  13.100 -0.2884 -0.3989 -0.0513
  130CHL1   H3'15810   4.575   6.135  13.102 -0.9341 -0.6033 -1.2696
  130CHL1    C415811   4.665   6.237  13.323  0.4028 -0.9407  0.1992
  130CHL1   H4A15812   4.675   6.127  13.315 -3.5154 -1.5107  0.9624
  130CHL1   H4B15813   4.754   6.281  13.274 -0.5859 -3.2607 -4.2036
  130CHL1    C515814   4.652   6.274  13.466 -0.4666  0.7118  0.5930
  130CHL1    C615815   4.749   6.340  13.526 -0.2659  0.1883  0.2119
  130CHL1    H615816   4.834   6.388  13.476  1.8246 -1.3232  2.0832
  130CHL1    C715817   4.744   6.360  13.675  0.5659 -0.3147  0.3807
  130CHL1   H7A15818   4.838   6.340  13.732  1.7030  0.2092 -1.2264
  130CHL1   H7B15819   4.721   6.467  13.692 -1.5835 -0.5437 -0.8253
  130CHL1    C815820   4.631   6.283  13.750 -0.0766  0.6314  0.2336
  130CHL1    H815821   4.662   6.177  13.755 -0.4029  0.5409  0.3834
  130CHL1   C1415822   4.612   6.338  13.887  0.1504 -0.2669 -0.1314
  130CHL1   H1415823   4.567   6.439  13.883  1.4785  0.3574  0.1271
  130CHL1   C1515824   4.738   6.350  13.980 -0.5607  0.3146  0.4005
  130CHL1  H15A15825   4.816   6.275  13.952 -0.5498  0.1286  0.9122
  130CHL1  H15B15826   4.781   6.452  13.985  0.1762 -0.0199  1.2655
  130CHL1   C1615827   4.688   6.331  14.122 -0.5772 -0.6334 -0.1916
  130CHL1  H16A15828   4.740   6.246  14.173  0.2529 -0.0435 -0.0286
  130CHL1  H16B15829   4.702   6.418  14.189  0.3631 -0.3436 -0.7462
  130CHL1   C1715830   4.539   6.307  14.104  0.3541 -0.0649 -0.4842
  130CHL1   H1715831   4.500   6.410  14.104  1.5809  0.4261 -1.5621
  130CHL1   C1315832   4.512   6.249  13.962 -0.3144 -0.1432 -0.1649
  130CHL1   C1815833   4.548   6.097  13.965 -0.7315  0.0785  0.6513
  130CHL1  H18A15834   4.478   6.031  14.020  0.8912 -1.2306  1.2296
  130CHL1  H18B15835   4.550   6.051  13.864  0.6642 -0.9131  1.0945
  130CHL1  H18C15836   4.645   6.080  14.016  0.3668 -1.4705 -1.7493
  130CHL1   C1215837   4.378   6.269  13.882 -0.0198 -0.4406 -0.1109
  130CHL1  H12A15838   4.288   6.231  13.934 -1.1171  1.9087 -0.1614
  130CHL1  H12B15839   4.358   6.376  13.861 -2.3582 -0.3093  2.3406
  130CHL1   C1115840   4.381   6.218  13.739 -0.1566 -0.1716  0.1262
  130CHL1  H11A15841   4.391   6.109  13.752  0.0914 -0.0264  1.2652
  130CHL1  H11B15842   4.287   6.247  13.687 -0.0699 -0.8411 -0.4164
  130CHL1    C915843   4.502   6.277  13.662  0.2347  0.6967  0.3182
  130CHL1    H915844   4.485   6.387  13.664  1.4676  0.9185  3.5247
  130CHL1   C1015845   4.523   6.216  13.527 -0.2924 -0.0287  0.2111
  130CHL1   C1915846   4.530   6.064  13.533  0.5963  0.1750 -0.0660
  130CHL1  H19A15847   4.431   6.015  13.523 -0.4948  2.1824  0.2357
  130CHL1  H19B15848   4.602   6.020  13.461 -0.0915  2.2304 -2.1377
  130CHL1  H19C15849   4.575   6.045  13.633 -0.4040 -0.3430  0.3013
  130CHL1    C115850   4.400   6.249  13.441 -0.1346 -0.6803 -0.2951
  130CHL1   H1A15851   4.307   6.193  13.465 -1.0616  0.4530 -1.1093
  130CHL1   H1B15852   4.381   6.359  13.446  2.0761 -0.2123 -0.9030
  130CHL1    C215853   4.420   6.216  13.295  0.0886 -0.3791 -0.6008
  130CHL1   H2A15854   4.329   6.256  13.245 -0.6391 -2.3755 -0.9742
  130CHL1   H2B15855   4.424   6.105  13.288 -0.4906 -0.3882 -0.7697
  130CHL1   C2015856   4.467   6.234  14.227 -0.3849 -0.7693 -0.1136
  130CHL1   H2015857   4.518   6.135  14.229 -1.0018 -1.0933  0.0904
  130CHL1   C2115858   4.319   6.219  14.212  0.4101  0.3202  0.1630
  130CHL1  H21A15859   4.269   6.211  14.311  2.4234 -0.5199  1.1718
  130CHL1  H21B15860   4.295   6.123  14.163 -0.2677 -0.4813  1.9698
  130CHL1  H21C15861   4.271   6.301  14.154 -0.2001  0.6809  1.1380
  130CHL1   C2215862   4.494   6.310  14.358 -0.7623  0.3961 -0.2019
  130CHL1  H22A15863   4.450   6.236  14.429 -0.1739 -1.6363 -1.8801
  130CHL1  H22B15864   4.602   6.306  14.381 -0.2222  3.2208 -1.7547
  130CHL1   C2315865   4.439   6.453  14.366  0.1532 -0.5905 -0.1436
  130CHL1  H23A15866   4.510   6.515  14.306  1.4916 -1.8946  0.0274
  130CHL1  H23B15867   4.339   6.462  14.319  0.0626 -0.8563 -0.0015
  130CHL1   C2415868   4.446   6.503  14.509  0.0916 -0.6001 -0.6443
  130CHL1  H24A15869   4.380   6.437  14.570 -4.3317  2.7983 -1.2691
  130CHL1  H24B15870   4.552   6.509  14.541  0.0456  0.5074 -0.6939
  130CHL1   C2515871   4.395   6.647  14.543 -0.3476  0.1472  0.0732
  130CHL1   H2515872   4.305   6.662  14.481 -1.3264 -0.8212  1.2123
  130CHL1   C2615873   4.350   6.671  14.690  0.0247 -0.8079  0.1740
  130CHL1  H26A15874   4.271   6.594  14.699 -0.4941 -0.2778  0.1820
  130CHL1  H26B15875   4.430   6.661  14.767 -0.6364 -3.1408  0.6320
  130CHL1  H26C15876   4.317   6.778  14.693 -2.9195 -1.5724 -1.0816
  130CHL1   C2715877   4.500   6.757  14.498  0.6919  0.1725  0.3842
  130CHL1  H27A15878   4.463   6.860  14.519  2.5470  0.6962  1.3089
  130CHL1  H27B15879   4.592   6.741  14.558  0.9033 -1.1720 -0.2643
  130CHL1  H27C15880   4.532   6.749  14.392 -1.6268 -2.1028 -0.2342
  131CHL1    C315881   2.177   5.297  13.156  0.4478 -0.4874 -0.6666
  131CHL1    H315882   2.128   5.200  13.131 -0.1548 -0.3222 -0.1541
  131CHL1    O315883   2.184   5.378  13.044  0.1815  0.5413 -0.0377
  131CHL1   H3'15884   2.275   5.361  13.019 -0.0259 -0.4980 -0.1364
  131CHL1    C415885   2.083   5.359  13.257 -0.4521 -0.0028 -0.0076
  131CHL1   H4A15886   2.089   5.469  13.270 -1.7573  0.3793 -2.1572
  131CHL1   H4B15887   1.985   5.357  13.203 -0.3173  0.2844 -0.2666
  131CHL1    C515888   2.071   5.276  13.384  0.4036 -0.5184  0.2917
  131CHL1    C615889   1.952   5.224  13.424 -0.5506  0.1446  0.0269
  131CHL1    H615890   1.864   5.248  13.362 -0.1261 -0.6781 -0.9249
  131CHL1    C715891   1.932   5.163  13.560  0.1592 -0.3965 -0.5998
  131CHL1   H7A15892   1.829   5.184  13.595  1.0387  1.4161  1.0995
  131CHL1   H7B15893   1.944   5.053  13.549 -1.4683 -0.6283 -0.3182
  131CHL1    C815894   2.047   5.210  13.654 -0.0667 -0.3904  0.3138
  131CHL1    H815895   2.030   5.318  13.675  0.0031 -0.4147  0.5006
  131CHL1   C1415896   2.033   5.131  13.787  0.8782 -0.1902 -0.8178
  131CHL1   H1415897   2.030   5.020  13.778 -1.2591 -0.2863  0.4029
  131CHL1   C1515898   1.900   5.150  13.863 -0.4686 -0.6337  0.0057
  131CHL1  H15A15899   1.877   5.258  13.869 -0.6287 -0.4669 -2.7030
  131CHL1  H15B15900   1.811   5.095  13.826 -0.8283  0.2947 -0.5500
  131CHL1   C1615901   1.940   5.100  14.006  1.0138  0.3934  0.9026
  131CHL1  H16A15902   1.901   5.183  14.070  0.2907  2.1183 -1.5950
  131CHL1  H16B15903   1.876   5.012  14.030  0.4812  0.1195 -1.3565
  131CHL1   C1715904   2.091   5.076  14.008 -0.5453  0.9454 -0.0501
  131CHL1   H1715905   2.115   4.972  13.976 -2.6412  0.3810  0.1000
  131CHL1   C1315906   2.145   5.160  13.893  0.7815 -0.7868  0.3288
  131CHL1   C1815907   2.157   5.309  13.934  0.1890 -0.1066  0.4052
  131CHL1  H18A15908   2.068   5.345  13.990  1.0928 -0.1687  1.9414
  131CHL1  H18B15909   2.247   5.336  13.993  1.3818  2.7258 -2.4197
  131CHL1  H18C15910   2.162   5.368  13.839 -0.3802 -2.1803 -0.9838
  131CHL1   C1215911   2.276   5.114  13.819  0.1626  0.4434 -0.3184
  131CHL1  H12A15912   2.367   5.125  13.882  0.4413  1.9138 -0.9500
  131CHL1  H12B15913   2.269   5.006  13.795 -1.4549 -0.1577  2.4159
  131CHL1   C1115914   2.300   5.193  13.689  0.2019 -0.8348  0.3584
  131CHL1  H11A15915   2.319   5.299  13.715  0.1394 -0.0571 -2.4449
  131CHL1  H11B15916   2.394   5.149  13.648  0.5420 -1.9139  2.1997
  131CHL1    C915917   2.179   5.190  13.590 -0.2419 -0.0366 -0.0660
  131CHL1    H915918   2.173   5.084  13.559  1.6200 -1.0468  2.7057
  131CHL1   C1015919   2.197   5.272  13.463  0.2708 -0.1884 -0.3737
  131CHL1   C1915920   2.242   5.419  13.499 -0.2774  0.3069 -0.5511
  131CHL1  H19A15921   2.341   5.425  13.551 -1.3871  0.7759  1.6173
  131CHL1  H19B15922   2.257   5.492  13.417  0.2495 -0.2564 -0.9682
  131CHL1  H19C15923   2.164   5.448  13.573  0.7522 -1.7765  1.5037
  131CHL1    C115924   2.304   5.202  13.365  0.2224 -0.2851 -0.1689
  131CHL1   H1A15925   2.404   5.213  13.412 -0.3620 -0.1096  1.0841
  131CHL1   H1B15926   2.280   5.095  13.347 -1.6374  0.1237 -0.3611
  131CHL1    C215927   2.313   5.264  13.223  0.5639 -0.3932 -0.5163
  131CHL1   H2A15928   2.381   5.222  13.147 -1.3889 -0.0725 -2.5452
  131CHL1   H2B15929   2.342   5.367  13.252 -3.1403  0.9283 -0.9327
  131CHL1   C2015930   2.148   5.093  14.146  0.1560  0.7174  0.2034
  131CHL1   H2015931   2.120   5.192  14.186  1.9029  2.0663 -1.7133
  131CHL1   C2115932   2.300   5.067  14.146 -0.1412 -0.3262 -0.8684
  131CHL1  H21A15933   2.351   5.150  14.092  0.9706 -1.3243 -1.3754
  131CHL1  H21B15934   2.322   4.971  14.096 -2.9440 -1.4323 -0.2126
  131CHL1  H21C15935   2.341   5.066  14.249  0.8675 -1.1116 -1.2650
  131CHL1   C2215936   2.069   4.993  14.242  0.1086 -0.3870  0.4747
  131CHL1  H22A15937   1.972   5.046  14.257  0.3008  0.5706 -1.4200
  131CHL1  H22B15938   2.065   4.900  14.181 -0.0924  0.3218 -0.6127
  131CHL1   C2315939   2.128   4.996  14.386 -0.1328 -0.0476  0.4982
  131CHL1  H23A15940   2.220   4.935  14.379 -0.3208 -0.1700 -1.4243
  131CHL1  H23B15941   2.153   5.103  14.403  1.0415  0.0361 -1.4717
  131CHL1   C2415942   2.032   4.930  14.489 -0.3107 -1.0954  0.5593
  131CHL1  H24A15943   1.961   5.008  14.524  0.6168  0.0303 -0.0146
  131CHL1  H24B15944   1.967   4.858  14.435  0.4144 -1.1473 -0.2810
  131CHL1   C2515945   2.104   4.863  14.611  0.5780  0.4881  0.5514
  131CHL1   H2515946   2.174   4.935  14.659 -1.5169  2.6007  0.6227
  131CHL1   C2615947   2.007   4.824  14.719  0.3860  0.3186 -0.7359
  131CHL1  H26A15948   2.058   4.751  14.785 -2.4220 -0.8142  0.3235
  131CHL1  H26B15949   1.995   4.911  14.786  0.3433 -0.5036  0.3466
  131CHL1  H26C15950   1.914   4.781  14.676  0.4678  0.3957 -0.9912
  131CHL1   C2715951   2.177   4.742  14.566  0.0262  0.3392  0.9273
  131CHL1  H27A15952   2.262   4.713  14.630 -0.4727 -0.6783  1.1527
  131CHL1  H27B15953   2.110   4.653  14.571  1.8628 -1.0243  3.1915
  131CHL1  H27C15954   2.206   4.736  14.459  1.6556 -1.4412  1.4195
  132CHL1    C315955   5.826   5.539  13.218 -0.2541 -0.3199 -0.1523
  132CHL1    H315956   5.932   5.548  13.252  0.4391 -4.5995 -0.5736
  132CHL1    O315957   5.834   5.515  13.078 -1.1869  0.4976  0.3714
  132CHL1   H3'15958   5.890   5.586  13.046 -1.1295  0.7769  1.0716
  132CHL1    C415959   5.779   5.409  13.276  0.1564  0.2593  0.5303
  132CHL1   H4A15960   5.680   5.372  13.241  0.2280 -1.5624  2.1017
  132CHL1   H4B15961   5.854   5.336  13.239 -0.2740 -0.0454  0.2364
  132CHL1    C515962   5.777   5.433  13.424  0.0860  0.9496 -0.0681
  132CHL1    C615963   5.854   5.349  13.498  0.7136  0.7425 -0.2890
  132CHL1    H615964   5.917   5.269  13.458 -0.3415 -0.5288  0.4970
  132CHL1    C715965   5.836   5.351  13.648 -0.1642  0.0901 -0.7978
  132CHL1   H7A15966   5.827   5.245  13.682 -0.5522  0.7262  1.2105
  132CHL1   H7B15967   5.930   5.394  13.686 -0.9533  2.4681 -1.3727
  132CHL1    C815968   5.719   5.431  13.700  0.0297 -0.0706  0.2324
  132CHL1    H815969   5.633   5.364  13.677  0.2987 -0.7207  1.0662
  132CHL1   C1415970   5.725   5.446  13.854 -0.4383  0.3072 -0.0671
  132CHL1   H1415971   5.821   5.499  13.871  0.2982 -0.1045 -2.5575
  132CHL1   C1515972   5.736   5.330  13.944 -0.0151  0.7388 -0.3557
  132CHL1  H15A15973   5.689   5.236  13.909  0.4002  0.5338 -0.3683
  132CHL1  H15B15974   5.842   5.304  13.967 -0.4275  0.3166  1.1652
  132CHL1   C1615975   5.677   5.370  14.083 -0.1041 -0.5944 -0.2476
  132CHL1  H16A15976   5.594   5.311  14.126  0.0813  0.4317  1.6200
  132CHL1  H16B15977   5.760   5.358  14.155 -0.2612 -2.2097 -0.2951
  132CHL1   C1715978   5.636   5.525  14.065 -0.0425 -0.0551  0.1720
  132CHL1   H1715979   5.728   5.588  14.073  0.0842 -0.3076  0.7813
  132CHL1   C1315980   5.610   5.533  13.912  0.3935  0.3432  0.0467
  132CHL1   C1815981   5.481   5.457  13.872 -0.1176 -0.5019 -1.0552
  132CHL1  H18A15982   5.474   5.353  13.910 -0.2876  0.0175  0.4084
  132CHL1  H18B15983   5.387   5.500  13.910 -0.1144 -1.5013  0.1507
  132CHL1  H18C15984   5.464   5.448  13.763  0.6738 -0.4305 -1.1949
  132CHL1   C1215985   5.605   5.672  13.853 -0.3452  0.6117  0.2965
  132CHL1  H12A15986   5.504   5.702  13.887 -1.0596 -0.5988 -0.6810
  132CHL1  H12B15987   5.693   5.737  13.873 -0.0376  0.6114 -0.9496
  132CHL1   C1115988   5.592   5.665  13.696  0.1584 -0.1718 -0.2537
  132CHL1  H11A15989   5.492   5.623  13.674 -0.5271  1.1405  0.2885
  132CHL1  H11B15990   5.596   5.768  13.654 -0.4964  0.3681  0.9527
  132CHL1    C915991   5.702   5.569  13.627 -0.1001  0.4209 -0.6432
  132CHL1    H915992   5.803   5.614  13.641 -0.2431  0.3970  0.5962
  132CHL1   C1015993   5.689   5.543  13.473  0.2362 -0.1130  0.1591
  132CHL1   C1915994   5.537   5.513  13.443 -0.0718 -0.2660  0.6718
  132CHL1  H19A15995   5.508   5.423  13.502 -1.1009 -1.0858 -0.9932
  132CHL1  H19B15996   5.463   5.593  13.464 -0.3849 -0.4168  0.1664
  132CHL1  H19C15997   5.513   5.488  13.338 -0.3706  0.2313  0.6198
  132CHL1    C115998   5.737   5.679  13.407  0.3135  0.2418 -0.0701
  132CHL1   H1A15999   5.665   5.762  13.420 -0.3344 -0.2680 -0.3572
  132CHL1   H1B16000   5.833   5.707  13.456 -0.5764  0.1252  1.8350
  132CHL1    C216001   5.746   5.665  13.250  0.5009  0.0118  0.2930
  132CHL1   H2A16002   5.797   5.754  13.208 -0.3554  0.1606 -0.4815
  132CHL1   H2B16003   5.646   5.645  13.205  1.3474 -1.9346 -0.8665
  132CHL1   C2016004   5.538   5.567  14.174  0.6252  0.0362  0.0796
  132CHL1   H2016005   5.459   5.489  14.180  1.3541 -0.7178 -0.1369
  132CHL1   C2116006   5.484   5.716  14.148 -0.2118 -0.6687  0.6360
  132CHL1  H21A16007   5.460   5.767  14.244 -2.3790 -0.9233  0.2975
  132CHL1  H21B16008   5.387   5.712  14.093  0.7541 -0.1650 -1.1888
  132CHL1  H21C16009   5.554   5.779  14.089 -1.2493  0.3823  0.4787
  132CHL1   C2216010   5.593   5.565  14.323 -0.7207 -0.0049  0.5644
  132CHL1  H22A16011   5.645   5.469  14.343  1.0674  1.1799  1.9586
  132CHL1  H22B16012   5.672   5.643  14.323  0.0752 -0.4937 -4.4801
  132CHL1   C2316013   5.493   5.591  14.439  0.6852  0.6257 -0.5544
  132CHL1  H23A16014   5.408   5.653  14.404 -0.8672 -2.1363 -1.9882
  132CHL1  H23B16015   5.445   5.493  14.457  0.0108  1.0684  0.1240
  132CHL1   C2416016   5.551   5.641  14.571 -0.3810 -0.3695  0.5058
  132CHL1  H24A16017   5.638   5.574  14.588  0.5678  0.1255 -2.0576
  132CHL1  H24B16018   5.592   5.741  14.546  0.4286 -1.0705 -1.0497
  132CHL1   C2516019   5.456   5.663  14.690  0.1951  0.7705  0.0892
  132CHL1   H2516020   5.379   5.737  14.660 -0.6950  0.1664  0.8411
  132CHL1   C2616021   5.382   5.532  14.726 -0.4846  0.2212  0.3820
  132CHL1  H26A16022   5.330   5.488  14.638  0.4910 -2.1314  0.8916
  132CHL1  H26B16023   5.443   5.444  14.754  0.6693  0.2579 -1.8250
  132CHL1  H26C16024   5.305   5.550  14.804 -1.8251  1.7199 -1.2121
  132CHL1   C2716025   5.528   5.717  14.804 -0.3468  0.2459 -0.2636
  132CHL1  H27A16026   5.576   5.634  14.860  0.1360 -0.0346 -1.0705
  132CHL1  H27B16027   5.601   5.792  14.766 -2.6872  2.5330 -0.5332
  132CHL1  H27C16028   5.456   5.771  14.869 -0.6838 -0.7546  0.2109
  133CHL1    C316029   4.328   1.638  13.266 -0.8039 -0.4548 -0.9830
  133CHL1    H316030   4.231   1.583  13.264 -2.2891  2.0211 -0.7115
  133CHL1    O316031   4.392   1.601  13.146 -0.0082 -0.6200 -0.3422
  133CHL1   H3'16032   4.472   1.654  13.148 -0.6169  0.3189 -0.2138
  133CHL1    C416033   4.315   1.795  13.287 -1.1102  0.1922  0.3858
  133CHL1   H4A16034   4.417   1.836  13.269 -1.1803  1.4879  2.5564
  133CHL1   H4B16035   4.254   1.836  13.204  1.2962  1.2158 -0.9820
  133CHL1    C516036   4.260   1.834  13.421 -0.2803  0.7599 -0.2096
  133CHL1    C616037   4.158   1.917  13.442  0.3193 -0.3314  0.0559
  133CHL1    H616038   4.117   1.977  13.360  2.8678  1.9965  0.3252
  133CHL1    C716039   4.101   1.959  13.570 -0.4722 -0.6431 -0.2020
  133CHL1   H7A16040   4.085   2.069  13.577  2.5470 -0.1645  0.3895
  133CHL1   H7B16041   3.999   1.915  13.572  0.2788 -2.6790 -1.9558
  133CHL1    C816042   4.193   1.920  13.688  0.3028  0.2213 -0.3760
  133CHL1    H816043   4.281   1.987  13.692 -0.0796  0.6846  0.7080
  133CHL1   C1416044   4.121   1.938  13.821 -0.8933 -0.4368 -0.4308
  133CHL1   H1416045   4.039   1.863  13.821 -1.0800 -0.2525 -1.6796
  133CHL1   C1516046   4.063   2.074  13.859 -0.2898 -0.2609  0.0033
  133CHL1  H15A16047   4.140   2.153  13.846 -0.5256  0.1264  0.8407
  133CHL1  H15B16048   3.974   2.101  13.799 -0.0952 -0.4588 -0.3724
  133CHL1   C1616049   4.032   2.064  14.004 -0.0410  0.0982 -0.4899
  133CHL1  H16A16050   4.061   2.160  14.051  0.4904  0.4881 -1.5838
  133CHL1  H16B16051   3.924   2.056  14.028 -0.0522 -0.2924 -0.6620
  133CHL1   C1716052   4.099   1.936  14.055  0.8375 -0.0057 -0.1000
  133CHL1   H1716053   4.015   1.863  14.060 -0.1786  1.1363  0.1797
  133CHL1   C1316054   4.198   1.889  13.947  0.8155  0.1318  0.3682
  133CHL1   C1816055   4.330   1.970  13.969  0.1837 -0.2926 -0.5345
  133CHL1  H18A16056   4.306   2.077  13.984 -3.0532 -1.0238  0.2729
  133CHL1  H18B16057   4.385   1.936  14.059 -1.0489 -0.1925  0.2769
  133CHL1  H18C16058   4.395   1.962  13.879 -0.2899  3.4868 -1.3815
  133CHL1   C1216059   4.225   1.740  13.918  0.3354  0.2206  0.0317
  133CHL1  H12A16060   4.290   1.706  14.001  1.4538  2.3718  0.1075
  133CHL1  H12B16061   4.125   1.691  13.910 -0.0222  0.7836  0.9013
  133CHL1   C1116062   4.304   1.716  13.793 -0.2292  0.1091  0.9695
  133CHL1  H11A16063   4.404   1.756  13.819 -0.5077  1.2558  0.3501
  133CHL1  H11B16064   4.288   1.607  13.777 -1.1986  0.5086 -1.1067
  133CHL1    C916065   4.242   1.781  13.669 -0.1087  0.0560  0.6745
  133CHL1    H916066   4.155   1.717  13.644 -0.0096 -0.7331  2.2407
  133CHL1   C1016067   4.328   1.769  13.541 -0.2425  0.1417 -0.1415
  133CHL1   C1916068   4.469   1.816  13.569  0.7985  0.6211  0.8681
  133CHL1  H19A16069   4.475   1.910  13.629  0.0929  2.1942 -1.3584
  133CHL1  H19B16070   4.513   1.733  13.627 -1.8715 -0.3655  1.6181
  133CHL1  H19C16071   4.525   1.835  13.475 -1.6527  0.4221 -0.7129
  133CHL1    C116072   4.332   1.617  13.513 -0.3380 -0.2282 -0.7292
  133CHL1   H1A16073   4.383   1.564  13.597  0.3917 -0.5438 -1.3602
  133CHL1   H1B16074   4.226   1.584  13.508 -1.1852  2.0674  0.3610
  133CHL1    C216075   4.408   1.586  13.382  0.3815 -0.2104 -0.3301
  133CHL1   H2A16076   4.424   1.477  13.365  4.1064  0.0393  0.5901
  133CHL1   H2B16077   4.516   1.611  13.395  0.5701 -1.6901  1.2420
  133CHL1   C2016078   4.152   1.949  14.199 -0.6381  0.3266 -0.1613
  133CHL1   H2016079   4.234   2.022  14.216  0.1022 -0.8370  1.4837
  133CHL1   C2116080   4.218   1.818  14.245 -0.2076 -0.5859 -0.1984
  133CHL1  H21A16081   4.138   1.741  14.246 -1.1025  0.0899 -4.3075
  133CHL1  H21B16082   4.244   1.830  14.353 -0.9408 -0.5231 -0.0260
  133CHL1  H21C16083   4.309   1.791  14.187 -0.8505 -2.2840 -0.4677
  133CHL1   C2216084   4.033   1.991  14.293  0.3412 -0.3698  0.1486
  133CHL1  H22A16085   3.965   2.054  14.232  2.3176 -1.3534 -3.3452
  133CHL1  H22B16086   3.966   1.906  14.318 -1.0062  0.5092 -0.3372
  133CHL1   C2316087   4.075   2.071  14.420 -0.2622 -0.7714 -0.6521
  133CHL1  H23A16088   4.162   2.017  14.464  0.5710  1.3358  0.4669
  133CHL1  H23B16089   4.108   2.169  14.380  0.0900  0.3416  2.0991
  133CHL1   C2416090   3.964   2.104  14.518 -0.3948  0.0509  0.2080
  133CHL1  H24A16091   3.879   2.136  14.454 -1.6323 -2.9261  0.2334
  133CHL1  H24B16092   3.923   2.014  14.568 -1.8543  2.4060  3.6728
  133CHL1   C2516093   4.004   2.202  14.627  0.4797 -0.5846  0.7280
  133CHL1   H2516094   4.060   2.288  14.585 -3.2625  1.7489  0.0897
  133CHL1   C2616095   3.874   2.265  14.686 -0.3090  0.2724 -0.6235
  133CHL1  H26A16096   3.841   2.336  14.607  0.5876  2.0448  0.5247
  133CHL1  H26B16097   3.799   2.186  14.703 -0.4696 -0.0020 -2.4221
  133CHL1  H26C16098   3.901   2.318  14.780  1.7915  0.7217 -1.4062
  133CHL1   C2716099   4.095   2.140  14.735 -0.0111  0.3705 -0.3165
  133CHL1  H27A16100   4.023   2.075  14.789 -0.7017 -0.5623 -2.2373
  133CHL1  H27B16101   4.176   2.078  14.691  0.1472 -0.4437  1.0953
  133CHL1  H27C16102   4.140   2.221  14.796 -0.6047  0.4247  0.0586
  134CHL1    C316103   1.260   2.921  13.210 -0.0533 -0.5940  0.1687
  134CHL1    H316104   1.299   3.024  13.224 -0.8357 -0.3613  0.6483
  134CHL1    O316105   1.199   2.905  13.082  0.1067  0.1367 -0.5520
  134CHL1   H3'16106   1.166   2.815  13.082  0.0031  0.1190  1.3011
  134CHL1    C416107   1.385   2.843  13.225  0.1161  0.3265 -0.5162
  134CHL1   H4A16108   1.364   2.734  13.222  0.1462  0.2635  0.8484
  134CHL1   H4B16109   1.461   2.874  13.150 -2.0247  1.3992 -2.3599
  134CHL1    C516110   1.442   2.862  13.371  0.1660 -0.5492 -1.1526
  134CHL1    C616111   1.567   2.916  13.392  0.0821  0.3101  0.3041
  134CHL1    H616112   1.629   2.941  13.304 -0.8396 -1.3362 -0.8625
  134CHL1    C716113   1.633   2.930  13.525  0.0603  0.1017  0.1193
  134CHL1   H7A16114   1.730   2.874  13.524  0.3746  0.5991  1.3155
  134CHL1   H7B16115   1.650   3.039  13.538 -0.9893  0.3927 -0.7839
  134CHL1    C816116   1.553   2.875  13.645  0.0543 -0.3304 -0.1709
  134CHL1    H816117   1.564   2.765  13.652 -1.5846 -0.4902  0.2570
  134CHL1   C1416118   1.595   2.942  13.778 -0.5501 -0.4640 -0.2441
  134CHL1   H1416119   1.581   3.053  13.775  0.5931 -0.2642  1.0671
  134CHL1   C1516120   1.743   2.921  13.822 -0.1331  0.0190  0.1549
  134CHL1  H15A16121   1.783   2.818  13.835 -0.3753  0.1110  1.8528
  134CHL1  H15B16122   1.814   2.979  13.759  0.4022 -2.4694 -1.6587
  134CHL1   C1616123   1.750   2.985  13.962  0.1716  0.6930 -0.3855
  134CHL1  H16A16124   1.801   2.930  14.044 -3.1856  0.7731  2.0053
  134CHL1  H16B16125   1.794   3.087  13.960 -0.0386  1.0152  3.5257
  134CHL1   C1716126   1.602   2.997  14.008  0.1167 -0.1563  0.0003
  134CHL1   H1716127   1.579   3.103  13.980 -1.3902 -0.9235 -1.9244
  134CHL1   C1316128   1.522   2.910  13.907 -0.2764 -0.1550 -0.4823
  134CHL1   C1816129   1.535   2.765  13.951 -0.3720  0.8463 -0.2813
  134CHL1  H18A16130   1.494   2.695  13.875 -0.9022 -0.1214  0.8515
  134CHL1  H18B16131   1.642   2.742  13.970 -0.2307  1.3476 -0.4620
  134CHL1  H18C16132   1.489   2.742  14.050 -0.4020 -0.0655 -0.4965
  134CHL1   C1216133   1.379   2.949  13.873 -0.0761 -0.8909  0.3959
  134CHL1  H12A16134   1.305   2.934  13.955 -1.5080 -0.9018 -0.8453
  134CHL1  H12B16135   1.376   3.059  13.859 -0.8504 -0.8579  0.7728
  134CHL1   C1116136   1.317   2.883  13.750  0.1844  0.1607 -0.0674
  134CHL1  H11A16137   1.305   2.775  13.775 -0.8706  0.3863  0.4737
  134CHL1  H11B16138   1.219   2.935  13.742  1.0448  2.0222  1.0010
  134CHL1    C916139   1.404   2.905  13.622 -0.2599  0.0606  0.7015
  134CHL1    H916140   1.394   3.015  13.621  0.5651  0.1447  1.1776
  134CHL1   C1016141   1.347   2.840  13.487 -0.2487 -0.5613  0.2088
  134CHL1   C1916142   1.340   2.688  13.509  0.3851 -0.6255 -0.0457
  134CHL1  H19A16143   1.261   2.656  13.580  0.9546 -2.4765 -0.1825
  134CHL1  H19B16144   1.307   2.638  13.416 -0.0781  2.7974 -1.8684
  134CHL1  H19C16145   1.433   2.636  13.542  0.6813  1.2972  2.5030
  134CHL1    C116146   1.218   2.923  13.450 -0.2488 -0.5717 -1.0040
  134CHL1   H1A16147   1.141   2.913  13.530  0.2762  1.0248 -0.2722
  134CHL1   H1B16148   1.234   3.033  13.456  1.4045 -0.8270 -0.1267
  134CHL1    C216149   1.157   2.884  13.316 -0.2632 -0.1855 -0.0572
  134CHL1   H2A16150   1.062   2.939  13.298  0.1075  0.8155  0.9026
  134CHL1   H2B16151   1.148   2.773  13.312  3.0303 -0.6688  2.1692
  134CHL1   C2016152   1.587   2.976  14.156 -0.3621 -0.9064  0.0836
  134CHL1   H2016153   1.603   2.869  14.181  0.0181 -0.8409  0.1245
  134CHL1   C2116154   1.443   3.007  14.195  0.2825  0.1124 -0.2568
  134CHL1  H21A16155   1.425   2.999  14.304 -0.9544 -0.7175 -0.4976
  134CHL1  H21B16156   1.373   2.935  14.147 -1.3145  0.1482  1.8554
  134CHL1  H21C16157   1.406   3.105  14.159  0.4862  0.5305  0.6400
  134CHL1   C2216158   1.683   3.069  14.239  0.5050 -0.2884 -0.2565
  134CHL1  H22A16159   1.787   3.085  14.201  0.6468 -1.3902 -0.3750
  134CHL1  H22B16160   1.636   3.170  14.237 -3.8696 -2.1224 -0.6132
  134CHL1   C2316161   1.700   3.021  14.391 -0.2448 -0.6808  0.3263
  134CHL1  H23A16162   1.602   2.986  14.429 -0.9372 -1.5543 -2.0853
  134CHL1  H23B16163   1.758   2.927  14.398 -0.6333 -0.8480  1.4766
  134CHL1   C2416164   1.753   3.124  14.487 -0.3190 -0.5901  0.0886
  134CHL1  H24A16165   1.857   3.143  14.451 -0.6050 -0.4196 -0.6712
  134CHL1  H24B16166   1.696   3.219  14.473  0.3588 -0.2807 -0.6521
  134CHL1   C2516167   1.764   3.082  14.637  0.5619  0.0534  0.6510
  134CHL1   H2516168   1.848   3.010  14.648  0.1875 -0.7312 -1.1610
  134CHL1   C2616169   1.787   3.205  14.721  0.5012 -0.0757 -0.1715
  134CHL1  H26A16170   1.794   3.193  14.831  0.6278 -0.8901 -0.2571
  134CHL1  H26B16171   1.882   3.256  14.692  0.1086  0.5930 -0.2940
  134CHL1  H26C16172   1.696   3.267  14.704 -0.3543 -1.3482 -0.4043
  134CHL1   C2716173   1.645   2.998  14.686  0.3256  0.0349  0.4328
  134CHL1  H27A16174   1.560   3.069  14.681  1.7073  2.0919  3.2349
  134CHL1  H27B16175   1.615   2.912  14.623  2.6030 -0.1716 -0.4590
  134CHL1  H27C16176   1.643   2.968  14.793 -1.8014 -3.1182 -0.3540
  135CHL1    C316177   1.545   3.425  13.330  0.3247  0.1606  0.9343
  135CHL1    H316178   1.461   3.496  13.346 -0.7214 -0.9251  0.3773
  135CHL1    O316179   1.556   3.389  13.194  0.6906  0.0001 -0.2929
  135CHL1   H3'16180   1.554   3.293  13.199  0.6960  0.0578  1.4430
  135CHL1    C416181   1.675   3.491  13.373  0.1258 -0.0969  0.1772
  135CHL1   H4A16182   1.756   3.420  13.343  1.5635  0.5500  2.3048
  135CHL1   H4B16183   1.694   3.576  13.303 -3.1598  1.6644  1.2352
  135CHL1    C516184   1.697   3.518  13.524 -0.8277 -0.2067  0.7380
  135CHL1    C616185   1.718   3.644  13.566 -0.7810  0.5614  0.5826
  135CHL1    H616186   1.729   3.724  13.491 -3.2505 -0.8358 -1.4387
  135CHL1    C716187   1.749   3.681  13.712 -0.3137 -0.6682  0.4346
  135CHL1   H7A16188   1.857   3.707  13.713  0.1613 -2.2611 -1.7869
  135CHL1   H7B16189   1.683   3.764  13.747 -0.5447  1.1054 -3.6540
  135CHL1    C816190   1.744   3.560  13.813  0.2712 -0.0477  0.6926
  135CHL1    H816191   1.844   3.512  13.824 -0.0238 -1.0351 -0.6110
  135CHL1   C1416192   1.702   3.611  13.956 -0.3165 -0.2174 -0.0595
  135CHL1   H1416193   1.597   3.644  13.941 -0.6351 -0.6653  1.0621
  135CHL1   C1516194   1.786   3.727  14.023 -0.7886 -0.3182 -0.1926
  135CHL1  H15A16195   1.895   3.715  14.002 -0.5583  1.5475 -0.2310
  135CHL1  H15B16196   1.745   3.821  13.981  0.7287 -0.0156 -1.0988
  135CHL1   C1616197   1.754   3.712  14.172  0.6917  0.4859 -0.7380
  135CHL1  H16A16198   1.847   3.691  14.229  0.8981 -1.8879 -1.8040
  135CHL1  H16B16199   1.713   3.804  14.217  0.3192 -0.2505  0.4807
  135CHL1   C1716200   1.656   3.589  14.185 -0.4076  0.1736 -0.0057
  135CHL1   H1716201   1.556   3.627  14.156 -0.1660  1.0372  0.2602
  135CHL1   C1316202   1.695   3.500  14.061  0.0270 -0.1251 -0.1497
  135CHL1   C1816203   1.827   3.428  14.088 -0.0069  0.2649 -0.6008
  135CHL1  H18A16204   1.884   3.392  14.000 -0.9092 -3.2080  0.0978
  135CHL1  H18B16205   1.890   3.487  14.159  0.8610  1.2298 -2.1280
  135CHL1  H18C16206   1.801   3.333  14.139  0.1260 -0.6612 -2.1990
  135CHL1   C1216207   1.595   3.393  14.009  0.2907 -0.2586 -0.2273
  135CHL1  H12A16208   1.579   3.306  14.076 -3.1329 -1.1480 -1.9634
  135CHL1  H12B16209   1.493   3.437  14.007  0.0022 -0.8872  0.3957
  135CHL1   C1116210   1.629   3.347  13.870 -0.9465 -0.1925  0.6884
  135CHL1  H11A16211   1.723   3.289  13.877 -0.4562  0.3462 -0.9141
  135CHL1  H11B16212   1.545   3.283  13.836 -0.7167 -1.0239  1.6563
  135CHL1    C916213   1.643   3.457  13.762  0.3407  0.7986  0.5664
  135CHL1    H916214   1.546   3.512  13.766  0.3158  0.7152  1.2834
  135CHL1   C1016215   1.663   3.402  13.617  0.0778 -0.4318  0.2353
  135CHL1   C1916216   1.782   3.308  13.611  0.3417 -0.0164 -0.7767
  135CHL1  H19A16217   1.822   3.276  13.512  0.2314  2.0924 -1.5416
  135CHL1  H19B16218   1.858   3.340  13.685 -0.3342  0.4280 -0.2595
  135CHL1  H19C16219   1.742   3.215  13.657  0.0779  0.8213  0.7702
  135CHL1    C116220   1.534   3.342  13.562  0.2847 -0.3155  0.1981
  135CHL1   H1A16221   1.528   3.251  13.627  2.6142 -0.4491  0.3044
  135CHL1   H1B16222   1.443   3.402  13.586  0.4723  0.4891 -1.0271
  135CHL1    C216223   1.534   3.303  13.417 -0.3307  0.0533  0.2740
  135CHL1   H2A16224   1.442   3.244  13.401  1.0921 -3.1186  2.6133
  135CHL1   H2B16225   1.620   3.234  13.403 -2.6482 -2.9562 -0.0354
  135CHL1   C2016226   1.650   3.523  14.328 -0.3820 -0.1366 -0.0305
  135CHL1   H2016227   1.743   3.466  14.349 -0.3772 -0.2042 -0.2296
  135CHL1   C2116228   1.527   3.430  14.345  0.4088 -0.6158 -0.5234
  135CHL1  H21A16229   1.437   3.488  14.372 -1.5382 -3.0064 -1.4438
  135CHL1  H21B16230   1.557   3.362  14.427  0.7397 -1.2748 -1.1692
  135CHL1  H21C16231   1.512   3.364  14.256 -0.1629 -1.2474  0.0316
  135CHL1   C2216232   1.650   3.630  14.448 -0.2688  0.4750  0.3507
  135CHL1  H22A16233   1.735   3.699  14.429  0.3783 -0.7822 -1.6534
  135CHL1  H22B16234   1.559   3.693  14.455 -0.6111  0.3329 -2.0244
  135CHL1   C2316235   1.683   3.565  14.585  0.4784  0.2702 -0.3555
  135CHL1  H23A16236   1.591   3.506  14.607 -0.0127  1.2434  0.2386
  135CHL1  H23B16237   1.775   3.503  14.584  1.6910  1.9365  1.1284
  135CHL1   C2416238   1.696   3.670  14.697 -0.1051 -0.8116  0.4012
  135CHL1  H24A16239   1.774   3.746  14.673 -1.1867  1.2249  2.7877
  135CHL1  H24B16240   1.597   3.721  14.707 -0.3503 -1.3099  0.5453
  135CHL1   C2516241   1.724   3.617  14.842  0.1599 -0.0518  0.0028
  135CHL1   H2516242   1.653   3.533  14.856  1.1586 -1.1744 -1.2883
  135CHL1   C2616243   1.867   3.567  14.855  0.7852  0.1659 -0.1583
  135CHL1  H26A16244   1.897   3.489  14.781  1.9824  2.2850 -2.0175
  135CHL1  H26B16245   1.936   3.650  14.828 -1.5436  1.2991 -3.1046
  135CHL1  H26C16246   1.886   3.509  14.949  1.6578 -0.2878 -0.5986
  135CHL1   C2716247   1.695   3.728  14.934 -0.7049 -0.0901 -0.8326
  135CHL1  H27A16248   1.724   3.697  15.037 -1.5440  2.4546  0.2396
  135CHL1  H27B16249   1.768   3.810  14.917  1.5296 -1.8898 -0.4742
  135CHL1  H27C16250   1.593   3.771  14.936 -0.3486  0.7603 -0.5199
  136CHL1    C316251   5.946   6.502  13.306 -0.4634 -0.0785  0.3494
  136CHL1    H316252   5.848   6.464  13.343  0.5984 -3.1722  0.2999
  136CHL1    O316253   5.938   6.499  13.164  0.8998 -0.1782 -0.0421
  136CHL1   H3'16254   6.017   6.541  13.128  1.0074 -1.2844 -1.1529
  136CHL1    C416255   5.976   6.644  13.364  0.6176 -0.4968  0.7312
  136CHL1   H4A16256   6.069   6.674  13.310  0.0547 -1.2881 -0.7353
  136CHL1   H4B16257   5.893   6.715  13.345 -0.0710 -1.1612  1.2017
  136CHL1    C516258   5.997   6.633  13.518 -0.6724 -0.4585  0.4643
  136CHL1    C616259   5.941   6.728  13.591 -0.6045 -0.1519  0.1821
  136CHL1    H616260   5.902   6.817  13.540 -0.2814 -0.6267 -0.9332
  136CHL1    C716261   5.961   6.747  13.739 -0.2285 -0.1354  0.0868
  136CHL1   H7A16262   6.010   6.845  13.753  0.8980 -0.5076 -1.0523
  136CHL1   H7B16263   5.861   6.746  13.787 -1.3103  1.5406 -1.9450
  136CHL1    C816264   6.054   6.639  13.795 -0.5592  0.4264  0.2982
  136CHL1    H816265   6.158   6.677  13.798  0.4259 -1.8627 -1.6605
  136CHL1   C1416266   6.020   6.623  13.944  0.0280  0.6620 -0.0351
  136CHL1   H1416267   5.912   6.597  13.950 -0.5302  3.0148  1.5054
  136CHL1   C1516268   6.036   6.745  14.037  0.3192 -0.2354 -0.7242
  136CHL1  H15A16269   6.132   6.798  14.018  1.4723 -0.5956  3.2180
  136CHL1  H15B16270   5.951   6.815  14.030  1.1772  1.6285  3.8921
  136CHL1   C1616271   6.047   6.684  14.175 -0.0585  0.7894  0.4576
  136CHL1  H16A16272   6.118   6.734  14.244  0.4044 -1.3077  1.5873
  136CHL1  H16B16273   5.948   6.702  14.222 -0.2716 -3.2367  1.9159
  136CHL1   C1716274   6.049   6.529  14.156 -0.7138  0.0205 -0.2443
  136CHL1   H1716275   5.942   6.502  14.147 -0.3228 -2.6510  1.8712
  136CHL1   C1316276   6.100   6.512  14.011  0.4066 -0.1962  0.1330
  136CHL1   C1816277   6.254   6.534  14.004  0.1166 -0.2202 -0.2424
  136CHL1  H18A16278   6.287   6.569  13.903  0.4034  0.1021 -0.0370
  136CHL1  H18B16279   6.289   6.598  14.088 -0.5546 -2.5051  1.8900
  136CHL1  H18C16280   6.300   6.438  14.037 -2.1653 -1.2473  0.1219
  136CHL1   C1216281   6.062   6.375  13.943  0.5147  0.0852  0.0613
  136CHL1  H12A16282   6.093   6.282  13.996 -1.8545 -0.4851  0.5683
  136CHL1  H12B16283   5.954   6.355  13.928  0.0987  2.7644 -1.0816
  136CHL1   C1116284   6.115   6.380  13.799  0.0632  0.7592  0.9128
  136CHL1  H11A16285   6.221   6.410  13.808  0.2150  0.7300 -0.6346
  136CHL1  H11B16286   6.103   6.281  13.750  0.6429  1.1259  0.0144
  136CHL1    C916287   6.040   6.498  13.724  0.1177  0.3030 -0.2012
  136CHL1    H916288   5.932   6.473  13.739 -0.0004  1.0819  0.2928
  136CHL1   C1016289   6.070   6.510  13.573  0.5660 -0.6712 -0.1039
  136CHL1   C1916290   6.217   6.551  13.557  0.2306  0.2968 -0.2372
  136CHL1  H19A16291   6.249   6.556  13.451 -0.6376 -2.8962 -0.7393
  136CHL1  H19B16292   6.243   6.645  13.610 -0.2622  1.4374 -1.9379
  136CHL1  H19C16293   6.282   6.470  13.599  0.9382  2.3491  3.0455
  136CHL1    C116294   6.038   6.380  13.500 -0.5475 -0.9442  0.2331
  136CHL1   H1A16295   6.112   6.309  13.544  0.6017  0.5552  0.8257
  136CHL1   H1B16296   5.933   6.349  13.517 -0.9314 -0.3456 -0.9438
  136CHL1    C216297   6.051   6.401  13.351  0.1833 -0.2427 -0.3856
  136CHL1   H2A16298   6.043   6.302  13.301 -0.1077 -0.2852 -0.2602
  136CHL1   H2B16299   6.147   6.440  13.311  0.5463  0.5912  1.2136
  136CHL1   C2016300   6.094   6.438  14.273 -0.3184  0.0010  0.2375
  136CHL1   H2016301   6.183   6.381  14.238  0.4112  1.8354 -1.0617
  136CHL1   C2116302   5.989   6.329  14.282  0.3966  0.2886 -0.1507
  136CHL1  H21A16303   5.967   6.276  14.188 -0.0743  0.6715 -0.2592
  136CHL1  H21B16304   5.895   6.375  14.318  0.8300  0.0164  1.4543
  136CHL1  H21C16305   6.024   6.254  14.356 -1.7330  1.3088  2.0295
  136CHL1   C2216306   6.131   6.504  14.407  0.4114  0.1167 -0.5155
  136CHL1  H22A16307   6.198   6.592  14.393  0.0322  0.4457 -0.2816
  136CHL1  H22B16308   6.037   6.533  14.458  1.3773  2.4593  0.0982
  136CHL1   C2316309   6.197   6.398  14.507  0.0075 -0.1024 -0.4845
  136CHL1  H23A16310   6.128   6.313  14.528 -0.2192 -0.3368 -2.0796
  136CHL1  H23B16311   6.271   6.346  14.442 -0.6009  1.1847 -2.2835
  136CHL1   C2416312   6.259   6.453  14.631 -0.1112  0.9681 -0.4392
  136CHL1  H24A16313   6.287   6.367  14.695  1.1245  1.3574 -0.4394
  136CHL1  H24B16314   6.350   6.511  14.606 -0.9208  2.5436  0.1355
  136CHL1   C2516315   6.172   6.546  14.717  0.8048 -0.5423  0.3973
  136CHL1   H2516316   6.143   6.624  14.643  0.3252 -2.2024 -1.2217
  136CHL1   C2616317   6.038   6.482  14.742  1.1018  0.5578 -0.2521
  136CHL1  H26A16318   6.037   6.400  14.817 -0.3312 -1.5773 -2.4124
  136CHL1  H26B16319   5.962   6.550  14.787  0.9918  0.5452 -0.4142
  136CHL1  H26C16320   5.985   6.434  14.657  0.2959 -0.3412  0.7217
  136CHL1   C2716321   6.238   6.602  14.847  0.1062  0.3209 -0.5670
  136CHL1  H27A16322   6.171   6.664  14.910 -0.1348 -1.3149  0.8614
  136CHL1  H27B16323   6.256   6.510  14.906 -0.4982 -0.8681 -2.1514
  136CHL1  H27C16324   6.329   6.660  14.821 -0.1141  1.1875  0.5536
  137CHL1    C316325   2.598   2.454  13.226 -0.1902 -0.3929  0.1480
  137CHL1    H316326   2.609   2.560  13.258  0.2182  0.2319 -1.8609
  137CHL1    O316327   2.610   2.453  13.083  0.2704  0.1385  0.6794
  137CHL1   H3'16328   2.530   2.492  13.049  0.2819 -1.0462 -0.7937
  137CHL1    C416329   2.713   2.372  13.286 -0.1609 -0.6687  0.0731
  137CHL1   H4A16330   2.715   2.268  13.246  2.2184  0.2720 -2.5888
  137CHL1   H4B16331   2.805   2.425  13.253  0.4111 -1.4948  0.3262
  137CHL1    C516332   2.708   2.391  13.438 -0.5972  0.6573  1.0467
  137CHL1    C616333   2.803   2.452  13.513  0.1649 -0.1209  0.3055
  137CHL1    H616334   2.900   2.483  13.471 -0.5354 -0.3481 -1.5624
  137CHL1    C716335   2.787   2.460  13.661  0.2554  0.1158  0.0833
  137CHL1   H7A16336   2.886   2.427  13.699 -0.5165 -2.8887 -0.2190
  137CHL1   H7B16337   2.774   2.566  13.692 -0.4158 -0.2962  1.2789
  137CHL1    C816338   2.683   2.367  13.721  0.0419  0.0382 -0.0315
  137CHL1    H816339   2.724   2.264  13.714  0.5286  0.2349 -0.0712
  137CHL1   C1416340   2.656   2.404  13.864 -0.0781  0.4722 -0.4155
  137CHL1   H1416341   2.625   2.510  13.874 -0.4944  0.2058  1.5906
  137CHL1   C1516342   2.782   2.400  13.955 -0.0010 -0.8492  0.1623
  137CHL1  H15A16343   2.836   2.303  13.950  1.7442  0.1304 -1.1222
  137CHL1  H15B16344   2.847   2.489  13.944 -1.6663  0.4293  0.1489
  137CHL1   C1616345   2.712   2.409  14.099 -0.6122 -0.6419  0.5419
  137CHL1  H16A16346   2.749   2.328  14.166 -1.5775 -0.7745  0.9304
  137CHL1  H16B16347   2.725   2.508  14.148 -3.7744  1.0541 -1.7556
  137CHL1   C1716348   2.557   2.394  14.072 -0.1985 -0.1848 -0.6764
  137CHL1   H1716349   2.528   2.501  14.068  0.0897 -0.0046  1.1449
  137CHL1   C1316350   2.547   2.327  13.937 -0.0326  0.5928 -0.3751
  137CHL1   C1816351   2.569   2.173  13.956 -0.4518  0.2798  0.3563
  137CHL1  H18A16352   2.587   2.118  13.861 -1.2475  1.0055 -0.2300
  137CHL1  H18B16353   2.662   2.163  14.016 -1.8672  1.0089  2.8306
  137CHL1  H18C16354   2.487   2.122  14.011 -0.4079 -0.5333 -0.3113
  137CHL1   C1216355   2.424   2.351  13.854 -0.1229  0.0990  0.4188
  137CHL1  H12A16356   2.352   2.272  13.884 -3.0992  2.2937 -0.3810
  137CHL1  H12B16357   2.386   2.455  13.869 -1.6974 -0.5589  1.2298
  137CHL1   C1116358   2.441   2.305  13.714 -0.0032  0.0431  0.0604
  137CHL1  H11A16359   2.455   2.195  13.720  0.3994  0.1601  1.6602
  137CHL1  H11B16360   2.340   2.313  13.667 -0.2126 -0.6768  0.3709
  137CHL1    C916361   2.553   2.374  13.637  0.3273  0.5113  0.5568
  137CHL1    H916362   2.531   2.483  13.634 -1.1366  0.2228 -0.3727
  137CHL1   C1016363   2.577   2.331  13.490 -0.2009  0.3186  0.0869
  137CHL1   C1916364   2.587   2.174  13.475 -0.4940  0.5978 -0.1690
  137CHL1  H19A16365   2.604   2.149  13.368  0.9480  2.8280 -0.5308
  137CHL1  H19B16366   2.675   2.137  13.532 -2.5049 -2.0371  1.4634
  137CHL1  H19C16367   2.494   2.120  13.504  0.5599 -1.2063  0.0246
  137CHL1    C116368   2.457   2.386  13.413 -0.0156 -0.0521  0.0814
  137CHL1   H1A16369   2.358   2.344  13.440  0.5464 -1.4821 -0.0201
  137CHL1   H1B16370   2.456   2.496  13.431 -0.4324  0.1976 -1.2998
  137CHL1    C216371   2.470   2.382  13.258 -0.1507  0.1955 -0.0965
  137CHL1   H2A16372   2.382   2.424  13.204  0.0656  0.5505 -0.1733
  137CHL1   H2B16373   2.483   2.278  13.221  0.7994  0.8106 -1.5631
  137CHL1   C2016374   2.483   2.331  14.184  0.3667  0.0476  0.3283
  137CHL1   H2016375   2.511   2.224  14.190 -1.5904 -0.5234 -0.0415
  137CHL1   C2116376   2.330   2.335  14.164 -0.5753 -0.4686  0.0503
  137CHL1  H21A16377   2.293   2.439  14.153 -0.3613 -0.4477 -0.4699
  137CHL1  H21B16378   2.282   2.272  14.242  0.0025 -0.6334  0.2793
  137CHL1  H21C16379   2.307   2.270  14.078 -2.5495  1.5574 -1.0652
  137CHL1   C2216380   2.522   2.389  14.321  0.0391 -0.3968 -0.4935
  137CHL1  H22A16381   2.629   2.372  14.345  0.4497 -1.5428 -2.8732
  137CHL1  H22B16382   2.510   2.499  14.316  3.2020  0.0847  0.3156
  137CHL1   C2316383   2.436   2.328  14.438  0.1154  0.7365  0.2712
  137CHL1  H23A16384   2.334   2.368  14.421 -1.0306 -2.6614 -1.8729
  137CHL1  H23B16385   2.427   2.219  14.418  1.7495  0.3515  1.3842
  137CHL1   C2416386   2.486   2.370  14.576  0.4340  0.2757 -0.6035
  137CHL1  H24A16387   2.464   2.307  14.664  0.3132  1.6429  0.3809
  137CHL1  H24B16388   2.597   2.367  14.571  0.4533 -0.5171  0.2174
  137CHL1   C2516389   2.441   2.513  14.609  0.0930 -0.6413 -0.8101
  137CHL1   H2516390   2.476   2.571  14.521  1.0986 -0.6830 -0.4454
  137CHL1   C2616391   2.293   2.541  14.651 -0.3430  0.2299 -0.2839
  137CHL1  H26A16392   2.271   2.647  14.676  1.6401  1.1501 -2.0677
  137CHL1  H26B16393   2.232   2.521  14.561 -1.2653 -1.2470  0.6178
  137CHL1  H26C16394   2.252   2.479  14.734  0.3684  1.4277  1.0055
  137CHL1   C2716395   2.526   2.556  14.728 -0.4206  0.2811  0.3250
  137CHL1  H27A16396   2.634   2.531  14.719 -0.2883  0.2892  1.6875
  137CHL1  H27B16397   2.513   2.662  14.759 -0.2470  0.2428  0.5326
  137CHL1  H27C16398   2.496   2.501  14.819  0.6426  1.0419  1.1594
  138CHL1    C316399   6.932   7.261  13.307 -0.2653  0.0309  1.0404
  138CHL1    H316400   6.899   7.156  13.316  0.6451 -0.2641  0.9880
  138CHL1    O316401   6.972   7.286  13.172  0.0942 -0.1665 -0.0766
  138CHL1   H3'16402   6.984   7.381  13.170  1.6264 -0.2673  1.5390
  138CHL1    C416403   6.826   7.355  13.352 -0.2844  0.3030  0.1866
  138CHL1   H4A16404   6.869   7.457  13.340  3.4218 -1.1107  0.3453
  138CHL1   H4B16405   6.739   7.353  13.283  0.4283 -1.6568 -0.7193
  138CHL1    C516406   6.789   7.330  13.495  0.9025  0.2052  0.1475
  138CHL1    C616407   6.666   7.293  13.535  0.7186  0.4254 -0.1970
  138CHL1    H616408   6.585   7.288  13.461 -0.5580 -1.2780  1.2136
  138CHL1    C716409   6.615   7.273  13.673 -0.0224 -0.3827 -0.4515
  138CHL1   H7A16410   6.518   7.326  13.685  0.8057  1.1545 -0.2649
  138CHL1   H7B16411   6.596   7.164  13.687 -1.0209 -0.0778  0.8065
  138CHL1    C816412   6.724   7.318  13.778 -0.0810  0.1512  0.6450
  138CHL1    H816413   6.712   7.429  13.776  2.0847  0.4598  1.2573
  138CHL1   C1416414   6.690   7.250  13.909  0.1962  0.5767 -0.2964
  138CHL1   H1416415   6.714   7.143  13.889 -1.5986  0.2710 -0.9862
  138CHL1   C1516416   6.549   7.258  13.969  0.3954  0.3178 -0.8984
  138CHL1  H15A16417   6.495   7.349  13.937  1.1674  1.5896  1.2200
  138CHL1  H15B16418   6.507   7.159  13.939  3.3943 -1.1680 -0.6228
  138CHL1   C1616419   6.578   7.263  14.123 -0.0996  1.0378 -0.1370
  138CHL1  H16A16420   6.552   7.365  14.160 -1.5812  0.2316  1.1907
  138CHL1  H16B16421   6.518   7.192  14.184 -0.2050 -1.3154 -2.7907
  138CHL1   C1716422   6.725   7.236  14.143 -0.4602  0.1765 -0.3288
  138CHL1   H1716423   6.736   7.126  14.133 -0.0423  0.1685  0.1856
  138CHL1   C1316424   6.794   7.290  14.017 -0.3337 -0.2770 -1.0121
  138CHL1   C1816425   6.804   7.445  14.039  0.1712  0.1991  0.5478
  138CHL1  H18A16426   6.846   7.488  13.945  1.9928 -0.0963  1.1863
  138CHL1  H18B16427   6.710   7.496  14.067  0.9696  1.3024  1.3224
  138CHL1  H18C16428   6.884   7.461  14.115 -0.0184  0.1540  0.7570
  138CHL1   C1216429   6.924   7.224  13.974 -0.2223  0.2080  0.0933
  138CHL1  H12A16430   7.002   7.268  14.040  1.8925 -1.3506 -1.2516
  138CHL1  H12B16431   6.932   7.114  13.989  1.4176  0.0199 -1.8912
  138CHL1   C1116432   6.970   7.270  13.837  0.2278 -0.0149  0.4997
  138CHL1  H11A16433   6.991   7.377  13.856 -0.1550 -0.0217  0.9902
  138CHL1  H11B16434   7.056   7.205  13.809 -0.4409 -0.8552  0.3372
  138CHL1    C916435   6.866   7.276  13.727 -0.1142 -0.4644  0.6991
  138CHL1    H916436   6.853   7.167  13.713 -0.7952 -0.1876 -1.0699
  138CHL1   C1016437   6.912   7.335  13.593  0.3893  0.0646  0.1310
  138CHL1   C1916438   6.958   7.484  13.612  0.2175  0.0576  0.1170
  138CHL1  H19A16439   6.866   7.535  13.650  1.0304  0.6056  1.4261
  138CHL1  H19B16440   7.026   7.509  13.696 -0.5915  0.9221  0.5301
  138CHL1  H19C16441   6.980   7.537  13.517  1.7101 -0.3520  0.2124
  138CHL1    C116442   7.031   7.252  13.541 -0.5220  0.4092  0.2514
  138CHL1   H1A16443   7.126   7.280  13.591 -0.1983  0.3227 -0.3039
  138CHL1   H1B16444   7.011   7.145  13.564 -0.4935  0.1453 -0.8749
  138CHL1    C216445   7.062   7.269  13.393  0.8237 -0.3004 -0.8922
  138CHL1   H2A16446   7.140   7.192  13.372  1.0912 -0.7064  1.3502
  138CHL1   H2B16447   7.097   7.374  13.386 -2.4413  0.9377 -0.2589
  138CHL1   C2016448   6.778   7.254  14.284 -0.1350  0.2611 -0.1429
  138CHL1   H2016449   6.887   7.274  14.275 -0.0813 -0.5263 -1.6725
  138CHL1   C2116450   6.772   7.125  14.370  0.3284 -0.4777  0.0978
  138CHL1  H21A16451   6.666   7.097  14.390  0.2586  0.7483  1.6940
  138CHL1  H21B16452   6.821   7.146  14.468 -0.4093  0.0490  0.3641
  138CHL1  H21C16453   6.831   7.041  14.327 -0.5301 -0.3056 -1.4552
  138CHL1   C2216454   6.716   7.366  14.371 -0.1730 -0.0375  0.3965
  138CHL1  H22A16455   6.703   7.453  14.303 -1.0071 -0.6284 -0.2230
  138CHL1  H22B16456   6.626   7.326  14.422 -0.9456  1.5733  0.3524
  138CHL1   C2316457   6.825   7.416  14.466 -1.1199 -0.3202 -0.7508
  138CHL1  H23A16458   6.854   7.338  14.540 -1.1934 -0.0749 -0.4639
  138CHL1  H23B16459   6.915   7.433  14.402  1.0659 -2.9577  1.3706
  138CHL1   C2416460   6.783   7.547  14.532 -0.7072  0.0836  0.0378
  138CHL1  H24A16461   6.785   7.630  14.458  0.9535 -0.0984 -0.1649
  138CHL1  H24B16462   6.687   7.541  14.587 -0.5795  0.1050  0.2671
  138CHL1   C2516463   6.883   7.581  14.639 -0.0738 -0.2765  0.6166
  138CHL1   H2516464   6.981   7.575  14.588 -0.2516  0.6745  0.1247
  138CHL1   C2616465   6.847   7.722  14.681 -0.0820  0.0862 -0.8025
  138CHL1  H26A16466   6.743   7.727  14.720 -0.1159 -0.5554 -0.8069
  138CHL1  H26B16467   6.910   7.762  14.764 -1.0363 -0.2537  0.1131
  138CHL1  H26C16468   6.857   7.788  14.592  1.9797  1.4908  0.3848
  138CHL1   C2716469   6.893   7.490  14.758 -0.1612 -0.4750 -0.6849
  138CHL1  H27A16470   6.947   7.400  14.720  2.0244  1.3624 -2.2106
  138CHL1  H27B16471   6.958   7.534  14.837  0.3142  1.0925 -1.8921
  138CHL1  H27C16472   6.794   7.468  14.804  0.7552 -2.6230  0.4119
  139CHL1    C316473   0.881   6.329  13.306  0.4604  0.3125  0.2052
  139CHL1    H316474   0.927   6.431  13.308 -0.4881  0.7738 -0.5092
  139CHL1    O316475   0.860   6.296  13.170  0.9518  0.3068 -0.5968
  139CHL1   H3'16476   0.829   6.378  13.131 -1.7103 -0.4784 -0.3001
  139CHL1    C416477   0.970   6.220  13.369  0.8502 -0.3139  0.5027
  139CHL1   H4A16478   0.924   6.123  13.342 -0.5555  0.3281  0.5129
  139CHL1   H4B16479   1.064   6.230  13.310  0.0098  1.8581 -0.5825
  139CHL1    C516480   0.991   6.232  13.514 -0.0420  0.5857  0.8127
  139CHL1    C616481   1.108   6.230  13.577  0.0003 -0.0144 -0.0377
  139CHL1    H616482   1.200   6.227  13.517  2.2222 -1.2145  3.1602
  139CHL1    C716483   1.120   6.227  13.726  0.4467 -0.4779 -0.2558
  139CHL1   H7A16484   1.199   6.155  13.756 -0.6215 -0.4056  3.1888
  139CHL1   H7B16485   1.144   6.332  13.755 -1.6257  0.1225 -0.5287
  139CHL1    C816486   0.991   6.189  13.803 -0.1307  1.5590 -0.1647
  139CHL1    H816487   0.978   6.079  13.795  2.3987  1.0200  1.9212
  139CHL1   C1416488   0.997   6.225  13.952 -0.8447  0.1866 -0.5422
  139CHL1   H1416489   0.995   6.336  13.948  1.3124  0.3191  0.7743
  139CHL1   C1516490   1.123   6.197  14.039  1.1585 -0.1287 -0.7420
  139CHL1  H15A16491   1.153   6.093  14.014 -2.0684 -0.6252 -3.1569
  139CHL1  H15B16492   1.212   6.262  14.026  1.3514  0.4242  2.4057
  139CHL1   C1616493   1.057   6.200  14.181  0.4132  0.4272 -0.3134
  139CHL1  H16A16494   1.060   6.101  14.230 -0.2222  1.0482  1.0457
  139CHL1  H16B16495   1.106   6.260  14.260 -0.3739  1.1927 -0.3805
  139CHL1   C1716496   0.906   6.241  14.163  0.5217 -0.2305  0.4732
  139CHL1   H1716497   0.905   6.348  14.134 -0.0037 -0.9750 -2.5582
  139CHL1   C1316498   0.865   6.190  14.026  0.5125  0.6029  0.1581
  139CHL1   C1816499   0.846   6.036  14.043 -0.2211 -0.6431  0.2858
  139CHL1  H18A16500   0.846   5.981  13.947  1.7625 -0.7995  0.3252
  139CHL1  H18B16501   0.921   5.995  14.114 -0.5566 -0.3377  0.8295
  139CHL1  H18C16502   0.750   6.005  14.090 -0.5704 -1.2176 -0.7916
  139CHL1   C1216503   0.738   6.241  13.964 -0.3258 -0.4959  0.0192
  139CHL1  H12A16504   0.645   6.196  14.006 -1.5004  0.4850 -1.4303
  139CHL1  H12B16505   0.731   6.352  13.969  1.3623 -0.2136 -2.3247
  139CHL1   C1116506   0.737   6.229  13.816 -0.1661 -0.0956 -0.4761
  139CHL1  H11A16507   0.713   6.126  13.782 -1.2719  0.3767 -1.1720
  139CHL1  H11B16508   0.659   6.293  13.770 -0.2470  0.7947  0.8257
  139CHL1    C916509   0.869   6.259  13.749  0.4587  0.5097  0.9116
  139CHL1    H916510   0.885   6.369  13.754 -0.1446  0.7379 -1.1708
  139CHL1   C1016511   0.854   6.234  13.587 -0.4721 -0.3401 -0.2563
  139CHL1   C1916512   0.798   6.094  13.559  0.2468  0.7836  0.5778
  139CHL1  H19A16513   0.776   6.083  13.451 -1.8937  3.3379  0.6432
  139CHL1  H19B16514   0.866   6.015  13.596  0.8373  2.3739  3.1599
  139CHL1  H19C16515   0.699   6.084  13.608  0.5129 -1.1922  0.7928
  139CHL1    C116516   0.760   6.347  13.535  1.0828  0.2615  0.7334
  139CHL1   H1A16517   0.654   6.331  13.567  0.3810  1.3507 -0.8983
  139CHL1   H1B16518   0.798   6.448  13.563 -1.3349  0.8184  2.3835
  139CHL1    C216519   0.744   6.341  13.377  0.5021  0.2801  0.1621
  139CHL1   H2A16520   0.677   6.424  13.346 -0.1544  0.5440  2.1339
  139CHL1   H2B16521   0.696   6.246  13.345 -0.5185  0.8048  0.0982
  139CHL1   C2016522   0.808   6.208  14.277 -0.3851  0.4710 -0.5045
  139CHL1   H2016523   0.701   6.198  14.249 -1.6372  2.5393  2.9062
  139CHL1   C2116524   0.804   6.343  14.358 -0.4088  0.7653  0.3022
  139CHL1  H21A16525   0.723   6.331  14.433  0.3950  1.8599  1.3890
  139CHL1  H21B16526   0.788   6.439  14.305  1.2754  2.2018  2.2416
  139CHL1  H21C16527   0.892   6.357  14.423  0.3418  0.9978 -0.7424
  139CHL1   C2216528   0.845   6.095  14.372 -0.1864  0.3329  0.1382
  139CHL1  H22A16529   0.890   6.010  14.317  1.4601  0.8034  0.6808
  139CHL1  H22B16530   0.925   6.132  14.439 -0.4613  1.3416 -0.0764
  139CHL1   C2316531   0.734   6.048  14.456 -0.1247  0.1866  0.1792
  139CHL1  H23A16532   0.679   6.132  14.505 -0.3322  0.4006 -0.4154
  139CHL1  H23B16533   0.661   5.994  14.391  0.7848  1.4193 -1.9526
  139CHL1   C2416534   0.780   5.931  14.555  0.0429  0.2578  0.6728
  139CHL1  H24A16535   0.806   5.847  14.487  1.2830  0.8163  0.4228
  139CHL1  H24B16536   0.875   5.966  14.601 -0.2939  0.4012  1.2704
  139CHL1   C2516537   0.680   5.900  14.670 -0.5912 -0.0316  0.3133
  139CHL1   H2516538   0.641   5.994  14.715  0.1640 -0.3516  1.6894
  139CHL1   C2616539   0.555   5.833  14.622 -0.0856  0.4127  0.4195
  139CHL1  H26A16540   0.573   5.735  14.573 -0.7404 -0.4882  1.9324
  139CHL1  H26B16541   0.486   5.821  14.708 -1.5779  1.9104 -0.4955
  139CHL1  H26C16542   0.490   5.897  14.558  1.6549  0.2894 -1.5835
  139CHL1   C2716543   0.750   5.816  14.785  0.0107  0.1072 -0.0812
  139CHL1  H27A16544   0.679   5.800  14.870 -3.0136 -1.1113 -2.6187
  139CHL1  H27B16545   0.792   5.720  14.748  0.2709  0.2755 -0.2226
  139CHL1  H27C16546   0.833   5.875  14.828  1.8151 -2.1040 -0.3392
  140CHL1    C316547   7.550   7.536  13.230 -0.3340 -0.3373  0.4677
  140CHL1    H316548   7.483   7.625  13.221 -0.7847 -0.7273 -0.1290
  140CHL1    O316549   7.597   7.488  13.106 -0.5655  0.0972  0.7346
  140CHL1   H3'16550   7.654   7.553  13.063 -1.3140 -0.3110 -0.9608
  140CHL1    C416551   7.678   7.574  13.308  0.3999 -0.2108  0.0030
  140CHL1   H4A16552   7.758   7.497  13.299  1.2074  0.5899  0.0964
  140CHL1   H4B16553   7.733   7.659  13.261 -2.1134  1.7119  0.3559
  140CHL1    C516554   7.651   7.614  13.455 -0.0008  0.1252  0.8205
  140CHL1    C616555   7.701   7.727  13.514  0.0914 -0.0985  0.2395
  140CHL1    H616556   7.764   7.784  13.443 -1.6479 -1.1571 -2.3313
  140CHL1    C716557   7.666   7.784  13.648 -0.3600  0.1472  0.1242
  140CHL1   H7A16558   7.755   7.808  13.709  0.9555  0.9531 -2.0254
  140CHL1   H7B16559   7.618   7.884  13.637  1.0043  0.6999 -1.1999
  140CHL1    C816560   7.585   7.674  13.734 -0.9239  0.4638 -0.5686
  140CHL1    H816561   7.656   7.605  13.784  0.1307  2.7175  1.2510
  140CHL1   C1416562   7.516   7.747  13.848  0.4429 -0.8882  0.0487
  140CHL1   H1416563   7.442   7.816  13.802 -0.9145 -0.2201  2.9964
  140CHL1   C1516564   7.600   7.843  13.941  0.4664 -0.3171 -0.4082
  140CHL1  H15A16565   7.689   7.780  13.962  1.2112 -0.4069 -3.3939
  140CHL1  H15B16566   7.632   7.932  13.884 -0.4340  1.6582  1.9852
  140CHL1   C1616567   7.512   7.875  14.060  0.2019  0.1167  0.0623
  140CHL1  H16A16568   7.571   7.862  14.152 -1.7114 -1.5563  1.1578
  140CHL1  H16B16569   7.463   7.974  14.055 -0.9186 -0.4190 -0.0418
  140CHL1   C1716570   7.389   7.776  14.039 -0.1250  0.5228  0.4420
  140CHL1   H1716571   7.321   7.842  13.982 -0.5596  0.5596  0.9905
  140CHL1   C1316572   7.432   7.664  13.939 -0.3687 -0.7490  0.3072
  140CHL1   C1816573   7.513   7.560  14.021  0.5509 -0.9774  0.2210
  140CHL1  H18A16574   7.570   7.486  13.960  1.0329 -0.3760 -0.0672
  140CHL1  H18B16575   7.575   7.614  14.096 -0.5468  0.3228  0.2199
  140CHL1  H18C16576   7.430   7.506  14.071 -1.1569  0.2815 -1.1353
  140CHL1   C1216577   7.315   7.609  13.860  0.4044 -0.2697  0.4275
  140CHL1  H12A16578   7.246   7.542  13.914  0.0002 -0.6557 -0.5523
  140CHL1  H12B16579   7.262   7.696  13.814  0.8615  0.2264  0.8173
  140CHL1   C1116580   7.369   7.526  13.739 -0.3075 -0.8470 -0.2006
  140CHL1  H11A16581   7.410   7.434  13.786  0.7803  0.8800  2.4235
  140CHL1  H11B16582   7.276   7.498  13.684 -0.7970  0.2415  0.0457
  140CHL1    C916583   7.483   7.602  13.651 -0.1263 -0.1516  0.0796
  140CHL1    H916584   7.416   7.680  13.609 -0.1761 -0.1779  0.1086
  140CHL1   C1016585   7.552   7.530  13.535  0.7541  0.4264  0.0825
  140CHL1   C1916586   7.616   7.403  13.592 -0.6163 -0.0920 -0.2050
  140CHL1  H19A16587   7.659   7.330  13.520  0.1809 -0.9829  1.1420
  140CHL1  H19B16588   7.703   7.436  13.652 -0.4108  2.0969 -1.6023
  140CHL1  H19C16589   7.538   7.352  13.653 -1.8890 -0.2579 -1.8949
  140CHL1    C116590   7.439   7.478  13.445  0.4305 -0.4880  0.3868
  140CHL1   H1A16591   7.391   7.390  13.492 -0.4238  0.5921  1.6222
  140CHL1   H1B16592   7.360   7.554  13.426 -0.5619 -2.0289 -2.1710
  140CHL1    C216593   7.480   7.427  13.306  0.3444  0.3197 -0.0128
  140CHL1   H2A16594   7.383   7.395  13.262  1.4706 -0.0273 -2.4506
  140CHL1   H2B16595   7.534   7.330  13.304  0.4010  0.3592 -0.4703
  140CHL1   C2016596   7.334   7.734  14.185 -0.6492  0.2312 -0.0146
  140CHL1   H2016597   7.415   7.675  14.233 -0.2690  0.9046  0.1802
  140CHL1   C2116598   7.204   7.651  14.177  0.4169  0.1630  0.1267
  140CHL1  H21A16599   7.173   7.625  14.280  0.9649  0.7506  0.4500
  140CHL1  H21B16600   7.217   7.556  14.120  0.2230  0.3925 -0.3061
  140CHL1  H21C16601   7.131   7.712  14.120  1.8453 -1.0661 -3.2987
  140CHL1   C2216602   7.304   7.853  14.282 -0.6904  0.2876  0.7657
  140CHL1  H22A16603   7.389   7.921  14.264 -0.3399  0.1430  1.7920
  140CHL1  H22B16604   7.212   7.901  14.243 -1.2377 -2.0147 -1.0202
  140CHL1   C2316605   7.305   7.810  14.424  0.2965  0.0790  0.3739
  140CHL1  H23A16606   7.225   7.736  14.445  0.8390 -1.1100 -1.4753
  140CHL1  H23B16607   7.394   7.749  14.452  1.5885  0.5991 -2.2742
  140CHL1   C2416608   7.283   7.940  14.513 -0.0763 -0.1132  0.2495
  140CHL1  H24A16609   7.331   8.029  14.468 -0.7506 -0.6434 -1.6103
  140CHL1  H24B16610   7.175   7.966  14.507 -0.1469  0.4089  2.6713
  140CHL1   C2516611   7.329   7.939  14.662 -0.5204 -0.3731 -0.5305
  140CHL1   H2516612   7.440   7.935  14.662 -0.4870  0.2937  0.2807
  140CHL1   C2616613   7.272   7.818  14.733  0.0081  0.4339 -0.7531
  140CHL1  H26A16614   7.296   7.823  14.841  2.1069  0.1100 -1.1470
  140CHL1  H26B16615   7.162   7.824  14.726 -0.0280 -1.3538 -2.4422
  140CHL1  H26C16616   7.304   7.717  14.700  1.5830  0.0533  1.6483
  140CHL1   C2716617   7.286   8.065  14.739 -0.4628 -0.4104 -0.5679
  140CHL1  H27A16618   7.175   8.061  14.733 -0.6865  1.0359  1.6159
  140CHL1  H27B16619   7.312   8.046  14.845 -2.7806  0.7750  0.2654
  140CHL1  H27C16620   7.321   8.159  14.692 -0.6564 -0.7245 -1.3609
  141DOPC     N16621   5.963   2.377  17.157  0.3729  0.4303  0.7002
  141DOPC   C1216622   5.844   2.473  17.113 -0.2352  0.5302 -0.1264
  141DOPC  H12A16623   5.833   2.557  17.180 -1.1944 -0.0406  0.4404
  141DOPC  H12B16624   5.754   2.416  17.128  0.4410  0.1550  3.3112
  141DOPC   C1316625   5.966   2.253  17.071 -0.0575  0.8713 -0.9467
  141DOPC  H13A16626   5.978   2.276  16.966 -0.8820  1.6066 -0.8914
  141DOPC  H13B16627   6.051   2.194  17.099 -0.1087  0.6419 -1.2570
  141DOPC  H13C16628   5.888   2.182  17.092  1.4386  0.1458  2.7969
  141DOPC   C1416629   5.941   2.345  17.299  0.0733  0.0072 -0.0025
  141DOPC  H14A16630   5.991   2.256  17.334 -0.2229  0.3765  1.4375
  141DOPC  H14B16631   5.972   2.432  17.355  1.1917 -0.9822  0.9773
  141DOPC  H14C16632   5.835   2.331  17.316 -0.4134  2.6872 -0.4595
  141DOPC   C1516633   6.095   2.451  17.137 -0.7528  0.6631  0.3555
  141DOPC  H15A16634   6.077   2.512  17.050 -2.3612  1.4228  1.1738
  141DOPC  H15B16635   6.185   2.391  17.132  1.7113  4.1421 -1.0199
  141DOPC  H15C16636   6.117   2.524  17.214  0.4236  0.0141  0.6590
  141DOPC   C1116637   5.847   2.523  16.965  0.0801 -0.2790 -0.3729
  141DOPC  H11A16638   5.877   2.434  16.905 -0.6341 -2.1301  1.8610
  141DOPC  H11B16639   5.744   2.553  16.936 -0.2851 -0.1860  0.9639
  141DOPC     P16640   6.017   2.644  16.821 -0.5402  0.2775 -0.4419
  141DOPC   O1316641   6.101   2.526  16.788 -0.5888  0.3081 -0.0066
  141DOPC   O1416642   6.085   2.778  16.819 -0.0854 -0.2469 -0.3515
  141DOPC   O1216643   5.942   2.630  16.959  0.0175  0.2746 -0.1459
  141DOPC   O1116644   5.894   2.661  16.725 -0.0937  0.2164  0.0644
  141DOPC    C116645   5.860   2.557  16.641 -0.1028  1.0797  0.4812
  141DOPC    HA16646   5.772   2.500  16.678  0.0212  0.1579 -0.5814
  141DOPC    HB16647   5.940   2.483  16.619 -2.6295 -1.1868 -1.8783
  141DOPC    C216648   5.810   2.600  16.493 -0.4737 -0.4015 -0.6094
  141DOPC    HS16649   5.793   2.512  16.427  1.2038 -1.5631  0.4255
  141DOPC   O2116650   5.913   2.689  16.446 -0.4343  0.4051  0.1545
  141DOPC   C2116651   6.018   2.621  16.409  0.1583 -0.2062 -0.7167
  141DOPC   O2216652   6.030   2.502  16.408 -0.2276  0.2689  0.4873
  141DOPC   C2216653   6.120   2.714  16.352 -0.1917 -0.3888 -0.8216
  141DOPC   H2R16654   6.208   2.651  16.328 -0.8044 -1.2278 -0.8834
  141DOPC   H2S16655   6.155   2.782  16.433 -0.0125  1.4796 -2.3940
  141DOPC    C316656   5.669   2.665  16.497  0.2764  0.2758 -0.1099
  141DOPC    HX16657   5.686   2.746  16.571 -1.0191  0.6538 -0.2102
  141DOPC    HY16658   5.601   2.589  16.542 -1.4376  1.3867 -0.7507
  141DOPC   O3116659   5.633   2.717  16.373  0.1097 -0.1618  0.1925
  141DOPC   C3116660   5.505   2.761  16.363 -0.0695 -0.0776 -0.3309
  141DOPC   O3216661   5.425   2.758  16.457 -0.3023 -0.6649  0.3590
  141DOPC   C3216662   5.474   2.806  16.222  0.7046 -0.1896  0.0238
  141DOPC   H2X16663   5.363   2.798  16.211  0.6081  2.1441 -1.3575
  141DOPC   H2Y16664   5.492   2.915  16.221  2.7946 -0.4937  0.3383
  141DOPC   C2316665   6.075   2.796  16.225 -0.3364  0.5168 -0.0243
  141DOPC   H3R16666   6.152   2.869  16.192 -0.5174  0.7493  0.0654
  141DOPC   H3S16667   5.977   2.844  16.245 -0.3265  0.3284  0.4749
  141DOPC   C2416668   6.054   2.703  16.104 -0.0727  0.3164  0.2202
  141DOPC   H4R16669   5.978   2.624  16.121  0.4406 -0.3885 -0.6714
  141DOPC   H4S16670   6.142   2.650  16.064 -1.1622 -1.9356  0.6581
  141DOPC   C2516671   5.992   2.781  15.983  0.3233  0.2963  0.7720
  141DOPC   H5R16672   6.039   2.882  15.981 -1.2598  1.0529 -1.1469
  141DOPC   H5S16673   5.883   2.797  15.995  0.5599  2.5063  0.3538
  141DOPC   C2616674   6.007   2.703  15.849  0.1149  0.0767  0.1214
  141DOPC   H6R16675   5.945   2.616  15.883  0.1761  1.0055  2.9046
  141DOPC   H6S16676   6.107   2.660  15.828 -0.7606 -3.2966  1.9605
  141DOPC   C2716677   5.945   2.778  15.729 -0.2836  0.2060  0.3954
  141DOPC   H7R16678   6.007   2.867  15.706 -0.9600  0.6609  0.3141
  141DOPC   H7S16679   5.852   2.819  15.774  0.1861  0.0654  1.5402
  141DOPC   C2816680   5.927   2.687  15.603  0.9086 -0.1138 -0.4128
  141DOPC   H8R16681   5.887   2.736  15.511 -0.3946  0.4106  0.4083
  141DOPC   H8S16682   5.858   2.606  15.635  1.5405 -0.2609  0.6120
  141DOPC   C2916683   6.056   2.622  15.566  0.1732  0.4269  0.6283
  141DOPC   H9R16684   6.133   2.699  15.551  0.6316 -0.0338  0.5932
  141DOPC  C21016685   6.091   2.495  15.547 -0.2858 -0.2806  0.2076
  141DOPC  H10R16686   6.197   2.476  15.526  0.0977  0.8937  0.9617
  141DOPC  C21116687   6.002   2.376  15.557 -0.5109  0.4311 -0.4922
  141DOPC  H11R16688   5.991   2.329  15.457 -2.1440 -0.2305 -0.0400
  141DOPC  H11S16689   5.898   2.406  15.584 -0.0859 -0.5805  2.7682
  141DOPC  C21216690   6.056   2.268  15.656  0.5428 -0.1057 -0.0313
  141DOPC  H12R16691   6.151   2.220  15.622  0.0978 -1.0274 -0.0129
  141DOPC  H12S16692   5.977   2.190  15.659  0.5315 -0.0628  1.7432
  141DOPC  C21316693   6.071   2.330  15.800  0.2085  0.1421 -0.2193
  141DOPC  H13R16694   5.979   2.388  15.822  1.8975  1.7907  3.4367
  141DOPC  H13S16695   6.160   2.395  15.794  0.2539  0.1178  0.1463
  141DOPC  C21416696   6.081   2.215  15.898 -0.6549  0.3364 -0.1630
  141DOPC  H14R16697   6.162   2.151  15.857  0.1938  1.0815  0.3127
  141DOPC  H14S16698   5.983   2.163  15.885  0.2487 -1.8413  1.2554
  141DOPC  C21516699   6.108   2.266  16.037  0.0068  0.6825  0.2539
  141DOPC  H15R16700   6.023   2.329  16.071 -0.7574  0.2512 -0.7855
  141DOPC  H15S16701   6.193   2.338  16.032  2.3028 -1.8893 -0.6549
  141DOPC  C21616702   6.147   2.153  16.129  0.3153 -0.1281 -0.5240
  141DOPC  H16R16703   6.253   2.138  16.101  0.1414 -0.6903 -0.8942
  141DOPC  H16S16704   6.088   2.062  16.105  0.6929 -0.1009 -1.6135
  141DOPC  C21716705   6.140   2.188  16.271  0.3227  0.0503  0.4030
  141DOPC  H17R16706   6.040   2.229  16.297 -0.0409 -0.2796 -0.4438
  141DOPC  H17S16707   6.214   2.269  16.287  0.1820  0.0393  1.1501
  141DOPC  C21816708   6.149   2.079  16.368 -0.5555  0.0183 -0.0822
  141DOPC  H18R16709   6.169   2.114  16.472  0.4355 -0.7932  0.0077
  141DOPC  H18S16710   6.215   1.994  16.343 -0.1438  0.3325 -0.0655
  141DOPC  H18T16711   6.045   2.041  16.381  0.0141 -1.2354  1.0444
  141DOPC   C3316712   5.560   2.745  16.114  0.8130 -0.2554  0.3298
  141DOPC   H3X16713   5.522   2.641  16.110 -0.1460 -0.0687  2.7749
  141DOPC   H3Y16714   5.667   2.733  16.144  0.8691  2.9056  1.7876
  141DOPC   C3416715   5.558   2.822  15.971 -0.1203 -0.0455 -0.6764
  141DOPC   H4X16716   5.628   2.756  15.915 -0.3848 -1.6011  0.7414
  141DOPC   H4Y16717   5.604   2.922  15.988 -0.9055  0.5069 -1.7388
  141DOPC   C3516718   5.422   2.824  15.905  0.3180  0.1677 -0.0187
  141DOPC   H5X16719   5.359   2.879  15.979  2.1115 -0.0778  1.7858
  141DOPC   H5Y16720   5.381   2.721  15.893  0.6635  0.1371 -0.9559
  141DOPC   C3616721   5.430   2.903  15.773  0.5543  0.7958 -0.4153
  141DOPC   H6X16722   5.464   3.006  15.798 -1.0615  1.0922  0.6662
  141DOPC   H6Y16723   5.512   2.857  15.713  1.4208  1.1210  0.4899
  141DOPC   C3716724   5.310   2.898  15.683  0.6432 -0.7252 -0.2249
  141DOPC   H7X16725   5.296   2.798  15.637 -0.5985 -2.7823  4.1107
  141DOPC   H7Y16726   5.215   2.912  15.740  0.7531  0.0296 -0.2100
  141DOPC   C3816727   5.304   3.014  15.584  0.0002  0.2277 -0.0036
  141DOPC   H8X16728   5.312   3.107  15.645  0.2844 -1.5346  2.8363
  141DOPC   H8Y16729   5.201   3.011  15.543  0.6736  3.0370 -2.1747
  141DOPC   C3916730   5.409   3.020  15.478  0.0668  0.1236 -0.2172
  141DOPC   H9X16731   5.497   3.069  15.521  0.1367 -1.4716  1.6069
  141DOPC  C31016732   5.405   2.952  15.357 -0.6839  0.2278 -0.1715
  141DOPC  H10X16733   5.491   2.962  15.290 -0.2884  3.0585  0.6104
  141DOPC  C31116734   5.292   2.858  15.311  0.8932  0.3913 -0.1637
  141DOPC  H11X16735   5.253   2.797  15.395  0.3210  1.5480  0.4190
  141DOPC  H11Y16736   5.330   2.798  15.224  0.7689 -2.1992  1.4546
  141DOPC  C31216737   5.166   2.935  15.249 -0.4085  0.1497 -0.5856
  141DOPC  H12X16738   5.114   2.980  15.337  1.4747 -1.9731  1.7896
  141DOPC  H12Y16739   5.109   2.853  15.201  1.4154 -1.1908 -0.5778
  141DOPC  C31316740   5.195   3.040  15.139 -0.6003  0.2907  0.0420
  141DOPC  H13X16741   5.261   3.117  15.183 -1.4268 -0.8062  3.5805
  141DOPC  H13Y16742   5.243   2.997  15.048  0.4247 -0.8264  1.0679
  141DOPC  C31416743   5.064   3.110  15.095  0.0169 -0.4033  0.1462
  141DOPC  H14X16744   5.009   3.036  15.033 -0.0542 -1.1462  1.0827
  141DOPC  H14Y16745   4.989   3.118  15.176  1.1888 -0.4784  1.2778
  141DOPC  C31516746   5.089   3.251  15.035  0.0349  0.7062  0.0183
  141DOPC  H15X16747   5.017   3.269  14.952  0.3760  0.1041 -0.4077
  141DOPC  H15Y16748   5.187   3.256  14.984  1.0512 -1.4949  1.5996
  141DOPC  C31616749   5.074   3.375  15.129 -0.3838  0.1736  0.1095
  141DOPC  H16X16750   4.964   3.391  15.140 -0.6646 -1.5018  0.0259
  141DOPC  H16Y16751   5.113   3.348  15.229 -1.4097  0.5667  0.6377
  141DOPC  C31716752   5.152   3.501  15.110  0.1180 -0.2139  0.2932
  141DOPC  H17X16753   5.143   3.535  15.005  1.0687 -0.6626  0.0557
  141DOPC  H17Y16754   5.119   3.583  15.177  0.1610  0.6106 -0.6795
  141DOPC  C31816755   5.303   3.478  15.129  0.4142  0.2161 -0.4131
  141DOPC  H18X16756   5.320   3.453  15.236 -1.7135 -0.1960 -0.1441
  141DOPC  H18Y16757   5.324   3.384  15.075  2.7145  1.8967 -2.7058
  141DOPC  H18Z16758   5.373   3.554  15.088  0.1109  1.5775  1.4194
  142DOPC     N16759   6.660   2.810  17.324  0.2276  0.4375  0.3772
  142DOPC   C1216760   6.739   2.844  17.198  0.6925  0.2525  0.1095
  142DOPC  H12A16761   6.776   2.752  17.155  1.5987  0.0881  1.1920
  142DOPC  H12B16762   6.826   2.898  17.232  0.6176  1.7171 -1.8494
  142DOPC   C1316763   6.550   2.726  17.296 -0.1795  0.0328 -0.1623
  142DOPC  H13A16764   6.580   2.647  17.228  0.8080 -0.5835  0.9520
  142DOPC  H13B16765   6.502   2.695  17.387  2.1673  1.9836  1.8524
  142DOPC  H13C16766   6.471   2.778  17.243  0.5736 -0.6163 -1.9952
  142DOPC   C1416767   6.612   2.928  17.397  0.1558 -0.3158  0.0836
  142DOPC  H14A16768   6.584   2.906  17.499  0.5588 -1.3358 -0.0126
  142DOPC  H14B16769   6.688   3.000  17.423  0.7572 -1.0653  0.4135
  142DOPC  H14C16770   6.521   2.972  17.358 -0.4908  0.4470  2.2923
  142DOPC   C1516771   6.758   2.738  17.412  0.4903  0.6795  0.1366
  142DOPC  H15A16772   6.794   2.655  17.354 -0.9389  0.8273 -1.0233
  142DOPC  H15B16773   6.708   2.691  17.496  1.3140  1.6372  1.1924
  142DOPC  H15C16774   6.840   2.797  17.450 -0.2390  1.3769  0.6725
  142DOPC   C1116775   6.663   2.930  17.089 -0.7850 -0.5337 -0.4954
  142DOPC  H11A16776   6.625   3.025  17.133 -0.4190 -0.8581  0.5450
  142DOPC  H11B16777   6.741   2.972  17.021 -1.3791 -2.5400 -2.5454
  142DOPC     P16778   6.600   2.762  16.909 -0.0542  0.2790  0.4314
  142DOPC   O1316779   6.476   2.723  16.837 -0.7715 -0.0963 -0.2514
  142DOPC   O1416780   6.683   2.646  16.954  0.1103  0.0115 -0.5096
  142DOPC   O1216781   6.562   2.861  17.017 -0.0278 -0.1691 -0.5456
  142DOPC   O1116782   6.694   2.844  16.811 -0.2008 -0.2422  0.2054
  142DOPC    C116783   6.655   2.968  16.751  0.1669 -0.1624 -0.0251
  142DOPC    HA16784   6.732   3.047  16.760 -0.0318  0.0311 -0.0242
  142DOPC    HB16785   6.561   3.008  16.795  1.2869  2.6352  0.0414
  142DOPC    C216786   6.644   2.949  16.601 -0.3379 -0.3962 -0.2690
  142DOPC    HS16787   6.568   2.868  16.594 -0.3948 -0.5759  1.8451
  142DOPC   O2116788   6.771   2.921  16.544 -0.0018 -0.1509  0.1655
  142DOPC   C2116789   6.762   2.821  16.457  0.4253 -0.2273 -0.5915
  142DOPC   O2216790   6.670   2.737  16.452  0.4287  0.3169 -0.2660
  142DOPC   C2216791   6.878   2.829  16.354  0.2422 -0.2709  0.5508
  142DOPC   H2R16792   6.929   2.730  16.352  1.4612  0.3382 -1.8504
  142DOPC   H2S16793   6.944   2.915  16.378 -0.4587  0.6642 -0.7971
  142DOPC    C316794   6.587   3.076  16.533 -0.5209  0.2078 -0.0006
  142DOPC    HX16795   6.657   3.163  16.539 -2.0499  1.5972 -1.3464
  142DOPC    HY16796   6.496   3.099  16.591  0.1029 -1.3760  1.6813
  142DOPC   O3116797   6.556   3.055  16.398 -0.4842  0.4338  0.5615
  142DOPC   C3116798   6.500   3.156  16.334  0.1253 -0.0694 -0.3565
  142DOPC   O3216799   6.468   3.265  16.379 -0.2163  0.4628 -0.2317
  142DOPC   C3216800   6.482   3.123  16.184  0.2183 -0.1707  0.1821
  142DOPC   H2X16801   6.400   3.188  16.148 -0.4161 -1.1870 -0.2650
  142DOPC   H2Y16802   6.579   3.156  16.139 -0.2370  1.4102  0.3208
  142DOPC   C2316803   6.823   2.855  16.213 -0.2660  0.0672 -0.1309
  142DOPC   H3R16804   6.777   2.956  16.208  0.0976  0.2620  0.3403
  142DOPC   H3S16805   6.744   2.782  16.185 -0.4812  0.2129  0.0864
  142DOPC   C2416806   6.934   2.843  16.111  0.2371 -0.5684 -0.2514
  142DOPC   H4R16807   7.002   2.760  16.138  0.9441  0.7764  2.5363
  142DOPC   H4S16808   6.993   2.937  16.101  0.4261 -0.5778  0.6682
  142DOPC   C2516809   6.885   2.815  15.969  0.1371  0.0361  0.3676
  142DOPC   H5R16810   6.807   2.739  15.987  1.5720 -2.0307 -1.7118
  142DOPC   H5S16811   6.976   2.783  15.915  2.1873  3.2969  1.5791
  142DOPC   C2616812   6.823   2.941  15.903  0.7613 -0.7490 -0.3806
  142DOPC   H6R16813   6.869   3.041  15.921 -0.2032 -0.0834 -1.5007
  142DOPC   H6S16814   6.726   2.961  15.953  1.9904 -2.4305  3.0423
  142DOPC   C2716815   6.793   2.933  15.757  0.0440 -0.0865  0.2975
  142DOPC   H7R16816   6.730   3.019  15.725 -2.5290 -1.8694  0.2587
  142DOPC   H7S16817   6.725   2.850  15.729 -1.0914  1.6843 -2.7542
  142DOPC   C2816818   6.917   2.927  15.665 -0.7967 -0.1093  0.5233
  142DOPC   H8R16819   6.976   2.836  15.690 -0.6856 -0.7695 -1.8861
  142DOPC   H8S16820   6.979   3.017  15.685  0.2233 -0.9602  1.3019
  142DOPC   C2916821   6.885   2.932  15.516  0.3740  0.6142 -0.4751
  142DOPC   H9R16822   6.865   3.034  15.480  1.2457  0.3689 -1.7411
  142DOPC  C21016823   6.859   2.821  15.439  0.1199  0.3116 -0.2601
  142DOPC  H10R16824   6.845   2.842  15.332 -1.5749  1.4807  0.1501
  142DOPC  C21116825   6.861   2.681  15.488  0.1864 -0.5594 -0.2200
  142DOPC  H11R16826   6.777   2.630  15.435 -1.5060  2.0763 -0.2853
  142DOPC  H11S16827   6.843   2.675  15.597  0.6269 -2.5379 -0.2165
  142DOPC  C21216828   6.992   2.617  15.438 -0.1755  0.1091  0.0654
  142DOPC  H12R16829   6.988   2.510  15.468 -1.3642  0.2599  0.5124
  142DOPC  H12S16830   7.082   2.654  15.492  1.5544 -1.5001 -1.5911
  142DOPC  C21316831   7.032   2.612  15.293 -0.8795  0.2898 -0.6423
  142DOPC  H13R16832   6.975   2.688  15.235  0.1720 -0.2303 -2.4106
  142DOPC  H13S16833   7.024   2.510  15.251  0.4813 -0.6079  1.1176
  142DOPC  C21416834   7.184   2.650  15.275  0.4176 -0.2973  0.9300
  142DOPC  H14R16835   7.249   2.605  15.353  1.1512  0.4098  0.7398
  142DOPC  H14S16836   7.189   2.761  15.274  0.1040 -0.2314 -1.9671
  142DOPC  C21516837   7.249   2.614  15.141  0.0597 -0.6054  0.3293
  142DOPC  H15R16838   7.259   2.504  15.131  3.1206 -0.4690  1.0085
  142DOPC  H15S16839   7.353   2.654  15.141  0.1815 -0.8128 -1.6999
  142DOPC  C21616840   7.175   2.669  15.014 -0.8030  0.0648 -0.1605
  142DOPC  H16R16841   7.162   2.779  15.007  0.7446  0.2460 -0.5960
  142DOPC  H16S16842   7.082   2.609  15.018 -0.4127 -0.7068 -1.7047
  142DOPC  C21716843   7.238   2.619  14.886 -0.4370  0.7329 -0.1967
  142DOPC  H17R16844   7.252   2.508  14.888  1.1388  0.8879 -1.3692
  142DOPC  H17S16845   7.341   2.646  14.858 -0.3909 -1.6379 -2.7792
  142DOPC  C21816846   7.139   2.635  14.776 -0.0241 -0.0978 -0.1967
  142DOPC  H18R16847   7.051   2.579  14.815  0.6332 -0.1876  1.2258
  142DOPC  H18S16848   7.157   2.590  14.677 -2.5526 -1.0898 -0.2776
  142DOPC  H18T16849   7.124   2.744  14.756  2.5960  0.0239 -1.8386
  142DOPC   C3316850   6.445   2.979  16.157  0.0862  0.2989  0.1282
  142DOPC   H3X16851   6.388   2.943  16.246 -1.7815  2.8142  0.0608
  142DOPC   H3Y16852   6.534   2.921  16.125 -0.9643 -1.1468 -0.3063
  142DOPC   C3416853   6.349   2.966  16.031 -0.5891 -0.1329 -0.2433
  142DOPC   H4X16854   6.266   3.037  16.045  0.0210  0.5790 -0.1776
  142DOPC   H4Y16855   6.317   2.860  16.020  0.7766 -0.7852  1.4223
  142DOPC   C3516856   6.418   2.979  15.894 -0.1764  0.0391 -0.3540
  142DOPC   H5X16857   6.447   2.878  15.857 -0.9781 -0.2834 -0.1203
  142DOPC   H5Y16858   6.503   3.050  15.907 -0.5786  0.5761 -0.5876
  142DOPC   C3616859   6.318   3.042  15.803  0.1304 -0.4612 -0.3599
  142DOPC   H6X16860   6.224   2.983  15.793 -0.2814 -0.3509  2.1327
  142DOPC   H6Y16861   6.289   3.143  15.839  0.3554 -0.1580 -1.0095
  142DOPC   C3716862   6.382   3.075  15.669 -0.0094 -0.0925 -0.3271
  142DOPC   H7X16863   6.327   3.159  15.621 -0.0658 -0.8030 -1.5431
  142DOPC   H7Y16864   6.489   3.101  15.686  1.1120 -2.0940 -3.2743
  142DOPC   C3816865   6.379   2.958  15.568 -0.2974 -0.5173  0.0602
  142DOPC   H8X16866   6.274   2.946  15.533 -0.0860  0.6442 -1.0413
  142DOPC   H8Y16867   6.399   2.860  15.617 -0.1642  0.0381  1.1370
  142DOPC   C3916868   6.481   2.979  15.456  1.3330 -0.0912  0.4744
  142DOPC   H9X16869   6.577   3.018  15.493  0.7734  0.0514  1.8269
  142DOPC  C31016870   6.445   2.978  15.320 -0.3430 -0.2382  0.4934
  142DOPC  H10X16871   6.525   3.011  15.253  0.8994 -0.3030  1.8845
  142DOPC  C31116872   6.309   2.962  15.259  0.3900  0.0593  0.5948
  142DOPC  H11X16873   6.284   3.045  15.189  0.5478 -0.5478 -0.2029
  142DOPC  H11Y16874   6.228   2.961  15.334 -0.4652  0.0950 -0.3146
  142DOPC  C31216875   6.305   2.824  15.199  0.8165 -0.3328 -0.4406
  142DOPC  H12X16876   6.328   2.740  15.269  1.3308  0.6547  0.6012
  142DOPC  H12Y16877   6.387   2.814  15.126  2.7386  0.3781  1.5160
  142DOPC  C31316878   6.176   2.789  15.121 -0.0009 -0.0234 -0.4393
  142DOPC  H13X16879   6.139   2.691  15.158 -1.9528  0.3636 -1.2543
  142DOPC  H13Y16880   6.101   2.857  15.166 -1.0221 -0.8875 -0.7992
  142DOPC  C31416881   6.182   2.795  14.971  0.1365  0.8836  0.0815
  142DOPC  H14X16882   6.253   2.715  14.940  0.7437  1.7767 -0.8842
  142DOPC  H14Y16883   6.082   2.771  14.929  0.4193  1.5458 -0.9995
  142DOPC  C31516884   6.209   2.927  14.910  0.1432 -0.0352  0.4735
  142DOPC  H15X16885   6.319   2.940  14.921  0.0631  0.5513  0.6133
  142DOPC  H15Y16886   6.166   3.015  14.964  3.2695  1.3191  0.9758
  142DOPC  C31616887   6.173   2.923  14.757 -0.1101 -0.2371 -0.2755
  142DOPC  H16X16888   6.222   2.844  14.696 -1.2447 -1.4988  0.3904
  142DOPC  H16Y16889   6.067   2.891  14.751 -1.0492  1.8870  2.6503
  142DOPC  C31716890   6.191   3.061  14.693 -0.1607 -0.9478  0.0173
  142DOPC  H17X16891   6.154   3.047  14.589 -0.4366  1.5896 -0.2784
  142DOPC  H17Y16892   6.125   3.131  14.748  1.7199  1.7640 -0.9509
  142DOPC  C31816893   6.334   3.126  14.695 -0.0849  0.0945 -0.1301
  142DOPC  H18X16894   6.347   3.198  14.612 -1.9411  0.5720 -0.0587
  142DOPC  H18Y16895   6.362   3.169  14.794 -1.1874  0.0316  0.2257
  142DOPC  H18Z16896   6.410   3.046  14.688  2.2755  2.2504 -0.5610
  143DOPC     N16897   3.439   3.131  16.961 -0.1656 -0.0337  0.5480
  143DOPC   C1216898   3.476   3.272  16.917 -0.1739  0.3993  0.4798
  143DOPC  H12A16899   3.545   3.312  16.990 -2.1436  1.6996  1.7341
  143DOPC  H12B16900   3.380   3.323  16.920 -1.1723 -1.3328 -0.2394
  143DOPC   C1316901   3.331   3.070  16.882  0.0385  0.0687  0.4331
  143DOPC  H13A16902   3.239   3.121  16.904  0.0855  0.9319 -1.2564
  143DOPC  H13B16903   3.354   3.067  16.777  2.5450  1.5514  0.8494
  143DOPC  H13C16904   3.324   2.965  16.908 -0.5711 -0.4705 -1.7480
  143DOPC   C1416905   3.395   3.127  17.109 -0.0688 -0.2772 -0.1122
  143DOPC  H14A16906   3.293   3.089  17.107 -0.7586  1.5057 -1.2982
  143DOPC  H14B16907   3.468   3.080  17.173  0.8110  2.0885  0.7089
  143DOPC  H14C16908   3.387   3.228  17.147 -1.9414 -0.9333  1.4175
  143DOPC   C1516909   3.557   3.042  16.960  0.3744 -0.7703  0.2593
  143DOPC  H15A16910   3.627   3.069  17.037  0.2616 -1.9456  0.8029
  143DOPC  H15B16911   3.606   3.037  16.863 -1.5062  0.7940 -0.8486
  143DOPC  H15C16912   3.530   2.941  16.987  1.4166 -0.2232  3.7839
  143DOPC   C1116913   3.541   3.291  16.775 -0.3659  0.2027  0.0109
  143DOPC  H11A16914   3.476   3.242  16.699  1.2639 -2.7517  0.3788
  143DOPC  H11B16915   3.543   3.399  16.750 -2.0057 -0.0111 -1.1480
  143DOPC     P16916   3.755   3.200  16.649 -0.4358 -0.1480  0.0809
  143DOPC   O1316917   3.772   3.056  16.666 -0.0308 -0.2763 -0.4229
  143DOPC   O1416918   3.874   3.283  16.632  0.5055 -0.0937  0.0457
  143DOPC   O1216919   3.673   3.235  16.785 -0.2087 -0.0442  0.3417
  143DOPC   O1116920   3.658   3.220  16.528 -0.0828 -0.0549 -0.3626
  143DOPC    C116921   3.695   3.204  16.388 -0.2145 -0.4183  0.1467
  143DOPC    HA16922   3.782   3.267  16.360  1.2067 -1.0517  2.8627
  143DOPC    HB16923   3.605   3.237  16.331  0.2476 -0.2120 -0.4762
  143DOPC    C216924   3.718   3.055  16.353  0.0838  0.2640 -0.5172
  143DOPC    HS16925   3.800   3.022  16.420 -0.1556 -0.8550 -0.7663
  143DOPC   O2116926   3.751   3.038  16.213 -0.3673  0.0025  0.2200
  143DOPC   C2116927   3.864   3.088  16.174 -0.3224  0.4604  0.3822
  143DOPC   O2216928   3.956   3.130  16.243 -0.1750 -0.1450  0.1643
  143DOPC   C2216929   3.857   3.103  16.020  0.4217  0.0185 -0.0616
  143DOPC   H2R16930   3.765   3.162  16.001  0.4823 -0.1972 -1.1137
  143DOPC   H2S16931   3.843   2.998  15.986 -2.5385  1.3292 -3.6094
  143DOPC    C316932   3.598   2.963  16.397 -0.4483 -0.3882 -0.3049
  143DOPC    HX16933   3.582   2.957  16.506 -1.2960 -1.4275 -0.4689
  143DOPC    HY16934   3.627   2.861  16.364 -0.7431 -0.4404 -0.4037
  143DOPC   O3116935   3.472   3.010  16.346 -0.4688  0.3318  0.0953
  143DOPC   C3116936   3.421   2.935  16.251  0.5648 -0.5003  0.0064
  143DOPC   O3216937   3.455   2.820  16.222  0.1088 -0.0421  0.5646
  143DOPC   C3216938   3.307   3.014  16.189 -0.0064  0.1808  0.2842
  143DOPC   H2X16939   3.249   2.945  16.123 -0.4081  1.7111 -1.0396
  143DOPC   H2Y16940   3.232   3.047  16.264 -2.9688 -3.0661 -0.9711
  143DOPC   C2316941   3.972   3.173  15.951 -0.2683 -0.7458 -0.0947
  143DOPC   H3R16942   4.066   3.114  15.946  0.0563 -0.2346 -0.1760
  143DOPC   H3S16943   3.990   3.261  16.017 -0.5566  1.4864 -2.8058
  143DOPC   C2416944   3.944   3.239  15.818 -0.3095 -0.2042  0.5034
  143DOPC   H4R16945   3.862   3.310  15.842 -0.8011 -1.4971  2.8769
  143DOPC   H4S16946   3.915   3.171  15.735  0.3704  0.3385 -0.1919
  143DOPC   C2516947   4.071   3.320  15.772  0.6793 -0.5367  0.0917
  143DOPC   H5R16948   4.156   3.251  15.754  1.1729 -0.1365  0.8461
  143DOPC   H5S16949   4.105   3.378  15.860  1.0187 -1.3389  0.5027
  143DOPC   C2616950   4.059   3.411  15.644 -0.3608  0.1680 -0.2707
  143DOPC   H6R16951   4.154   3.467  15.628 -0.1183  0.1361  0.9494
  143DOPC   H6S16952   3.983   3.489  15.668 -1.8820 -1.2888 -0.2085
  143DOPC   C2716953   4.037   3.319  15.519  0.4493 -0.5203 -0.1767
  143DOPC   H7R16954   3.936   3.276  15.535  0.9577 -0.5269  4.2606
  143DOPC   H7S16955   4.119   3.245  15.533  0.9668  0.1691  0.5476
  143DOPC   C2816956   4.047   3.403  15.394  0.2574  0.8331  0.0102
  143DOPC   H8R16957   4.147   3.452  15.398  0.8313 -0.3627  2.0269
  143DOPC   H8S16958   3.976   3.487  15.410 -1.7698 -1.2139  2.6786
  143DOPC   C2916959   4.024   3.319  15.275  0.5593  0.1694 -0.2061
  143DOPC   H9R16960   3.940   3.248  15.278  1.0596 -0.3972  1.6530
  143DOPC  C21016961   4.095   3.316  15.164 -0.3163 -0.0040 -0.2197
  143DOPC  H10R16962   4.066   3.248  15.083 -1.2854 -2.4884  2.0688
  143DOPC  C21116963   4.218   3.402  15.132  0.4212 -0.6339  0.3159
  143DOPC  H11R16964   4.294   3.404  15.212  2.1809  0.5044 -1.2980
  143DOPC  H11S16965   4.182   3.507  15.128  1.6709 -0.2277 -2.4607
  143DOPC  C21216966   4.289   3.356  15.008  0.3633  0.6619  0.1875
  143DOPC  H12R16967   4.314   3.248  15.011  2.4571  0.8839 -3.3292
  143DOPC  H12S16968   4.379   3.420  15.011 -1.3127  3.1183  0.7097
  143DOPC  C21316969   4.217   3.382  14.875 -0.5467  0.2039  0.2563
  143DOPC  H13R16970   4.255   3.476  14.829 -1.1290 -0.9112 -2.7646
  143DOPC  H13S16971   4.107   3.398  14.882 -0.5562  3.9527 -3.7737
  143DOPC  C21416972   4.233   3.272  14.767  0.4361 -0.7102  0.9351
  143DOPC  H14R16973   4.202   3.179  14.821 -0.9525  1.4910  4.2773
  143DOPC  H14S16974   4.340   3.261  14.740  0.1489 -2.2375  0.2988
  143DOPC  C21516975   4.140   3.294  14.646  0.2222 -0.0977  0.7028
  143DOPC  H15R16976   4.138   3.394  14.597 -0.7658 -1.0067 -1.2451
  143DOPC  H15S16977   4.035   3.280  14.680 -0.7493  1.5458 -1.3505
  143DOPC  C21616978   4.166   3.197  14.525 -0.1305  0.5630  0.0948
  143DOPC  H16R16979   4.094   3.218  14.443  0.4122 -1.9793 -1.1071
  143DOPC  H16S16980   4.131   3.098  14.562 -0.4483  0.9635  0.9039
  143DOPC  C21716981   4.309   3.189  14.475  0.2498  0.3625  0.0792
  143DOPC  H17R16982   4.367   3.117  14.538  0.0946 -3.2271 -3.4480
  143DOPC  H17S16983   4.355   3.289  14.469  2.4714 -0.5319  1.0505
  143DOPC  C21816984   4.331   3.120  14.337  0.2164 -0.1347  0.8411
  143DOPC  H18R16985   4.437   3.128  14.305 -0.4403  3.1486 -0.9666
  143DOPC  H18S16986   4.263   3.180  14.273 -1.2818 -1.5719  1.0328
  143DOPC  H18T16987   4.284   3.020  14.330 -2.0997  0.9872 -1.2809
  143DOPC   C3316988   3.360   3.126  16.095  0.2359 -0.0761 -0.3031
  143DOPC   H3X16989   3.407   3.200  16.163  2.2362 -0.2901 -1.3559
  143DOPC   H3Y16990   3.270   3.171  16.049  0.3539 -1.8260 -2.4125
  143DOPC   C3416991   3.453   3.083  15.983  0.3426  0.0942  0.4847
  143DOPC   H4X16992   3.406   3.002  15.923 -1.2079 -0.5715  2.4954
  143DOPC   H4Y16993   3.548   3.041  16.022 -0.0316 -1.4271 -0.1577
  143DOPC   C3516994   3.489   3.205  15.895 -0.0831  0.2827  0.4889
  143DOPC   H5X16995   3.568   3.267  15.942  1.7082 -1.6023  0.1346
  143DOPC   H5Y16996   3.397   3.257  15.861  0.4002  0.6184 -0.3421
  143DOPC   C3616997   3.547   3.156  15.760  0.0347 -0.4812 -0.3664
  143DOPC   H6X16998   3.637   3.093  15.770 -1.2747 -2.2564  0.7100
  143DOPC   H6Y16999   3.473   3.087  15.714 -0.8768  0.3647 -0.2106
  143DOPC   C3717000   3.570   3.264  15.649 -0.4571  0.7157  0.2260
  143DOPC   H7X17001   3.475   3.318  15.630 -0.4553  1.0999  1.2181
  143DOPC   H7Y17002   3.639   3.339  15.695 -0.3780 -0.3799  2.0030
  143DOPC   C3817003   3.630   3.192  15.526 -0.2916  0.3376 -0.6520
  143DOPC   H8X17004   3.569   3.107  15.489 -1.0256 -0.0397  1.3081
  143DOPC   H8Y17005   3.725   3.144  15.559 -1.4079 -1.4128  0.1874
  143DOPC   C3917006   3.655   3.295  15.420 -0.3096  0.1397 -0.1062
  143DOPC   H9X17007   3.753   3.341  15.437 -0.7092  0.4478  1.5420
  143DOPC  C31017008   3.590   3.321  15.304 -0.6081  0.3670  1.0423
  143DOPC  H10X17009   3.615   3.412  15.247  0.3432 -0.0817  0.7348
  143DOPC  C31117010   3.470   3.250  15.252  0.3451 -0.2634 -0.4231
  143DOPC  H11X17011   3.383   3.317  15.236 -1.0144 -1.5203  1.2408
  143DOPC  H11Y17012   3.426   3.191  15.335 -1.0966  0.7882 -0.3900
  143DOPC  C31217013   3.500   3.166  15.129  0.9138 -0.2277  0.7679
  143DOPC  H12X17014   3.408   3.105  15.115 -0.0640  1.4881 -0.7924
  143DOPC  H12Y17015   3.582   3.093  15.140 -0.2978 -2.0039 -1.2826
  143DOPC  C31317016   3.534   3.243  14.992 -0.2920 -0.4261 -0.6749
  143DOPC  H13X17017   3.627   3.300  15.011 -1.1294  0.4266  1.1414
  143DOPC  H13Y17018   3.563   3.165  14.919  0.2642 -0.4427 -0.4427
  143DOPC  C31417019   3.419   3.332  14.948 -0.4909 -0.5279 -0.1964
  143DOPC  H14X17020   3.322   3.281  14.970  0.2174 -2.6924 -1.7680
  143DOPC  H14Y17021   3.432   3.412  15.025 -0.0299 -0.4001 -0.4084
  143DOPC  C31517022   3.410   3.396  14.810 -0.0992  0.5588  0.0010
  143DOPC  H15X17023   3.478   3.482  14.792 -0.5222  0.5959 -1.5360
  143DOPC  H15Y17024   3.309   3.441  14.803  0.5023  2.3587  2.0041
  143DOPC  C31617025   3.438   3.296  14.697  0.3095  0.2342 -0.2366
  143DOPC  H16X17026   3.543   3.277  14.666 -0.0324 -0.8419 -0.7732
  143DOPC  H16Y17027   3.398   3.199  14.734 -1.1065  0.6257 -0.6657
  143DOPC  C31717028   3.350   3.317  14.566  0.2439 -0.4067 -0.4691
  143DOPC  H17X17029   3.357   3.231  14.495 -0.8587 -0.5833 -0.3840
  143DOPC  H17Y17030   3.246   3.324  14.602  0.2007 -0.5637 -0.5595
  143DOPC  C31817031   3.376   3.444  14.489 -0.3291  0.0896 -0.0124
  143DOPC  H18X17032   3.352   3.537  14.545  0.2617  0.4929 -0.4092
  143DOPC  H18Y17033   3.482   3.447  14.457 -0.5551  2.2264 -0.7257
  143DOPC  H18Z17034   3.306   3.445  14.403  0.3176 -1.0177 -0.5668
  144DOPC     N17035   5.237   1.954  17.293  0.6812 -0.1006  0.4782
  144DOPC   C1217036   5.272   1.883  17.158  0.1769  0.2989  0.6698
  144DOPC  H12A17037   5.229   1.948  17.083 -0.0954  0.8102  1.2599
  144DOPC  H12B17038   5.218   1.791  17.142  1.7493 -0.4381 -0.7361
  144DOPC   C1317039   5.287   1.867  17.397 -0.1930  0.2938  0.0673
  144DOPC  H13A17040   5.264   1.764  17.372 -2.9612  0.7773  0.2397
  144DOPC  H13B17041   5.390   1.890  17.415 -0.5608  0.7977  1.6411
  144DOPC  H13C17042   5.246   1.887  17.495  0.2130 -0.5629  0.4168
  144DOPC   C1417043   5.091   1.988  17.291  0.9378  0.7411  0.0908
  144DOPC  H14A17044   5.056   2.027  17.197 -0.7382 -0.7207  0.0495
  144DOPC  H14B17045   5.033   1.897  17.299  0.4670  1.0597  0.3947
  144DOPC  H14C17046   5.055   2.057  17.366  0.7005  0.4654  0.2392
  144DOPC   C1517047   5.305   2.084  17.298  0.5838  0.6166 -0.0777
  144DOPC  H15A17048   5.260   2.154  17.229 -4.4931 -2.3023 -0.1735
  144DOPC  H15B17049   5.407   2.061  17.272  0.3823 -0.5925  0.1464
  144DOPC  H15C17050   5.298   2.124  17.399  2.5170 -0.2428  0.4583
  144DOPC   C1117051   5.416   1.849  17.119  0.4661  0.2724 -0.1346
  144DOPC  H11A17052   5.454   1.777  17.195 -0.1091 -0.2347 -0.3203
  144DOPC  H11B17053   5.399   1.791  17.026 -0.9755  2.3370 -1.2406
  144DOPC     P17054   5.658   1.958  17.100 -0.0462  0.1789  0.2300
  144DOPC   O1317055   5.686   1.916  17.241  0.1811 -0.5195 -0.8318
  144DOPC   O1417056   5.720   2.086  17.057  0.3225 -0.5450  0.1658
  144DOPC   O1217057   5.498   1.967  17.093 -0.4618 -0.0047 -0.6225
  144DOPC   O1117058   5.686   1.839  17.002  0.7848 -0.0301  0.7334
  144DOPC    C117059   5.800   1.837  16.916 -0.5390 -0.2965  0.7619
  144DOPC    HA17060   5.817   1.729  16.895 -1.5292 -0.4404  0.6515
  144DOPC    HB17061   5.895   1.875  16.959 -0.4783  0.1206  0.2658
  144DOPC    C217062   5.767   1.886  16.776 -0.6396 -0.0988 -0.1207
  144DOPC    HS17063   5.718   1.984  16.791 -2.8998 -1.2914  0.7601
  144DOPC   O2117064   5.677   1.792  16.713  0.0972  0.2994 -0.2411
  144DOPC   C2117065   5.561   1.846  16.676 -0.5283 -0.1347 -0.2923
  144DOPC   O2217066   5.524   1.963  16.699  0.2761  0.0977 -0.3283
  144DOPC   C2217067   5.476   1.739  16.601  0.4728  0.0521  0.1507
  144DOPC   H2R17068   5.376   1.727  16.648  0.3036  1.6177  0.2422
  144DOPC   H2S17069   5.531   1.642  16.601  2.3724  1.0228  2.7536
  144DOPC    C317070   5.895   1.912  16.691 -0.1669 -0.1575  0.3567
  144DOPC    HX17071   5.928   1.807  16.677 -1.9929 -0.4027 -3.1205
  144DOPC    HY17072   5.970   1.978  16.740  0.2802 -0.7302  0.4547
  144DOPC   O3117073   5.852   1.963  16.560 -0.9049 -0.1077 -0.7586
  144DOPC   C3117074   5.838   2.095  16.554  0.2986 -0.5424  0.2590
  144DOPC   O3217075   5.870   2.175  16.643  0.3403  0.2006 -0.0188
  144DOPC   C3217076   5.758   2.115  16.424 -0.2266 -0.0464 -0.0894
  144DOPC   H2X17077   5.804   2.051  16.347  1.1958  1.0554 -0.1889
  144DOPC   H2Y17078   5.651   2.086  16.439 -0.1521 -0.3127 -0.0780
  144DOPC   C2317079   5.452   1.778  16.452 -0.3256  0.7157 -0.8736
  144DOPC   H3R17080   5.548   1.824  16.419 -0.1573  0.4408 -0.7786
  144DOPC   H3S17081   5.371   1.853  16.445  1.0770  2.1535 -2.8157
  144DOPC   C2417082   5.414   1.660  16.358 -0.1887  0.2413  0.3900
  144DOPC   H4R17083   5.314   1.626  16.390  0.1431  0.3088  1.5496
  144DOPC   H4S17084   5.484   1.574  16.366 -0.3827  0.0202 -0.2494
  144DOPC   C2517085   5.400   1.701  16.210 -0.2163 -0.5320 -0.0811
  144DOPC   H5R17086   5.379   1.609  16.150 -1.1691  0.0540 -0.6753
  144DOPC   H5S17087   5.503   1.731  16.181 -0.7497  0.5061 -0.9452
  144DOPC   C2617088   5.302   1.815  16.183 -0.1453  0.0918 -0.0347
  144DOPC   H6R17089   5.357   1.908  16.205  0.5377 -0.3131 -0.0099
  144DOPC   H6S17090   5.211   1.803  16.246 -1.1251  0.4728 -1.3315
  144DOPC   C2717091   5.256   1.816  16.032 -0.5093 -0.0698  0.3530
  144DOPC   H7R17092   5.209   1.722  15.994  0.5813 -0.0247 -1.2116
  144DOPC   H7S17093   5.351   1.824  15.975 -0.1163  0.3177  1.0499
  144DOPC   C2817094   5.163   1.935  15.991 -0.4524  0.2946 -0.0166
  144DOPC   H8R17095   5.153   1.928  15.881 -0.6469 -2.6276  0.0915
  144DOPC   H8S17096   5.226   2.018  16.030  1.0154 -0.5064 -0.6087
  144DOPC   C2917097   5.024   1.914  16.051  0.1541 -0.1842 -0.0042
  144DOPC   H9R17098   4.973   1.820  16.024  1.6180 -0.9611 -0.1550
  144DOPC  C21017099   4.961   2.009  16.109  0.5868  0.1153 -0.0391
  144DOPC  H10R17100   4.854   1.997  16.135  0.4443  1.0798 -0.1660
  144DOPC  C21117101   5.014   2.149  16.124  0.7582  0.1631 -0.5888
  144DOPC  H11R17102   4.922   2.210  16.109 -1.0271 -2.7868 -2.7351
  144DOPC  H11S17103   5.074   2.172  16.034  2.0525  0.5677  0.3485
  144DOPC  C21217104   5.098   2.198  16.241 -0.5896 -0.4805 -0.7755
  144DOPC  H12R17105   5.183   2.127  16.239 -1.8325 -2.4677  3.7572
  144DOPC  H12S17106   5.031   2.188  16.330  1.4953 -2.0274  0.7042
  144DOPC  C21317107   5.139   2.350  16.231  0.1628  0.4873 -0.1069
  144DOPC  H13R17108   5.207   2.381  16.313 -0.3053  2.3146 -0.3686
  144DOPC  H13S17109   5.052   2.415  16.255 -0.1168  0.4456 -0.9949
  144DOPC  C21417110   5.201   2.406  16.098 -0.3098  0.1152  0.7150
  144DOPC  H14R17111   5.122   2.394  16.020 -0.2053 -0.9939  0.7648
  144DOPC  H14S17112   5.287   2.346  16.061 -2.2915 -0.4639 -3.5859
  144DOPC  C21517113   5.236   2.553  16.100  0.0887 -0.7096 -0.2956
  144DOPC  H15R17114   5.281   2.580  16.002  0.5186 -1.7550 -0.3946
  144DOPC  H15S17115   5.311   2.590  16.173 -0.9678  1.6026 -0.2686
  144DOPC  C21617116   5.111   2.656  16.115 -0.2158  0.8078 -0.6372
  144DOPC  H16R17117   5.143   2.760  16.094  0.8728  0.6578  0.1981
  144DOPC  H16S17118   5.062   2.647  16.214 -0.6399  4.1287 -0.4284
  144DOPC  C21717119   4.991   2.648  16.022  0.2474  0.0536 -0.3664
  144DOPC  H17R17120   4.909   2.706  16.070 -0.5490 -2.4842  1.5234
  144DOPC  H17S17121   4.951   2.544  16.024 -1.0287  0.5286  1.3537
  144DOPC  C21817122   5.011   2.691  15.883 -0.2063  0.7216  0.7504
  144DOPC  H18R17123   5.114   2.668  15.850 -0.4053 -0.2345  0.7579
  144DOPC  H18S17124   4.988   2.799  15.871 -0.1626  0.6378 -0.1093
  144DOPC  H18T17125   4.947   2.632  15.813 -0.9213 -0.0504  2.0085
  144DOPC   C3317126   5.767   2.264  16.377 -0.3514  0.2419 -0.6407
  144DOPC   H3X17127   5.862   2.309  16.412  1.5135 -2.2459 -2.1155
  144DOPC   H3Y17128   5.681   2.326  16.409 -0.5233 -0.9264  1.2727
  144DOPC   C3417129   5.774   2.279  16.223  1.0528  0.2348 -0.7395
  144DOPC   H4X17130   5.676   2.235  16.193 -0.7186  1.8791  2.1896
  144DOPC   H4Y17131   5.856   2.225  16.171 -0.5158 -1.2816 -1.7602
  144DOPC   C3517132   5.763   2.427  16.188 -0.2457 -0.2646  0.3281
  144DOPC   H5X17133   5.843   2.494  16.227 -0.3023 -0.6281  1.0979
  144DOPC   H5Y17134   5.664   2.465  16.223 -2.1288 -1.2235 -3.3933
  144DOPC   C3617135   5.758   2.461  16.034  0.2121 -0.1629 -0.5571
  144DOPC   H6X17136   5.739   2.570  16.019 -1.8310 -0.0901  1.8696
  144DOPC   H6Y17137   5.857   2.444  15.986 -0.4151 -0.4135 -1.8081
  144DOPC   C3717138   5.639   2.387  15.966 -0.3577 -0.1134 -0.2917
  144DOPC   H7X17139   5.642   2.276  15.962 -3.6799 -0.3137  0.1987
  144DOPC   H7Y17140   5.548   2.413  16.024  1.0391 -0.1155  2.0405
  144DOPC   C3817141   5.619   2.424  15.819  0.2886 -0.7772  0.1219
  144DOPC   H8X17142   5.699   2.374  15.760  0.7649  0.5261 -0.3687
  144DOPC   H8Y17143   5.637   2.532  15.803 -0.8578 -0.8001 -1.5515
  144DOPC   C3917144   5.487   2.379  15.768 -0.2208  0.0323 -0.6803
  144DOPC   H9X17145   5.446   2.306  15.840 -0.1852  1.2355  0.6065
  144DOPC  C31017146   5.410   2.431  15.671 -0.1858  0.0668 -0.3713
  144DOPC  H10X17147   5.306   2.396  15.656 -0.3899  0.7332 -0.5426
  144DOPC  C31117148   5.455   2.548  15.585 -0.2104  0.5611  0.4727
  144DOPC  H11X17149   5.547   2.598  15.622 -0.1595  0.1861  0.8624
  144DOPC  H11Y17150   5.369   2.618  15.576  0.5632  1.5478  0.5247
  144DOPC  C31217151   5.510   2.491  15.455  0.6813 -0.8104 -0.8648
  144DOPC  H12X17152   5.426   2.428  15.418 -0.2377 -1.2644  1.7783
  144DOPC  H12Y17153   5.588   2.415  15.476  0.9235  0.0785  1.7205
  144DOPC  C31317154   5.555   2.591  15.348  0.4078  0.0149 -0.0954
  144DOPC  H13X17155   5.465   2.627  15.294  1.1824 -1.2892 -2.3741
  144DOPC  H13Y17156   5.610   2.677  15.393  1.2328 -0.4812 -0.1312
  144DOPC  C31417157   5.633   2.518  15.235 -0.0424  0.6458  0.2938
  144DOPC  H14X17158   5.586   2.418  15.223  0.9885  0.0426  1.0523
  144DOPC  H14Y17159   5.613   2.569  15.139 -0.3545  0.8985  0.4924
  144DOPC  C31517160   5.784   2.506  15.268 -0.5578  0.5060  0.3777
  144DOPC  H15X17161   5.795   2.477  15.375  0.7068  1.0843  0.4128
  144DOPC  H15Y17162   5.848   2.596  15.258 -0.4542  0.7858  2.8232
  144DOPC  C31617163   5.853   2.377  15.211  0.7812 -0.1706 -0.6802
  144DOPC  H16X17164   5.953   2.357  15.253  0.9965 -0.7121 -1.4271
  144DOPC  H16Y17165   5.792   2.288  15.239  1.1342 -1.1992 -2.9261
  144DOPC  C31717166   5.870   2.391  15.056 -0.3654  0.0257  0.2990
  144DOPC  H17X17167   5.771   2.394  15.006 -0.5315 -0.7591  0.5627
  144DOPC  H17Y17168   5.919   2.484  15.021 -1.4117  1.1811  1.7836
  144DOPC  C31817169   5.942   2.265  14.991  0.3249 -0.8207  0.0899
  144DOPC  H18X17170   6.052   2.271  15.007  0.1406  2.7880  0.8568
  144DOPC  H18Y17171   5.899   2.169  15.028 -1.0934  0.3599  1.6459
  144DOPC  H18Z17172   5.937   2.270  14.880 -0.2295  0.6677  0.1602
  145DOPC     N17173   5.701   4.853  16.952 -0.1003  0.0129 -0.1464
  145DOPC   C1217174   5.719   4.947  16.840  0.4939 -0.6807  0.3909
  145DOPC  H12A17175   5.825   4.956  16.818  0.3208  2.4493  0.3159
  145DOPC  H12B17176   5.689   5.046  16.874  0.2962 -0.4109 -0.5543
  145DOPC   C1317177   5.760   4.722  16.912  0.0764  0.0501 -0.2783
  145DOPC  H13A17178   5.707   4.683  16.826 -0.0344  0.5486 -0.4384
  145DOPC  H13B17179   5.865   4.733  16.886  0.4398 -1.2495  0.5609
  145DOPC  H13C17180   5.752   4.655  16.996 -0.6811  2.0762  1.3513
  145DOPC   C1417181   5.558   4.828  16.982 -0.4669 -0.4151  0.0614
  145DOPC  H14A17182   5.517   4.928  16.989  2.5630  1.0222 -1.1145
  145DOPC  H14B17183   5.509   4.796  16.890 -0.2092  3.2071 -1.4976
  145DOPC  H14C17184   5.541   4.753  17.058 -0.1340 -1.0861 -0.5105
  145DOPC   C1517185   5.785   4.900  17.073  0.5420 -0.4626 -0.2951
  145DOPC  H15A17186   5.764   4.832  17.155 -3.0327  0.6650 -0.0892
  145DOPC  H15B17187   5.746   4.994  17.110 -1.4193 -1.4940  0.4507
  145DOPC  H15C17188   5.888   4.918  17.050 -0.1018 -0.1929 -3.3475
  145DOPC   C1117189   5.648   4.926  16.708  0.0594 -0.1421  0.4701
  145DOPC  H11A17190   5.698   4.992  16.633 -0.7811  1.0885  0.9566
  145DOPC  H11B17191   5.656   4.820  16.679 -0.8428  0.0575 -0.5768
  145DOPC     P17192   5.467   5.103  16.735  0.3233 -0.2577  0.1805
  145DOPC   O1317193   5.555   5.181  16.821  0.3516  0.1195 -0.2957
  145DOPC   O1417194   5.322   5.092  16.767  0.1393 -0.0891 -0.4925
  145DOPC   O1217195   5.511   4.954  16.718  0.2589 -0.2542 -0.0311
  145DOPC   O1117196   5.472   5.168  16.594  0.5096  0.6612 -0.2723
  145DOPC    C117197   5.495   5.110  16.465  0.2737  0.6269 -0.7624
  145DOPC    HA17198   5.510   5.001  16.478  2.3362  0.8441 -0.9688
  145DOPC    HB17199   5.593   5.150  16.430 -0.7981  2.6185 -1.7079
  145DOPC    C217200   5.384   5.137  16.358 -0.5291  0.3417 -0.4017
  145DOPC    HS17201   5.414   5.097  16.259 -0.0494  1.1108 -0.5799
  145DOPC   O2117202   5.351   5.280  16.347 -0.0461 -0.2115  0.2203
  145DOPC   C2117203   5.449   5.355  16.297  0.7451  0.1044 -0.2506
  145DOPC   O2217204   5.560   5.315  16.264  0.4470 -0.6575  0.6969
  145DOPC   C2217205   5.395   5.498  16.279  0.2245 -0.1260  0.3008
  145DOPC   H2R17206   5.470   5.575  16.306  0.8115 -0.3052 -0.7795
  145DOPC   H2S17207   5.316   5.504  16.358 -0.9022  0.7994 -0.8633
  145DOPC    C317208   5.256   5.052  16.394  0.4833  0.0767  0.6072
  145DOPC    HX17209   5.217   5.082  16.494  0.0130 -0.5697  0.6253
  145DOPC    HY17210   5.284   4.945  16.391 -2.4092 -0.7625 -1.1255
  145DOPC   O3117211   5.153   5.063  16.295  0.3466  0.0364  0.7068
  145DOPC   C3117212   5.040   5.004  16.326 -0.0566  0.4583  0.1319
  145DOPC   O3217213   5.019   4.940  16.426  0.2336 -0.3634  0.4372
  145DOPC   C3217214   4.944   5.004  16.209  0.7578  0.3706  0.4047
  145DOPC   H2X17215   4.981   4.949  16.120  0.5826  0.6385  0.1643
  145DOPC   H2Y17216   4.848   4.957  16.237  1.4062 -3.2638 -2.6428
  145DOPC   C2317217   5.322   5.517  16.150  0.8264 -0.1252  0.8655
  145DOPC   H3R17218   5.227   5.460  16.155 -1.7064  3.4674 -1.4678
  145DOPC   H3S17219   5.371   5.477  16.058 -1.4309 -0.7738 -0.1296
  145DOPC   C2417220   5.283   5.660  16.114  0.1644  0.3386  0.1398
  145DOPC   H4R17221   5.372   5.720  16.085  0.7847 -0.0950  1.0907
  145DOPC   H4S17222   5.240   5.700  16.208 -0.2800 -0.6813  0.3826
  145DOPC   C2517223   5.180   5.667  16.002 -0.4430 -0.1498 -0.0634
  145DOPC   H5R17224   5.132   5.767  16.005 -0.8863 -0.3279 -0.8482
  145DOPC   H5S17225   5.102   5.590  16.021  1.2500 -2.6253 -2.4575
  145DOPC   C2617226   5.245   5.649  15.866  0.3422 -0.3519 -0.7951
  145DOPC   H6R17227   5.288   5.546  15.858  1.6499  0.1140 -0.0678
  145DOPC   H6S17228   5.318   5.729  15.843  0.9884 -0.5094  0.5700
  145DOPC   C2717229   5.137   5.658  15.747 -0.1790  0.5738  0.0850
  145DOPC   H7R17230   5.199   5.629  15.659  0.3400 -1.5318  1.0956
  145DOPC   H7S17231   5.091   5.758  15.728  2.1417  1.5575 -0.7161
  145DOPC   C2817232   5.024   5.553  15.762 -0.7034  0.1337  0.4588
  145DOPC   H8R17233   4.959   5.583  15.847 -0.7634 -3.1049  1.6670
  145DOPC   H8S17234   5.077   5.463  15.799  1.6305  1.8403  1.5732
  145DOPC   C2917235   4.948   5.512  15.633 -0.1467 -0.0806 -0.0759
  145DOPC   H9R17236   4.941   5.599  15.566  0.6436  0.3482  0.3838
  145DOPC  C21017237   4.898   5.397  15.583 -0.1675  0.5109  1.0363
  145DOPC  H10R17238   4.848   5.398  15.486  0.0062 -0.7455  0.9186
  145DOPC  C21117239   4.912   5.262  15.661  0.2372  0.1916  0.2017
  145DOPC  H11R17240   4.824   5.239  15.724  0.5817 -0.9928  0.2743
  145DOPC  H11S17241   4.999   5.268  15.729  1.6896  2.6959 -1.6853
  145DOPC  C21217242   4.942   5.135  15.573  0.1346  0.0640  0.6661
  145DOPC  H12R17243   4.849   5.103  15.520  0.4382  0.3606 -0.0591
  145DOPC  H12S17244   4.964   5.052  15.644 -1.0441 -0.5868  0.2982
  145DOPC  C21317245   5.051   5.158  15.474  0.3991 -0.4861  0.1460
  145DOPC  H13R17246   5.141   5.204  15.518  1.5661  0.8101 -3.2289
  145DOPC  H13S17247   5.008   5.214  15.388 -2.0412 -1.5664  0.5699
  145DOPC  C21417248   5.102   5.025  15.409 -0.1886 -1.6389 -0.1520
  145DOPC  H14R17249   5.007   4.975  15.379 -1.9141  2.2767 -1.9278
  145DOPC  H14S17250   5.150   4.963  15.487 -1.6747 -1.7449  0.7337
  145DOPC  C21517251   5.205   5.058  15.301  1.1703 -0.0056  0.7987
  145DOPC  H15R17252   5.305   5.077  15.345  2.4577  0.5417 -2.1411
  145DOPC  H15S17253   5.176   5.148  15.243  0.6529  0.3742  1.6192
  145DOPC  C21617254   5.217   4.935  15.205 -0.1912 -0.0561 -0.0470
  145DOPC  H16R17255   5.124   4.931  15.145 -0.8492  4.4154  0.2952
  145DOPC  H16S17256   5.213   4.846  15.271 -2.0072 -1.2699 -1.6827
  145DOPC  C21717257   5.348   4.931  15.126  0.2297  0.2104 -0.5135
  145DOPC  H17R17258   5.420   4.917  15.209 -2.4030  1.9728  2.3136
  145DOPC  H17S17259   5.370   5.031  15.082 -0.6648 -0.0572 -1.6241
  145DOPC  C21817260   5.344   4.825  15.015  0.0192 -1.0911 -0.2669
  145DOPC  H18R17261   5.448   4.801  14.986  0.4500  1.3859 -0.9483
  145DOPC  H18S17262   5.296   4.874  14.928  0.8961  0.4683  0.0993
  145DOPC  H18T17263   5.294   4.731  15.047 -0.0407 -1.1204 -0.4456
  145DOPC   C3317264   4.898   5.147  16.160  0.0633  0.0923 -0.2553
  145DOPC   H3X17265   4.984   5.205  16.119  0.4675 -1.2389 -1.3956
  145DOPC   H3Y17266   4.874   5.207  16.249 -0.1478 -2.2364  1.3570
  145DOPC   C3417267   4.779   5.136  16.066  0.2724 -0.3541  0.3486
  145DOPC   H4X17268   4.755   5.238  16.031  1.6495  0.2249  1.0351
  145DOPC   H4Y17269   4.694   5.102  16.129  0.1792  1.0530  1.0056
  145DOPC   C3517270   4.801   5.042  15.948  0.2965 -0.4864  0.2819
  145DOPC   H5X17271   4.832   4.942  15.986 -3.7447 -1.4254  1.6256
  145DOPC   H5Y17272   4.881   5.077  15.879 -1.5515  2.1019 -0.7015
  145DOPC   C3617273   4.668   5.011  15.874 -0.1994 -0.5808 -0.6449
  145DOPC   H6X17274   4.582   5.000  15.944 -0.4758  0.8055 -0.7481
  145DOPC   H6Y17275   4.637   5.103  15.821 -1.4802 -2.0093 -2.5524
  145DOPC   C3717276   4.678   4.889  15.785 -0.4837 -0.0403 -0.3193
  145DOPC   H7X17277   4.769   4.911  15.725  0.9925 -1.9112  1.0817
  145DOPC   H7Y17278   4.695   4.796  15.844  0.4883  0.2421 -0.1204
  145DOPC   C3817279   4.559   4.868  15.685  0.1621 -0.1602 -0.5984
  145DOPC   H8X17280   4.468   4.844  15.745 -0.1779 -2.5220 -1.9264
  145DOPC   H8Y17281   4.577   4.775  15.627  0.1020  0.7906 -2.1978
  145DOPC   C3917282   4.528   4.975  15.586 -0.3191  0.4782  0.2199
  145DOPC   H9X17283   4.512   5.073  15.633 -2.1857 -0.0635  0.8010
  145DOPC  C31017284   4.524   4.965  15.454 -0.0536 -0.0158  0.6583
  145DOPC  H10X17285   4.513   5.058  15.396 -0.6038 -0.7750 -0.4911
  145DOPC  C31117286   4.559   4.845  15.364 -0.7433 -0.9261  0.5885
  145DOPC  H11X17287   4.586   4.749  15.414  2.2220 -0.6737 -0.3551
  145DOPC  H11Y17288   4.648   4.865  15.302 -1.5734  3.3218  0.4729
  145DOPC  C31217289   4.446   4.814  15.262 -0.6529  0.5886 -0.5364
  145DOPC  H12X17290   4.351   4.844  15.310 -1.0332 -1.7880  0.3336
  145DOPC  H12Y17291   4.430   4.706  15.240 -1.0772  0.6762 -0.6724
  145DOPC  C31317292   4.468   4.882  15.123  0.3515  0.1707 -0.0266
  145DOPC  H13X17293   4.544   4.961  15.140  0.5310 -0.0368  0.1517
  145DOPC  H13Y17294   4.509   4.807  15.052  0.1860  2.0154 -2.1567
  145DOPC  C31417295   4.341   4.943  15.069 -0.1932 -0.5936 -0.1411
  145DOPC  H14X17296   4.303   5.016  15.144  2.5786 -0.7510  1.5306
  145DOPC  H14Y17297   4.370   5.015  14.989 -1.5711  0.6268  0.3904
  145DOPC  C31517298   4.238   4.845  15.016  0.4814 -0.5258  0.0714
  145DOPC  H15X17299   4.200   4.764  15.081  1.5976 -0.8126  0.3977
  145DOPC  H15Y17300   4.293   4.799  14.931 -0.8105  1.6840 -2.0888
  145DOPC  C31617301   4.117   4.924  14.954  0.2577 -0.0955  0.1456
  145DOPC  H16X17302   4.079   4.999  15.027 -2.1123 -0.5864 -0.5257
  145DOPC  H16Y17303   4.152   4.971  14.860  0.1858 -1.6429 -0.7000
  145DOPC  C31717304   3.992   4.840  14.907  0.9685 -0.3514 -0.2592
  145DOPC  H17X17305   3.940   4.813  15.002  0.5291 -1.5541 -0.8130
  145DOPC  H17Y17306   3.927   4.897  14.838  1.9804  2.3634  0.8820
  145DOPC  C31817307   4.023   4.711  14.844  0.3712 -0.2274  0.1436
  145DOPC  H18X17308   4.090   4.720  14.756 -0.3686 -1.0013 -0.5189
  145DOPC  H18Y17309   4.081   4.636  14.902  0.8139 -0.3240 -0.4166
  145DOPC  H18Z17310   3.930   4.661  14.810  1.7631 -2.8637 -0.1361
  146DOPC     N17311   0.210   1.158  17.233 -0.5054 -0.0022  0.0617
  146DOPC   C1217312   0.121   1.183  17.118  0.7689 -0.0865 -0.2478
  146DOPC  H12A17313   0.046   1.251  17.155 -0.2679 -0.7870 -1.0362
  146DOPC  H12B17314   0.076   1.088  17.097  0.1097  0.2801 -0.5105
  146DOPC   C1317315   0.303   1.271  17.272  0.2708 -0.0769 -0.0552
  146DOPC  H13A17316   0.380   1.240  17.342  0.0583 -0.7261 -0.1029
  146DOPC  H13B17317   0.361   1.301  17.186  0.6498 -0.4297  0.0701
  146DOPC  H13C17318   0.251   1.355  17.314 -1.2951 -1.0905  0.0901
  146DOPC   C1417319   0.293   1.038  17.194 -0.0083 -0.0442 -0.1871
  146DOPC  H14A17320   0.237   0.946  17.198 -0.1360  0.0870  2.0924
  146DOPC  H14B17321   0.337   1.060  17.098 -0.1291  2.9293  0.3459
  146DOPC  H14C17322   0.376   1.011  17.258 -0.4590 -2.0330 -0.3733
  146DOPC   C1517323   0.138   1.136  17.363 -0.4733 -0.3693 -0.7595
  146DOPC  H15A17324   0.066   1.214  17.377  2.1609  2.4556 -1.6798
  146DOPC  H15B17325   0.208   1.148  17.444 -1.4964  0.6233 -0.0017
  146DOPC  H15C17326   0.103   1.034  17.353  2.1968 -1.4562 -0.0060
  146DOPC   C1117327   0.186   1.248  16.995  0.3408  0.1068 -0.0089
  146DOPC  H11A17328   0.106   1.279  16.924 -0.6335  3.5832  2.3249
  146DOPC  H11B17329   0.235   1.339  17.034 -1.1028  1.6274 -1.5444
  146DOPC     P17330   0.281   1.115  16.784 -0.4879  0.1979  0.1251
  146DOPC   O1317331   0.181   1.004  16.790  0.0610 -0.3356  0.1228
  146DOPC   O1417332   0.419   1.084  16.743 -0.2679  0.8765 -0.3379
  146DOPC   O1217333   0.287   1.171  16.933 -0.4407  0.3619  0.4065
  146DOPC   O1117334   0.225   1.239  16.705  0.2723  0.2039 -0.3308
  146DOPC    C117335   0.310   1.341  16.652  0.9559 -0.2834  0.0721
  146DOPC    HA17336   0.327   1.328  16.543  1.6790 -0.7382  0.2345
  146DOPC    HB17337   0.410   1.343  16.701  0.9997 -1.2590  0.0354
  146DOPC    C217338   0.264   1.486  16.691  0.1550  0.2621  0.3693
  146DOPC    HS17339   0.234   1.472  16.797 -0.5261 -0.4774  0.0843
  146DOPC   O2117340   0.156   1.510  16.601  0.4479  0.0429  0.1508
  146DOPC   C2117341   0.046   1.568  16.646  0.3650 -0.2889 -0.5090
  146DOPC   O2217342   0.013   1.588  16.765 -0.3158 -0.3359  0.2024
  146DOPC   C2217343  -0.044   1.593  16.528 -0.2050 -0.3321 -0.3525
  146DOPC   H2R17344  -0.076   1.505  16.468 -0.5623  1.6550 -3.3020
  146DOPC   H2S17345   0.004   1.664  16.458  0.8903  0.1001  0.7908
  146DOPC    C317346   0.372   1.596  16.675  0.0517 -0.2205  0.6207
  146DOPC    HX17347   0.462   1.569  16.735  1.0749 -1.1360 -1.2467
  146DOPC    HY17348   0.334   1.698  16.695 -4.0204 -0.9512 -2.2042
  146DOPC   O3117349   0.406   1.608  16.532 -0.0646 -0.0189 -0.3384
  146DOPC   C3117350   0.517   1.552  16.492 -0.0781  0.3381  1.2157
  146DOPC   O3217351   0.586   1.480  16.560  0.1352 -0.0563 -0.2807
  146DOPC   C3217352   0.536   1.589  16.344  0.1227 -0.0579  0.0831
  146DOPC   H2X17353   0.444   1.624  16.294  2.1020  1.6959 -2.6185
  146DOPC   H2Y17354   0.604   1.677  16.336  0.3433 -0.3343 -1.4296
  146DOPC   C2317355  -0.163   1.662  16.596  1.0342  0.2868  0.1945
  146DOPC   H3R17356  -0.139   1.759  16.645  0.7072  0.5658 -0.1914
  146DOPC   H3S17357  -0.217   1.600  16.671  0.7265 -2.0985 -1.8784
  146DOPC   C2417358  -0.283   1.713  16.504  0.6846  0.5843 -0.4354
  146DOPC   H4R17359  -0.370   1.739  16.568 -0.2724  1.1661 -1.9317
  146DOPC   H4S17360  -0.312   1.633  16.432  0.4995  0.4762 -0.2412
  146DOPC   C2517361  -0.252   1.840  16.430 -0.1443  0.0714 -0.6688
  146DOPC   H5R17362  -0.177   1.827  16.349  0.7579 -1.8929  0.4299
  146DOPC   H5S17363  -0.198   1.910  16.497  1.0198  0.8383 -2.3275
  146DOPC   C2617364  -0.377   1.911  16.366  0.1745 -0.1460 -0.5149
  146DOPC   H6R17365  -0.363   2.016  16.334  0.8548  0.0862  0.4865
  146DOPC   H6S17366  -0.451   1.922  16.447  1.5822  1.4771  0.6363
  146DOPC   C2717367  -0.443   1.831  16.252 -0.2700  0.5363  0.5571
  146DOPC   H7R17368  -0.458   1.723  16.274 -2.2544  0.2765 -1.6510
  146DOPC   H7S17369  -0.372   1.826  16.166 -1.3386  3.8111 -0.6892
  146DOPC   C2817370  -0.573   1.892  16.197  0.4208 -0.2326 -0.4419
  146DOPC   H8R17371  -0.606   1.821  16.118 -1.7148  2.1449 -1.8431
  146DOPC   H8S17372  -0.539   1.990  16.157  0.0228 -0.6536 -1.8968
  146DOPC   C2917373  -0.686   1.898  16.301 -0.3528 -0.1511 -0.3197
  146DOPC   H9R17374  -0.654   1.925  16.402 -0.7198  0.6543 -0.4122
  146DOPC  C21017375  -0.813   1.901  16.273 -0.3076 -0.3885 -0.6055
  146DOPC  H10R17376  -0.882   1.919  16.357 -2.0339  0.1387 -2.0703
  146DOPC  C21117377  -0.882   1.900  16.141  1.2369 -0.0006  0.1421
  146DOPC  H11R17378  -0.961   1.822  16.133  0.2005  1.0663 -0.2577
  146DOPC  H11S17379  -0.815   1.853  16.065 -0.5748 -2.1540 -0.2303
  146DOPC  C21217380  -0.934   2.036  16.089 -0.1276 -0.8708 -0.0050
  146DOPC  H12R17381  -0.850   2.108  16.093  0.3346 -1.2141 -2.3183
  146DOPC  H12S17382  -1.005   2.064  16.170  0.5991  2.0628 -0.2984
  146DOPC  C21317383  -1.012   2.041  15.957 -0.1683  0.5275 -0.3307
  146DOPC  H13R17384  -0.959   1.985  15.877 -0.4622 -0.9235  0.4571
  146DOPC  H13S17385  -1.012   2.147  15.924 -1.6564  0.7912  0.4437
  146DOPC  C21417386  -1.145   1.982  15.970  0.3691  0.4671 -0.1033
  146DOPC  H14R17387  -1.200   2.026  16.057 -0.1790 -0.1776 -0.1221
  146DOPC  H14S17388  -1.146   1.882  16.018 -0.4429  0.6056  0.1911
  146DOPC  C21517389  -1.222   1.987  15.839  0.0410 -0.4710  0.1804
  146DOPC  H15R17390  -1.150   1.947  15.765  1.3931 -1.6629  2.0298
  146DOPC  H15S17391  -1.242   2.096  15.829  0.9635 -0.1807  1.2180
  146DOPC  C21617392  -1.351   1.895  15.838 -0.1798 -0.3081  0.4114
  146DOPC  H16R17393  -1.420   1.928  15.918  2.5244 -0.0220  2.7653
  146DOPC  H16S17394  -1.320   1.792  15.866 -1.0814 -0.6134  0.3242
  146DOPC  C21717395  -1.421   1.902  15.699 -0.0306 -0.2027 -0.0947
  146DOPC  H17R17396  -1.364   1.845  15.622  0.4757  0.2250 -0.0456
  146DOPC  H17S17397  -1.424   2.003  15.653 -0.4468 -0.8539 -1.5364
  146DOPC  C21817398  -1.566   1.854  15.709  0.1152 -0.7581  1.0681
  146DOPC  H18R17399  -1.607   1.845  15.606  0.0019 -1.3696  1.1621
  146DOPC  H18S17400  -1.627   1.926  15.767  0.6403 -1.3088  2.3380
  146DOPC  H18T17401  -1.570   1.760  15.767 -1.1622  0.2697  2.7299
  146DOPC   C3317402   0.591   1.474  16.263 -0.3832  0.0658 -0.0514
  146DOPC   H3X17403   0.530   1.384  16.283 -0.3717  0.2535  0.8952
  146DOPC   H3Y17404   0.691   1.439  16.298 -0.1938  0.2425 -0.4144
  146DOPC   C3417405   0.622   1.496  16.112 -0.1594 -0.0872 -0.5916
  146DOPC   H4X17406   0.672   1.405  16.072  0.9946  0.8140 -1.2275
  146DOPC   H4Y17407   0.702   1.572  16.097  0.4086 -0.6876 -0.6491
  146DOPC   C3517408   0.505   1.533  16.021  0.4014  0.2581  0.1889
  146DOPC   H5X17409   0.476   1.636  16.052  0.2000  0.6210 -1.1496
  146DOPC   H5Y17410   0.426   1.460  16.048  0.2599  0.7889  1.2713
  146DOPC   C3617411   0.542   1.531  15.870 -0.8635 -0.6457  0.8384
  146DOPC   H6X17412   0.611   1.617  15.852  0.5240 -1.6782  1.0916
  146DOPC   H6Y17413   0.603   1.442  15.846  0.6310  0.2532  1.1756
  146DOPC   C3717414   0.408   1.536  15.783  0.0666 -0.5941  0.3666
  146DOPC   H7X17415   0.338   1.450  15.794 -0.1352 -0.5021 -0.1813
  146DOPC   H7Y17416   0.349   1.622  15.821  2.8675  1.9712 -0.7004
  146DOPC   C3817417   0.429   1.560  15.628 -0.2117  0.3424 -0.5616
  146DOPC   H8X17418   0.476   1.658  15.606 -0.2943  0.5664  0.2173
  146DOPC   H8Y17419   0.330   1.578  15.582  0.5813  2.6819 -1.4695
  146DOPC   C3917420   0.508   1.445  15.565 -0.1271 -1.2116 -0.7206
  146DOPC   H9X17421   0.579   1.402  15.636 -0.1977 -0.9374 -0.4839
  146DOPC  C31017422   0.515   1.415  15.434  0.3145  0.1146 -0.5339
  146DOPC  H10X17423   0.588   1.338  15.407 -0.3154  0.0810 -2.2793
  146DOPC  C31117424   0.430   1.490  15.329  0.5886 -0.0961 -0.3070
  146DOPC  H11X17425   0.350   1.554  15.372  0.2489 -0.2185 -0.7448
  146DOPC  H11Y17426   0.381   1.416  15.262 -0.3857 -2.3317  2.6706
  146DOPC  C31217427   0.533   1.561  15.240 -0.0279  0.2806 -0.1641
  146DOPC  H12X17428   0.600   1.481  15.202 -0.8334 -1.1227  1.2598
  146DOPC  H12Y17429   0.593   1.646  15.280 -0.1795  1.5519 -2.4356
  146DOPC  C31317430   0.480   1.636  15.114  1.0452 -0.4509 -0.4686
  146DOPC  H13X17431   0.551   1.677  15.040 -0.2551 -0.5256 -1.8150
  146DOPC  H13Y17432   0.426   1.561  15.052  3.5802 -2.0773 -0.8213
  146DOPC  C31417433   0.378   1.742  15.157  0.6309 -0.6011 -0.0955
  146DOPC  H14X17434   0.296   1.702  15.219  0.8773 -0.3555  0.3947
  146DOPC  H14Y17435   0.435   1.819  15.215  2.3677 -1.5331 -0.4964
  146DOPC  C31517436   0.312   1.812  15.038 -0.2080 -0.1607  0.3353
  146DOPC  H15X17437   0.255   1.738  14.977  1.0103 -0.0066 -1.0345
  146DOPC  H15Y17438   0.388   1.853  14.968  0.3247 -1.6284  0.0078
  146DOPC  C31617439   0.225   1.930  15.074  0.0948 -0.3288 -0.6492
  146DOPC  H16X17440   0.130   1.902  15.125 -1.9638  3.3189 -2.0758
  146DOPC  H16Y17441   0.287   1.993  15.141  1.4214  0.7602 -2.7866
  146DOPC  C31717442   0.178   2.008  14.951  0.2636 -0.0892 -0.4532
  146DOPC  H17X17443   0.098   2.083  14.969 -0.5941 -1.4164  1.5210
  146DOPC  H17Y17444   0.268   2.056  14.906  0.3039  0.7468  0.4769
  146DOPC  C31817445   0.112   1.918  14.842  0.1405 -0.3817 -0.0207
  146DOPC  H18X17446   0.081   1.977  14.753  0.5048  0.6966  0.5480
  146DOPC  H18Y17447   0.180   1.838  14.804 -0.0114 -0.5782  0.1213
  146DOPC  H18Z17448   0.014   1.876  14.871 -0.0392 -0.9601 -1.3705
  147DOPC     N17449   5.005   2.641  16.827 -0.4630 -0.2499 -0.0849
  147DOPC   C1217450   4.887   2.737  16.809  0.5198 -0.4051  0.2518
  147DOPC  H12A17451   4.928   2.837  16.803  0.8684 -0.6250 -1.1918
  147DOPC  H12B17452   4.824   2.733  16.897 -2.0324 -2.6364 -1.5162
  147DOPC   C1317453   5.102   2.653  16.711 -0.4498 -0.0949  0.7585
  147DOPC  H13A17454   5.048   2.628  16.621 -0.5483  1.0389  0.4764
  147DOPC  H13B17455   5.141   2.752  16.693 -3.2699  0.8130 -1.1306
  147DOPC  H13C17456   5.187   2.587  16.718  0.2046  0.5325 -0.7520
  147DOPC   C1417457   4.951   2.506  16.839 -0.4318 -0.1371  0.1756
  147DOPC  H14A17458   4.878   2.499  16.760  0.5094  1.3618 -0.8861
  147DOPC  H14B17459   5.037   2.444  16.818  0.8359  1.7835 -0.6360
  147DOPC  H14C17460   4.897   2.492  16.931 -1.1604 -1.0492 -0.3735
  147DOPC   C1517461   5.079   2.671  16.954 -0.2469 -0.0154 -0.0979
  147DOPC  H15A17462   5.012   2.645  17.035 -1.6131 -2.0599 -1.7813
  147DOPC  H15B17463   5.119   2.771  16.956 -1.4772  0.4824  0.5914
  147DOPC  H15C17464   5.166   2.607  16.958  0.1196  0.5004  0.2618
  147DOPC   C1117465   4.791   2.705  16.695  0.6204  0.6368  0.6416
  147DOPC  H11A17466   4.741   2.800  16.665 -0.4526  0.7172  2.5462
  147DOPC  H11B17467   4.851   2.668  16.609  1.7585  0.0820  1.6439
  147DOPC     P17468   4.573   2.636  16.829  0.2158 -0.0860 -0.0430
  147DOPC   O1317469   4.543   2.785  16.838  0.0717  1.1486 -0.1686
  147DOPC   O1417470   4.590   2.569  16.962  0.2018  0.4018 -0.1597
  147DOPC   O1217471   4.698   2.609  16.735 -0.5074  0.4729 -0.1033
  147DOPC   O1117472   4.446   2.568  16.749 -0.3522  0.6009 -0.2981
  147DOPC    C117473   4.441   2.571  16.612 -0.0541  0.2963 -0.1197
  147DOPC    HA17474   4.452   2.475  16.558  0.9155  1.4265 -2.0806
  147DOPC    HB17475   4.523   2.633  16.569 -1.4978  0.8721 -2.2336
  147DOPC    C217476   4.318   2.642  16.566  0.5322 -0.2332 -0.1124
  147DOPC    HS17477   4.239   2.595  16.629  2.5068 -0.9968  1.9716
  147DOPC   O2117478   4.297   2.617  16.426 -0.1622  0.5868  0.5200
  147DOPC   C2117479   4.173   2.662  16.387 -0.6223 -0.1842 -0.3163
  147DOPC   O2217480   4.078   2.685  16.456  0.2978 -0.5882 -0.4059
  147DOPC   C2217481   4.182   2.679  16.239  0.4416  0.8700 -0.6860
  147DOPC   H2R17482   4.221   2.586  16.192  0.6981  1.1793 -1.0915
  147DOPC   H2S17483   4.264   2.753  16.228  0.9528  0.4618  0.2014
  147DOPC    C317484   4.320   2.795  16.606 -0.1850  0.3625  0.2777
  147DOPC    HX17485   4.330   2.798  16.717  1.6770  0.9950  0.1358
  147DOPC    HY17486   4.222   2.839  16.582 -0.1657  0.0930 -0.3043
  147DOPC   O3117487   4.431   2.861  16.559 -0.0270 -0.1207  0.1790
  147DOPC   C3117488   4.439   2.923  16.437  0.0525  0.3471  0.0065
  147DOPC   O3217489   4.352   2.922  16.350 -0.5834 -0.1928  0.3869
  147DOPC   C3217490   4.573   2.983  16.416  0.1111 -0.2778 -0.0885
  147DOPC   H2X17491   4.591   3.073  16.478  0.9174  1.7565 -3.0337
  147DOPC   H2Y17492   4.642   2.898  16.438  0.1148 -0.8713 -2.1604
  147DOPC   C2317493   4.055   2.744  16.176 -0.2272  0.2328  0.4945
  147DOPC   H3R17494   4.046   2.849  16.209  1.0723  0.3921  0.4274
  147DOPC   H3S17495   3.973   2.683  16.218 -1.2379 -0.0650 -1.7576
  147DOPC   C2417496   4.049   2.727  16.022  0.3098  0.1093 -0.1468
  147DOPC   H4R17497   3.952   2.759  15.979  0.3898  0.1492 -0.2998
  147DOPC   H4S17498   4.041   2.620  15.993  0.6773  0.5167 -1.8877
  147DOPC   C2517499   4.165   2.785  15.946 -0.6857  0.3951 -0.9641
  147DOPC   H5R17500   4.260   2.736  15.977 -1.0808 -0.2039 -0.6758
  147DOPC   H5S17501   4.177   2.891  15.974 -1.1780 -0.4831  3.1619
  147DOPC   C2617502   4.143   2.747  15.801 -0.2609 -0.4180 -0.2007
  147DOPC   H6R17503   4.103   2.643  15.798 -0.1473 -0.4865  0.3790
  147DOPC   H6S17504   4.236   2.764  15.745 -0.4051  1.8560  0.1689
  147DOPC   C2717505   4.041   2.831  15.737  0.6350  0.3566  0.1401
  147DOPC   H7R17506   4.066   2.936  15.767 -0.9842  0.4447  1.3318
  147DOPC   H7S17507   3.939   2.820  15.778  0.0122  4.3966  0.1384
  147DOPC   C2817508   4.040   2.826  15.583  0.0923  0.0428  0.4850
  147DOPC   H8R17509   4.043   2.720  15.549  0.5319 -0.6999  2.6423
  147DOPC   H8S17510   4.128   2.878  15.541 -2.1653  1.9374 -2.2960
  147DOPC   C2917511   3.923   2.907  15.527  0.5242  0.3634 -0.2673
  147DOPC   H9R17512   3.906   3.009  15.567 -0.8493  0.2113 -0.4169
  147DOPC  C21017513   3.847   2.874  15.420 -0.1675 -0.2140 -0.2619
  147DOPC  H10R17514   3.775   2.946  15.377 -1.5303 -0.9666  0.6930
  147DOPC  C21117515   3.857   2.751  15.334 -0.0669 -0.3557  0.4281
  147DOPC  H11R17516   3.753   2.712  15.328 -0.5544  0.7071  1.5675
  147DOPC  H11S17517   3.920   2.668  15.374 -1.1617 -1.6851 -0.4961
  147DOPC  C21217518   3.908   2.764  15.188 -0.0544 -0.2715  0.4113
  147DOPC  H12R17519   3.918   2.659  15.152 -0.8769  0.2619 -1.5060
  147DOPC  H12S17520   4.002   2.822  15.191 -0.1335 -0.1275  0.1117
  147DOPC  C21317521   3.798   2.820  15.096  0.9482  0.1239 -0.1265
  147DOPC  H13R17522   3.750   2.912  15.137 -2.5317 -1.5956 -0.0107
  147DOPC  H13S17523   3.712   2.753  15.080  0.4733  0.7491 -0.2285
  147DOPC  C21417524   3.844   2.846  14.947 -0.2141  0.1996 -0.3528
  147DOPC  H14R17525   3.885   2.747  14.918  1.6340  0.7110  0.3847
  147DOPC  H14S17526   3.919   2.928  14.954  0.0620 -0.0618 -0.2447
  147DOPC  C21517527   3.727   2.910  14.869 -0.8000 -0.2616  0.2138
  147DOPC  H15R17528   3.725   3.018  14.898 -0.9548 -0.9850  3.2935
  147DOPC  H15S17529   3.625   2.873  14.890 -1.5549 -0.5598 -3.4404
  147DOPC  C21617530   3.754   2.915  14.722  0.3393 -0.0238  1.1288
  147DOPC  H16R17531   3.728   2.824  14.662  3.5783  0.7469 -1.7630
  147DOPC  H16S17532   3.864   2.921  14.709  0.3606  0.4128  1.5233
  147DOPC  C21717533   3.694   3.036  14.639  0.1355 -0.6770 -0.2974
  147DOPC  H17R17534   3.601   3.054  14.698  0.9894  2.4184  0.2776
  147DOPC  H17S17535   3.673   3.000  14.536  1.3986  0.3152 -0.9280
  147DOPC  C21817536   3.774   3.166  14.619 -0.3794 -0.4892  0.2625
  147DOPC  H18R17537   3.734   3.224  14.533  1.0556 -2.5731 -1.9422
  147DOPC  H18S17538   3.876   3.129  14.598  0.0321  0.6063  0.2494
  147DOPC  H18T17539   3.778   3.216  14.718 -3.4728 -1.1650  0.8281
  147DOPC   C3317540   4.597   3.024  16.271  0.1719 -0.1643  0.2162
  147DOPC   H3X17541   4.691   3.083  16.267  0.2413 -0.3257 -0.8332
  147DOPC   H3Y17542   4.525   3.094  16.222 -0.6781 -1.3775 -0.3059
  147DOPC   C3417543   4.612   2.898  16.177  0.0849  0.0783 -0.1701
  147DOPC   H4X17544   4.513   2.849  16.166  0.7331 -1.8791  2.0397
  147DOPC   H4Y17545   4.682   2.830  16.229  0.2964 -1.1280 -1.9466
  147DOPC   C3517546   4.669   2.909  16.037 -0.4733 -0.1393 -0.5439
  147DOPC   H5X17547   4.699   2.806  16.007 -3.1312 -2.3753  3.5078
  147DOPC   H5Y17548   4.754   2.980  16.046 -0.9189  0.1586  2.3786
  147DOPC   C3617549   4.562   2.963  15.943  0.3940 -0.1849  0.3013
  147DOPC   H6X17550   4.458   2.933  15.965 -0.5982  2.3451 -0.6265
  147DOPC   H6Y17551   4.562   3.070  15.974 -0.7498 -0.3148  0.7641
  147DOPC   C3717552   4.581   2.953  15.786  0.8728  0.2380 -0.6713
  147DOPC   H7X17553   4.580   2.844  15.762 -2.3176  0.4743 -2.1430
  147DOPC   H7Y17554   4.493   2.992  15.731  0.5030  0.8921  0.3650
  147DOPC   C3817555   4.706   3.027  15.723 -0.1195  0.0420 -0.2261
  147DOPC   H8X17556   4.794   2.995  15.783 -0.4933  1.3524  1.0747
  147DOPC   H8Y17557   4.694   3.134  15.752 -0.6879 -0.2822  0.8114
  147DOPC   C3917558   4.714   2.989  15.580  0.1263 -0.3782  0.2675
  147DOPC   H9X17559   4.793   2.915  15.558 -0.3126 -0.2987 -1.6723
  147DOPC  C31017560   4.653   3.052  15.483  0.1173  0.5918  0.2140
  147DOPC  H10X17561   4.671   3.013  15.382  1.6713  0.5830  0.4744
  147DOPC  C31117562   4.557   3.175  15.493 -0.6351  0.3192 -0.3033
  147DOPC  H11X17563   4.619   3.264  15.466  1.5053 -1.1433 -0.4416
  147DOPC  H11Y17564   4.532   3.195  15.599 -1.0927  2.2713 -0.7251
  147DOPC  C31217565   4.445   3.172  15.390  0.0532  0.4688 -0.3205
  147DOPC  H12X17566   4.490   3.149  15.291 -1.0209 -1.0311 -0.4950
  147DOPC  H12Y17567   4.398   3.272  15.376  1.4697  1.5640  1.9336
  147DOPC  C31317568   4.343   3.063  15.424  0.0502 -0.2733  0.0883
  147DOPC  H13X17569   4.394   2.973  15.464  1.7336  0.7488  0.3662
  147DOPC  H13Y17570   4.279   3.100  15.507 -0.3425  2.0317 -1.1539
  147DOPC  C31417571   4.260   3.006  15.309 -0.2288  0.2019  0.1716
  147DOPC  H14X17572   4.172   2.950  15.348 -1.4782 -0.2261 -2.9470
  147DOPC  H14Y17573   4.215   3.085  15.246 -0.5436 -1.0310 -1.2032
  147DOPC  C31517574   4.340   2.916  15.204 -0.0067  0.1470 -0.5988
  147DOPC  H15X17575   4.377   2.823  15.251  0.8840  0.6971 -0.1971
  147DOPC  H15Y17576   4.426   2.975  15.168  0.0980  0.1108 -0.4058
  147DOPC  C31617577   4.255   2.908  15.071  0.1706 -0.4378 -0.6035
  147DOPC  H16X17578   4.158   2.855  15.083 -0.7062  1.2702  0.2275
  147DOPC  H16Y17579   4.227   3.011  15.040  1.0615 -0.0607 -0.1819
  147DOPC  C31717580   4.327   2.857  14.948  0.3750  0.2659  0.4419
  147DOPC  H17X17581   4.406   2.928  14.915  0.1576  0.1558 -0.3344
  147DOPC  H17Y17582   4.382   2.762  14.970 -0.3385 -0.9846 -2.6844
  147DOPC  C31817583   4.237   2.837  14.830 -0.3028 -0.0241  0.1241
  147DOPC  H18X17584   4.142   2.782  14.845 -1.0314  1.1259 -0.1510
  147DOPC  H18Y17585   4.212   2.940  14.797  1.3079 -0.0499 -1.3318
  147DOPC  H18Z17586   4.293   2.788  14.747  0.2560  0.8616 -0.0383
  148DOPC     N17587   3.614   4.693  17.428  0.1524 -0.2385 -0.1539
  148DOPC   C1217588   3.522   4.693  17.311  0.0801 -0.2067 -0.3861
  148DOPC  H12A17589   3.518   4.796  17.278 -0.6755 -0.1353 -0.0817
  148DOPC  H12B17590   3.425   4.665  17.350 -0.7987  1.8582 -0.9652
  148DOPC   C1317591   3.665   4.556  17.464  0.1725 -0.1499 -0.1344
  148DOPC  H13A17592   3.576   4.500  17.487  0.0773 -0.2231 -0.6622
  148DOPC  H13B17593   3.716   4.518  17.377  1.6355  0.9133  0.2049
  148DOPC  H13C17594   3.729   4.563  17.551 -0.6784 -0.1298  0.5018
  148DOPC   C1417595   3.545   4.741  17.546 -0.6303 -0.6265  0.4161
  148DOPC  H14A17596   3.460   4.675  17.557 -1.9695  0.9877  0.0842
  148DOPC  H14B17597   3.599   4.741  17.640 -0.2446 -3.0612  0.2578
  148DOPC  H14C17598   3.511   4.843  17.547  1.3004  0.0500  1.1668
  148DOPC   C1517599   3.734   4.782  17.407  0.0774  0.8038 -0.2646
  148DOPC  H15A17600   3.792   4.756  17.320  0.4049  1.2948 -0.1995
  148DOPC  H15B17601   3.789   4.788  17.500 -2.6982 -2.3677  1.8157
  148DOPC  H15C17602   3.692   4.881  17.396 -1.8076 -0.0893 -1.6542
  148DOPC   C1117603   3.549   4.607  17.184  0.3092  0.2609  0.3776
  148DOPC  H11A17604   3.544   4.501  17.218 -4.4911 -0.1415 -0.9037
  148DOPC  H11B17605   3.458   4.612  17.121  0.3614 -0.0072  0.2763
  148DOPC     P17606   3.798   4.551  17.107  0.0251 -0.0587 -0.1568
  148DOPC   O1317607   3.796   4.453  17.218  0.3567 -0.7103  0.3698
  148DOPC   O1417608   3.916   4.634  17.096 -0.1057 -0.3587 -0.3333
  148DOPC   O1217609   3.668   4.639  17.122  0.0757 -0.7011  0.0329
  148DOPC   O1117610   3.768   4.464  16.977 -0.1213  0.2801  0.1915
  148DOPC    C117611   3.713   4.539  16.866  0.0763  0.8254  0.9298
  148DOPC    HA17612   3.767   4.631  16.835  0.6149 -0.1189 -1.1360
  148DOPC    HB17613   3.608   4.567  16.890 -0.9200 -1.5773 -0.2635
  148DOPC    C217614   3.690   4.450  16.738  0.2960  0.5461 -0.2601
  148DOPC    HS17615   3.639   4.359  16.776 -0.7303  0.1585 -2.4056
  148DOPC   O2117616   3.814   4.414  16.679 -0.1664  0.2137  0.2892
  148DOPC   C2117617   3.818   4.293  16.618  0.3317  0.0334 -0.8330
  148DOPC   O2217618   3.724   4.214  16.620  0.2425 -0.1047  0.0002
  148DOPC   C2217619   3.955   4.261  16.561 -0.4995 -0.1174 -0.4764
  148DOPC   H2R17620   3.966   4.154  16.535 -1.0148  0.5156 -3.6520
  148DOPC   H2S17621   4.028   4.295  16.637 -0.3609  0.4678 -0.8653
  148DOPC    C317622   3.601   4.535  16.644  0.6518  0.2721 -0.3973
  148DOPC    HX17623   3.666   4.625  16.639  0.3828  0.4482 -0.8680
  148DOPC    HY17624   3.502   4.561  16.688  1.9890  2.8077  1.3763
  148DOPC   O3117625   3.596   4.468  16.516  0.6045 -0.2791 -0.4462
  148DOPC   C3117626   3.536   4.536  16.423 -0.6879  0.1593 -0.0231
  148DOPC   O3217627   3.490   4.650  16.428 -0.1352 -0.1984 -0.4077
  148DOPC   C3217628   3.548   4.455  16.294 -0.4162  0.7254 -0.4510
  148DOPC   H2X17629   3.634   4.501  16.242 -0.0020  0.4544 -0.0143
  148DOPC   H2Y17630   3.558   4.351  16.333  1.6958  0.7100 -0.9644
  148DOPC   C2317631   3.995   4.325  16.425  0.6794 -0.2728 -0.3131
  148DOPC   H3R17632   4.093   4.293  16.383  0.8605 -0.8718  0.5438
  148DOPC   H3S17633   4.009   4.434  16.443 -0.4285 -0.0617 -0.6628
  148DOPC   C2417634   3.897   4.294  16.304  0.0586  0.0268 -0.3621
  148DOPC   H4R17635   3.920   4.361  16.218 -0.2652 -0.5635 -0.9170
  148DOPC   H4S17636   3.790   4.314  16.326 -0.1658  0.4742 -1.7352
  148DOPC   C2517637   3.909   4.152  16.247 -0.3425  0.3902  0.1372
  148DOPC   H5R17638   3.866   4.077  16.317  1.1030 -1.4320 -0.8382
  148DOPC   H5S17639   4.018   4.130  16.255 -0.7711 -1.5763  1.3701
  148DOPC   C2617640   3.862   4.135  16.102 -0.5565 -0.5343 -0.8827
  148DOPC   H6R17641   3.896   4.041  16.052  1.1905  0.1618 -1.0944
  148DOPC   H6S17642   3.908   4.214  16.038  1.0784  0.5132  1.4503
  148DOPC   C2717643   3.711   4.126  16.093  0.7890  0.8564  0.5144
  148DOPC   H7R17644   3.669   4.229  16.092  0.9782  0.9681  2.1982
  148DOPC   H7S17645   3.669   4.054  16.166  0.5562  0.0147 -0.4281
  148DOPC   C2817646   3.671   4.058  15.962 -0.3919  0.1261 -0.2667
  148DOPC   H8R17647   3.729   3.964  15.955 -1.2304 -0.3864 -0.5422
  148DOPC   H8S17648   3.711   4.131  15.888  2.3146  0.6490  1.5868
  148DOPC   C2917649   3.523   4.037  15.940 -0.3645  0.0856 -0.7973
  148DOPC   H9R17650   3.468   4.126  15.973  0.4226  0.2153  0.2067
  148DOPC  C21017651   3.463   3.942  15.876  0.5744  0.3096  1.0547
  148DOPC  H10R17652   3.353   3.933  15.879  0.5626 -0.0450 -0.1587
  148DOPC  C21117653   3.532   3.824  15.801 -0.2989  0.2108  0.3628
  148DOPC  H11R17654   3.473   3.730  15.807 -0.2637  0.0815 -0.9667
  148DOPC  H11S17655   3.627   3.799  15.851  0.1500  0.1697 -0.4903
  148DOPC  C21217656   3.563   3.863  15.654 -0.0019 -0.1355 -0.0771
  148DOPC  H12R17657   3.624   3.955  15.641 -1.7132  1.0064 -0.3769
  148DOPC  H12S17658   3.463   3.877  15.608 -0.4590 -0.4219  0.8048
  148DOPC  C21317659   3.625   3.745  15.587 -0.1362 -0.1893  0.0662
  148DOPC  H13R17660   3.554   3.661  15.599  0.2429 -0.4967  0.1786
  148DOPC  H13S17661   3.712   3.712  15.648 -0.8585 -1.3226  0.5179
  148DOPC  C21417662   3.670   3.765  15.443  0.3053 -0.4960 -0.0720
  148DOPC  H14R17663   3.716   3.667  15.415  0.7468 -0.8434  1.7598
  148DOPC  H14S17664   3.746   3.846  15.446 -0.6299  0.3791  0.7036
  148DOPC  C21517665   3.564   3.813  15.342  0.2151  0.0769 -0.6505
  148DOPC  H15R17666   3.471   3.838  15.399  1.5989  1.4754  1.1018
  148DOPC  H15S17667   3.530   3.733  15.273 -0.8298 -2.9872  3.0692
  148DOPC  C21617668   3.603   3.941  15.270 -0.0946 -0.5578  0.4099
  148DOPC  H16R17669   3.531   3.962  15.188  1.0183  1.9741 -0.0175
  148DOPC  H16S17670   3.702   3.917  15.226  0.7904  1.2648  1.2949
  148DOPC  C21717671   3.614   4.067  15.347  0.4405  0.4509  0.0317
  148DOPC  H17R17672   3.700   4.069  15.417 -1.1367  2.7615  2.0912
  148DOPC  H17S17673   3.526   4.079  15.414  0.2769  1.6880 -0.3720
  148DOPC  C21817674   3.618   4.193  15.257 -0.0067 -0.1060 -0.2767
  148DOPC  H18R17675   3.598   4.275  15.329  0.2166 -0.7991  0.5994
  148DOPC  H18S17676   3.544   4.191  15.175 -0.2371  1.0708 -0.1212
  148DOPC  H18T17677   3.718   4.200  15.209  0.4112  0.1499  0.5989
  148DOPC   C3317678   3.430   4.480  16.207  0.1377  0.0219 -0.5490
  148DOPC   H3X17679   3.436   4.588  16.179  0.6428 -0.3858 -2.1695
  148DOPC   H3Y17680   3.331   4.456  16.251  0.3373  1.0717  0.5263
  148DOPC   C3417681   3.447   4.412  16.072 -0.4247 -0.0978 -0.2409
  148DOPC   H4X17682   3.429   4.302  16.070  0.8130 -0.3061 -0.4188
  148DOPC   H4Y17683   3.554   4.418  16.043 -0.1243 -0.2768  0.7852
  148DOPC   C3517684   3.351   4.486  15.971 -0.4253  0.0946 -0.2695
  148DOPC   H5X17685   3.371   4.593  15.993  4.5653 -0.9145  1.5538
  148DOPC   H5Y17686   3.244   4.458  15.984 -0.3235 -0.2851 -0.2251
  148DOPC   C3617687   3.389   4.471  15.826  0.0110  0.1153 -0.4138
  148DOPC   H6X17688   3.386   4.363  15.802  1.3894 -0.5030  1.9077
  148DOPC   H6Y17689   3.312   4.517  15.760 -1.0086 -2.3006 -1.0234
  148DOPC   C3717690   3.527   4.527  15.791 -0.2205 -0.2296  0.4161
  148DOPC   H7X17691   3.543   4.623  15.846 -0.0089 -0.0677  0.0718
  148DOPC   H7Y17692   3.605   4.466  15.841 -0.8156  0.0563  1.7562
  148DOPC   C3817693   3.553   4.543  15.638  0.4909  0.8472  0.1729
  148DOPC   H8X17694   3.662   4.563  15.638  0.3838  1.5766 -1.5049
  148DOPC   H8Y17695   3.506   4.638  15.605 -0.4171  0.4079  0.1624
  148DOPC   C3917696   3.511   4.431  15.545  0.1947 -0.1824 -0.3658
  148DOPC   H9X17697   3.565   4.337  15.563  0.6836  0.0788 -0.4657
  148DOPC  C31017698   3.422   4.435  15.449 -0.0381 -0.4823 -0.0995
  148DOPC  H10X17699   3.415   4.354  15.375  0.6300 -1.8311  1.2760
  148DOPC  C31117700   3.334   4.554  15.419 -0.1459 -0.4254 -0.0570
  148DOPC  H11X17701   3.299   4.592  15.517 -2.4769  1.4511 -1.5071
  148DOPC  H11Y17702   3.243   4.526  15.361  0.1194 -2.7098  0.5261
  148DOPC  C31217703   3.395   4.668  15.336 -0.4183 -0.1715  0.2633
  148DOPC  H12X17704   3.439   4.629  15.242  0.8033 -1.7799  1.4380
  148DOPC  H12Y17705   3.474   4.713  15.401 -0.6926 -2.0111  1.9758
  148DOPC  C31317706   3.279   4.760  15.291 -0.2055 -0.4990 -0.1636
  148DOPC  H13X17707   3.199   4.701  15.241  0.6447 -1.0602 -0.8912
  148DOPC  H13Y17708   3.243   4.805  15.386  2.3659  1.1743  0.1069
  148DOPC  C31417709   3.321   4.880  15.200  0.0746  0.3939  0.1233
  148DOPC  H14X17710   3.243   4.959  15.205 -2.3123 -1.7863 -0.9646
  148DOPC  H14Y17711   3.418   4.919  15.238  0.3147  2.8985 -2.7301
  148DOPC  C31517712   3.345   4.853  15.046 -0.3139  0.4784  0.8083
  148DOPC  H15X17713   3.251   4.824  14.996 -1.5815 -0.8302  3.6729
  148DOPC  H15Y17714   3.416   4.768  15.041 -0.9548 -0.2450  2.7508
  148DOPC  C31617715   3.420   4.968  14.977  0.3336 -0.4374 -0.3316
  148DOPC  H16X17716   3.354   5.057  14.989  0.8158  0.1733 -1.9471
  148DOPC  H16Y17717   3.514   4.971  15.036 -0.0750 -1.4227  0.3883
  148DOPC  C31717718   3.454   4.959  14.831  0.8180  0.4094  0.3874
  148DOPC  H17X17719   3.489   4.857  14.807 -0.4887  0.2355 -0.9218
  148DOPC  H17Y17720   3.361   4.981  14.774  0.7459  0.9631  0.7084
  148DOPC  C31817721   3.561   5.050  14.774  0.1333 -0.1076  0.1217
  148DOPC  H18X17722   3.525   5.134  14.711 -0.0812 -1.5651 -1.7902
  148DOPC  H18Y17723   3.626   5.082  14.858 -0.1619 -1.2638  0.8175
  148DOPC  H18Z17724   3.627   4.995  14.704  0.4552 -2.7165  2.2884
  149DOPC     N17725   4.244   2.356  17.029 -0.2724  0.2379 -0.6072
  149DOPC   C1217726   4.395   2.367  17.075 -0.0956  0.5631  0.2657
  149DOPC  H12A17727   4.418   2.472  17.090  0.2537  0.1868  2.8028
  149DOPC  H12B17728   4.464   2.341  16.996  0.7117 -0.0693  1.1523
  149DOPC   C1317729   4.221   2.456  16.925 -0.0278 -0.0234  0.1012
  149DOPC  H13A17730   4.226   2.559  16.957 -1.7166  0.5348 -1.2822
  149DOPC  H13B17731   4.285   2.433  16.841 -0.4828  0.0978 -0.2848
  149DOPC  H13C17732   4.126   2.434  16.878  1.2481 -2.6398 -1.5103
  149DOPC   C1417733   4.164   2.396  17.149 -0.0862  0.5576 -0.1442
  149DOPC  H14A17734   4.189   2.492  17.190  3.2167 -0.7675  1.2672
  149DOPC  H14B17735   4.061   2.374  17.122  0.4987 -0.5407 -1.6533
  149DOPC  H14C17736   4.194   2.334  17.232 -1.1168 -0.8044 -0.7378
  149DOPC   C1517737   4.213   2.220  16.990  0.5500  0.5651 -0.0483
  149DOPC  H15A17738   4.239   2.158  17.074  3.2973  1.7998  0.1230
  149DOPC  H15B17739   4.267   2.184  16.904 -0.5079  0.9650 -0.9053
  149DOPC  H15C17740   4.109   2.211  16.961  0.5133  0.8042  0.0037
  149DOPC   C1117741   4.453   2.284  17.183 -0.6319 -0.0341 -0.3255
  149DOPC  H11A17742   4.558   2.312  17.204 -0.7846 -0.2564  0.8311
  149DOPC  H11B17743   4.390   2.303  17.273  0.5221  1.0660  0.2829
  149DOPC     P17744   4.555   2.079  17.052  0.3483 -0.6307 -0.2136
  149DOPC   O1317745   4.500   1.960  16.980  0.3067 -0.7934 -0.4609
  149DOPC   O1417746   4.677   2.070  17.136 -0.2359  0.0320 -0.2956
  149DOPC   O1217747   4.439   2.145  17.148 -0.1764 -0.1358  0.3741
  149DOPC   O1117748   4.572   2.192  16.944 -0.8988  0.0954 -0.7293
  149DOPC    C117749   4.568   2.167  16.811 -0.1831  0.5609 -0.6121
  149DOPC    HA17750   4.491   2.231  16.762 -1.0231  0.8534  1.0300
  149DOPC    HB17751   4.547   2.066  16.771  2.4144  0.2319 -1.3226
  149DOPC    C217752   4.702   2.201  16.741  0.7663  1.0864 -0.4332
  149DOPC    HS17753   4.750   2.288  16.791 -0.8529  1.2950  0.8317
  149DOPC   O2117754   4.665   2.227  16.599 -0.1715 -0.2060  0.2016
  149DOPC   C2117755   4.739   2.306  16.528 -0.0703 -0.2486  0.3246
  149DOPC   O2217756   4.848   2.351  16.564 -0.3425 -0.0434 -0.2441
  149DOPC   C2217757   4.672   2.329  16.387 -0.1142  0.2936 -0.3572
  149DOPC   H2R17758   4.564   2.307  16.390 -0.1292  0.4376  0.9105
  149DOPC   H2S17759   4.711   2.248  16.322 -1.3755 -0.2495 -0.4618
  149DOPC    C317760   4.812   2.090  16.753  0.0263  0.3874 -0.2735
  149DOPC    HX17761   4.829   2.066  16.861 -2.9982  0.7578  0.3699
  149DOPC    HY17762   4.912   2.122  16.715  0.9012 -2.2643 -0.4222
  149DOPC   O3117763   4.759   1.972  16.686 -0.5725 -0.6686  0.7720
  149DOPC   C3117764   4.803   1.948  16.558  0.0678  0.0656 -1.2911
  149DOPC   O3217765   4.879   2.021  16.503  0.5181 -0.0996  0.4275
  149DOPC   C3217766   4.735   1.816  16.510 -0.6366  0.4841 -0.7011
  149DOPC   H2X17767   4.792   1.732  16.555 -1.0955  0.7614  0.4324
  149DOPC   H2Y17768   4.629   1.820  16.544 -0.2898  0.2493  0.4556
  149DOPC   C2317769   4.707   2.463  16.325  0.2317  0.2176  0.1527
  149DOPC   H3R17770   4.816   2.476  16.336  0.2390 -0.0429  0.3963
  149DOPC   H3S17771   4.667   2.552  16.378 -1.8453  0.2243 -1.2880
  149DOPC   C2417772   4.661   2.476  16.180  0.5471  0.3446 -0.0671
  149DOPC   H4R17773   4.701   2.391  16.121  1.4668  1.3144 -0.8823
  149DOPC   H4S17774   4.709   2.568  16.139 -0.4645  0.7039 -0.4788
  149DOPC   C2517775   4.512   2.496  16.151 -0.1945  0.2080 -0.6376
  149DOPC   H5R17776   4.475   2.590  16.196 -3.6728 -1.1735 -0.3220
  149DOPC   H5S17777   4.451   2.413  16.193  2.0786 -0.8954  0.6983
  149DOPC   C2617778   4.491   2.500  15.995 -0.2429  0.2843 -0.6193
  149DOPC   H6R17779   4.544   2.593  15.967 -1.5174  1.2179 -0.0014
  149DOPC   H6S17780   4.383   2.509  15.970 -0.1366  1.1770 -0.7718
  149DOPC   C2717781   4.535   2.371  15.927  0.0863 -0.7080 -0.0339
  149DOPC   H7R17782   4.491   2.288  15.986 -0.9897  0.0249  0.2235
  149DOPC   H7S17783   4.645   2.365  15.936  0.4020 -0.4038 -2.7352
  149DOPC   C2817784   4.496   2.364  15.783  0.8963  0.2271  0.4584
  149DOPC   H8R17785   4.391   2.402  15.781  1.4911  1.9738 -1.7846
  149DOPC   H8S17786   4.500   2.262  15.738 -0.5220  1.1817 -2.0606
  149DOPC   C2917787   4.582   2.456  15.697 -0.0202 -0.2850  0.4393
  149DOPC   H9R17788   4.687   2.457  15.733 -0.0784 -1.0198  0.6445
  149DOPC  C21017789   4.547   2.544  15.605  0.1129  0.0335 -0.2208
  149DOPC  H10R17790   4.627   2.614  15.575  0.0649  1.4773  2.6777
  149DOPC  C21117791   4.399   2.581  15.571 -0.1835 -0.4926 -0.3061
  149DOPC  H11R17792   4.399   2.691  15.587 -0.8562 -0.6176  0.6436
  149DOPC  H11S17793   4.327   2.543  15.647 -1.1075  3.2160  0.8963
  149DOPC  C21217794   4.368   2.531  15.429 -0.2249 -0.8968 -1.3566
  149DOPC  H12R17795   4.454   2.567  15.369  0.3794  2.2047  1.0720
  149DOPC  H12S17796   4.277   2.580  15.388 -0.5999  0.8045  1.2268
  149DOPC  C21317797   4.351   2.379  15.408 -0.1929 -0.0711 -0.0003
  149DOPC  H13R17798   4.259   2.359  15.467 -1.4848  1.2616 -1.4668
  149DOPC  H13S17799   4.438   2.332  15.458 -1.3435  1.1277  3.4629
  149DOPC  C21417800   4.314   2.334  15.266 -0.8850  0.4907  0.2550
  149DOPC  H14R17801   4.395   2.358  15.194 -0.5214 -1.9721 -0.2402
  149DOPC  H14S17802   4.223   2.386  15.229 -0.9585  0.2491  0.0979
  149DOPC  C21517803   4.269   2.192  15.250 -0.0452  0.2690  0.7145
  149DOPC  H15R17804   4.187   2.151  15.313  0.5303 -2.2627 -0.0682
  149DOPC  H15S17805   4.359   2.130  15.269 -0.1848 -0.0688  0.2824
  149DOPC  C21617806   4.234   2.165  15.096 -0.2530  0.5586 -0.5047
  149DOPC  H16R17807   4.285   2.250  15.046 -0.2860  1.3872  0.8020
  149DOPC  H16S17808   4.124   2.162  15.079 -0.0939 -0.3444 -1.4021
  149DOPC  C21717809   4.284   2.034  15.048  0.5841  0.5593 -0.1435
  149DOPC  H17R17810   4.394   2.027  15.059  0.8569  1.0998 -2.0573
  149DOPC  H17S17811   4.271   2.018  14.938 -0.7249  0.5757 -0.0103
  149DOPC  C21817812   4.228   1.913  15.130  0.8889  0.0353  0.1234
  149DOPC  H18R17813   4.245   1.933  15.238 -0.8890 -1.4810  0.7267
  149DOPC  H18S17814   4.280   1.822  15.093  0.1683 -0.5504  0.5328
  149DOPC  H18T17815   4.119   1.892  15.136  0.8681  0.4917  1.8668
  149DOPC   C3317816   4.736   1.796  16.349  0.7815 -0.3318 -0.9025
  149DOPC   H3X17817   4.835   1.764  16.310  2.4591  2.9021  0.2598
  149DOPC   H3Y17818   4.708   1.898  16.316  0.2228 -0.8080 -1.9441
  149DOPC   C3417819   4.616   1.713  16.311  0.4820  0.1930  0.1224
  149DOPC   H4X17820   4.522   1.768  16.334  0.9637  1.2551 -0.3469
  149DOPC   H4Y17821   4.621   1.611  16.353 -1.3856 -0.3371 -0.8153
  149DOPC   C3517822   4.611   1.678  16.162  1.1579  0.2098 -0.5158
  149DOPC   H5X17823   4.546   1.590  16.144  1.8180 -0.4177  0.1059
  149DOPC   H5Y17824   4.712   1.650  16.124  2.1050  2.2588  0.3479
  149DOPC   C3617825   4.558   1.782  16.065 -0.0270  0.3347  0.3976
  149DOPC   H6X17826   4.448   1.783  16.050 -0.0791  1.7342  0.7202
  149DOPC   H6Y17827   4.586   1.879  16.111 -0.1826 -0.2182  1.7347
  149DOPC   C3717828   4.621   1.768  15.929 -0.7646 -0.7730  0.0842
  149DOPC   H7X17829   4.729   1.746  15.938 -0.5602  0.4407  0.8260
  149DOPC   H7Y17830   4.583   1.672  15.888 -1.5683 -0.3479 -0.1798
  149DOPC   C3817831   4.586   1.873  15.828  0.0555  0.1015 -0.7799
  149DOPC   H8X17832   4.573   1.973  15.876 -2.4952 -0.2513 -0.5944
  149DOPC   H8Y17833   4.491   1.834  15.786  0.7026 -0.5378 -1.6664
  149DOPC   C3917834   4.675   1.881  15.705  0.3226 -0.4784 -0.0622
  149DOPC   H9X17835   4.680   1.795  15.636  0.3296  0.2987 -1.0494
  149DOPC  C31017836   4.757   1.982  15.671 -0.2962 -0.0291  0.2255
  149DOPC  H10X17837   4.815   1.978  15.578 -1.0418 -0.5967 -0.2222
  149DOPC  C31117838   4.778   2.106  15.758  0.3530  0.2417 -0.5712
  149DOPC  H11X17839   4.761   2.087  15.866 -1.3134  3.3007 -0.1649
  149DOPC  H11Y17840   4.698   2.181  15.744 -0.3703 -0.7014 -1.6834
  149DOPC  C31217841   4.915   2.175  15.723 -0.3951 -0.9844  0.5432
  149DOPC  H12X17842   5.003   2.109  15.737  1.5761  1.1531 -0.9178
  149DOPC  H12Y17843   4.929   2.262  15.790 -4.3738  0.2284  0.0715
  149DOPC  C31317844   4.916   2.237  15.579 -0.1056  0.0546  0.9645
  149DOPC  H13X17845   4.917   2.149  15.510  1.3173  1.1023 -0.4059
  149DOPC  H13Y17846   4.820   2.293  15.573  0.3459  0.6801 -1.1015
  149DOPC  C31417847   5.039   2.325  15.550  0.7083  0.0570 -0.3548
  149DOPC  H14X17848   5.052   2.407  15.623  1.6585 -1.1797  0.9203
  149DOPC  H14Y17849   5.127   2.257  15.551 -0.7419 -1.8972  1.1609
  149DOPC  C31517850   5.032   2.406  15.415  0.1134 -0.1623 -0.2832
  149DOPC  H15X17851   5.004   2.337  15.333 -2.3025 -0.5199  0.7450
  149DOPC  H15Y17852   5.134   2.449  15.403  0.1463  0.2816  1.3550
  149DOPC  C31617853   4.940   2.526  15.424 -0.2424 -0.5386  0.4771
  149DOPC  H16X17854   4.843   2.494  15.468 -0.4776 -0.2525  0.1764
  149DOPC  H16Y17855   4.980   2.597  15.499  1.5355  1.3657 -2.0988
  149DOPC  C31717856   4.910   2.604  15.296  0.0843  1.1106 -0.3232
  149DOPC  H17X17857   5.000   2.623  15.233 -0.6777 -1.6525 -2.4358
  149DOPC  H17Y17858   4.840   2.547  15.232 -1.4243 -0.1194  2.2713
  149DOPC  C31817859   4.833   2.737  15.323  0.1014  0.0385 -0.1868
  149DOPC  H18X17860   4.892   2.793  15.398 -1.8604  1.1738  0.5913
  149DOPC  H18Y17861   4.827   2.807  15.238 -0.4231  1.7723  1.2190
  149DOPC  H18Z17862   4.732   2.721  15.367 -0.7044  2.0755 -1.1876
  150DOPC     N17863   0.150   4.937  17.070  0.4014 -0.6240  0.2124
  150DOPC   C1217864   0.140   4.825  16.965 -0.2697 -0.3931 -0.5124
  150DOPC  H12A17865   0.099   4.859  16.871 -0.9239  0.9361  0.2351
  150DOPC  H12B17866   0.069   4.753  17.004 -0.6710  0.5785  0.5911
  150DOPC   C1317867   0.221   4.899  17.198  0.2151  0.4629  0.1929
  150DOPC  H13A17868   0.324   4.877  17.174  0.3396  1.4484 -0.2130
  150DOPC  H13B17869   0.211   4.968  17.280 -0.1915 -0.7465  1.1908
  150DOPC  H13C17870   0.175   4.812  17.243 -1.7310  2.4411  2.3731
  150DOPC   C1417871   0.012   4.976  17.115  0.7069 -0.0326 -0.1625
  150DOPC  H14A17872  -0.047   4.900  17.163  2.4495  0.8649  3.7976
  150DOPC  H14B17873   0.016   5.052  17.190  2.5464 -0.9517  0.7264
  150DOPC  H14C17874  -0.051   5.020  17.039  2.2367  0.5551 -1.1558
  150DOPC   C1517875   0.216   5.060  17.018 -0.3901 -0.8547 -0.0648
  150DOPC  H15A17876   0.312   5.028  16.982 -0.2902 -0.7869  0.1395
  150DOPC  H15B17877   0.232   5.119  17.107 -2.3214  0.3662 -0.4585
  150DOPC  H15C17878   0.164   5.112  16.938  1.5870 -0.1460 -0.9347
  150DOPC   C1117879   0.270   4.759  16.927 -0.1870 -0.4060  0.2780
  150DOPC  H11A17880   0.311   4.717  17.022 -1.6175  0.6026  1.3833
  150DOPC  H11B17881   0.254   4.674  16.857 -0.4196  1.0185 -1.4420
  150DOPC     P17882   0.354   4.887  16.721 -0.6533  0.2334 -0.3439
  150DOPC   O1317883   0.401   5.027  16.717  0.3015 -0.5504  0.0726
  150DOPC   O1417884   0.224   4.854  16.663 -0.6576 -0.4802 -0.3308
  150DOPC   O1217885   0.365   4.851  16.877 -0.2834 -0.3901  0.0627
  150DOPC   O1117886   0.460   4.784  16.660  0.6664 -0.4070 -0.1613
  150DOPC    C117887   0.587   4.835  16.606 -0.2280  0.2554 -0.4534
  150DOPC    HA17888   0.650   4.745  16.590  0.1700  0.3773  0.4045
  150DOPC    HB17889   0.644   4.891  16.683  0.5539 -1.2042  0.0757
  150DOPC    C217890   0.571   4.916  16.473 -0.1386  0.4005 -0.1140
  150DOPC    HS17891   0.506   5.005  16.490 -2.4367 -1.1845 -0.1864
  150DOPC   O2117892   0.499   4.821  16.386 -0.3629 -0.6717 -0.1260
  150DOPC   C2117893   0.406   4.870  16.312  0.0343  0.2528  0.2033
  150DOPC   O2217894   0.378   4.988  16.306 -0.2816 -0.8538 -0.0750
  150DOPC   C2217895   0.330   4.765  16.232 -0.4660 -0.0295 -0.3681
  150DOPC   H2R17896   0.247   4.743  16.303 -0.6289  0.3043 -0.4577
  150DOPC   H2S17897   0.403   4.681  16.222 -1.0749 -0.4627 -1.2612
  150DOPC    C317898   0.706   4.964  16.416  0.8391 -0.5541 -0.6232
  150DOPC    HX17899   0.760   4.868  16.398  0.1875 -1.2348  0.9365
  150DOPC    HY17900   0.765   5.032  16.481  0.0769 -0.0810 -0.4208
  150DOPC   O3117901   0.701   5.027  16.285  0.4258 -0.0462 -0.2730
  150DOPC   C3117902   0.654   5.155  16.286 -0.3603  0.2287 -0.2446
  150DOPC   O3217903   0.635   5.219  16.390  0.1045 -0.3815 -0.0617
  150DOPC   C3217904   0.661   5.215  16.145  0.5720  0.0843 -0.0110
  150DOPC   H2X17905   0.605   5.311  16.149  2.8649  1.4744  0.8275
  150DOPC   H2Y17906   0.767   5.240  16.123 -0.3128  2.1165 -2.4710
  150DOPC   C2317907   0.295   4.837  16.098 -0.1501 -0.2469  0.8083
  150DOPC   H3R17908   0.393   4.883  16.075  1.2639 -3.9044 -1.2182
  150DOPC   H3S17909   0.213   4.908  16.123 -2.1678 -2.9728  2.5310
  150DOPC   C2417910   0.243   4.736  16.003 -0.0613  0.8218  0.6383
  150DOPC   H4R17911   0.143   4.700  16.036 -1.4275  1.5827 -2.2952
  150DOPC   H4S17912   0.318   4.654  16.004  0.7320  1.4686 -0.9793
  150DOPC   C2517913   0.221   4.781  15.855 -0.4627  0.2411  0.0373
  150DOPC   H5R17914   0.175   4.695  15.802 -0.0823 -0.9630  1.5849
  150DOPC   H5S17915   0.321   4.804  15.814 -0.4924  2.0551  0.8458
  150DOPC   C2617916   0.137   4.911  15.846 -0.9326  1.1917 -0.2127
  150DOPC   H6R17917   0.213   4.992  15.856  0.2762  0.3435 -1.9772
  150DOPC   H6S17918   0.063   4.916  15.929  0.3797  1.0832  0.9929
  150DOPC   C2717919   0.059   4.932  15.708 -0.0437 -0.1014 -0.9411
  150DOPC   H7R17920   0.133   4.963  15.631  0.3887  2.0979  0.2708
  150DOPC   H7S17921   0.006   5.028  15.728  3.2571  1.5952  0.5753
  150DOPC   C2817922  -0.035   4.814  15.670 -0.6453 -0.5967 -0.7167
  150DOPC   H8R17923  -0.102   4.795  15.757  0.1474  0.7393  0.2201
  150DOPC   H8S17924   0.030   4.726  15.651  1.6890  0.9180 -0.1924
  150DOPC   C2917925  -0.130   4.854  15.567  0.5293 -0.4334  0.4885
  150DOPC   H9R17926  -0.189   4.942  15.594  1.2317 -0.0589  0.8468
  150DOPC  C21017927  -0.154   4.789  15.451 -0.4760 -0.1227 -0.0744
  150DOPC  H10R17928  -0.220   4.845  15.382 -0.8758 -0.0866  0.3350
  150DOPC  C21117929  -0.093   4.668  15.393 -0.7496  0.3250  0.6660
  150DOPC  H11R17930   0.015   4.662  15.419 -0.3504 -0.0307 -0.9567
  150DOPC  H11S17931  -0.100   4.663  15.282 -1.4871 -1.1737  0.7497
  150DOPC  C21217932  -0.160   4.540  15.455 -0.1598  0.2401  0.4052
  150DOPC  H12R17933  -0.267   4.531  15.427  0.3423 -1.0781 -1.2232
  150DOPC  H12S17934  -0.144   4.541  15.565 -0.2367 -0.4814  0.4262
  150DOPC  C21317935  -0.091   4.408  15.411 -0.8640  0.4585 -0.6445
  150DOPC  H13R17936  -0.131   4.325  15.473 -1.1250  1.7195  0.9337
  150DOPC  H13S17937   0.017   4.417  15.432 -1.0428 -0.3465  0.6893
  150DOPC  C21417938  -0.096   4.379  15.255  0.2509 -0.3524  0.0720
  150DOPC  H14R17939  -0.062   4.471  15.203 -0.7083  0.2755  0.5240
  150DOPC  H14S17940  -0.202   4.363  15.228  0.0950  0.8534 -0.0718
  150DOPC  C21517941  -0.007   4.266  15.210 -0.1964  0.3236 -0.1962
  150DOPC  H15R17942  -0.052   4.167  15.235 -0.8437  0.2439 -1.5995
  150DOPC  H15S17943   0.085   4.278  15.271 -0.1975 -0.4969 -0.0232
  150DOPC  C21617944   0.037   4.280  15.061  0.7306 -0.0292 -0.1715
  150DOPC  H16R17945   0.100   4.371  15.053  1.1682 -0.2125  0.9498
  150DOPC  H16S17946  -0.058   4.283  15.002  0.5290 -0.7371  0.1020
  150DOPC  C21717947   0.119   4.161  15.002 -0.3306  0.0501 -0.5395
  150DOPC  H17R17948   0.076   4.066  15.041 -1.3528  1.1905  1.2110
  150DOPC  H17S17949   0.223   4.160  15.041 -0.4309 -1.9020 -0.1924
  150DOPC  C21817950   0.114   4.158  14.853 -0.2099  0.6392  0.3906
  150DOPC  H18R17951   0.013   4.140  14.809 -0.4421  2.3007  0.1739
  150DOPC  H18S17952   0.167   4.066  14.821  0.3017  1.2319 -0.4948
  150DOPC  H18T17953   0.162   4.247  14.806  1.9737 -0.1840  0.9515
  150DOPC   C3317954   0.611   5.114  16.028  0.1143 -0.5346 -0.5991
  150DOPC   H3X17955   0.508   5.076  16.048 -0.4608 -1.0108 -3.9764
  150DOPC   H3Y17956   0.680   5.027  16.026  1.3129  0.3571  0.1984
  150DOPC   C3417957   0.603   5.173  15.889 -0.5522  0.2915  0.4534
  150DOPC   H4X17958   0.708   5.208  15.882 -0.1372 -0.9884  0.0099
  150DOPC   H4Y17959   0.535   5.261  15.898 -2.9807 -1.6079  1.8550
  150DOPC   C3517960   0.567   5.077  15.774 -0.0649 -0.5391  0.6339
  150DOPC   H5X17961   0.471   5.025  15.795 -0.1235 -2.1317 -2.9716
  150DOPC   H5Y17962   0.645   4.999  15.760 -1.5418 -2.0947  0.6248
  150DOPC   C3617963   0.534   5.151  15.642 -0.1017 -0.4694 -0.2093
  150DOPC   H6X17964   0.477   5.242  15.671  1.3382  0.6869 -0.8830
  150DOPC   H6Y17965   0.630   5.189  15.600 -0.1752  0.0829  0.1099
  150DOPC   C3717966   0.464   5.069  15.539  0.2818  0.2458  0.0835
  150DOPC   H7X17967   0.539   5.003  15.489  0.7831  1.8627 -1.4047
  150DOPC   H7Y17968   0.391   5.004  15.593  0.0690  0.2549 -0.1923
  150DOPC   C3817969   0.400   5.157  15.427 -0.3387 -0.1754 -0.2418
  150DOPC   H8X17970   0.482   5.222  15.390 -0.1178 -0.8458 -0.9709
  150DOPC   H8Y17971   0.327   5.231  15.467  1.6700  1.2152  1.0719
  150DOPC   C3917972   0.348   5.066  15.316  0.9078 -0.0804 -0.2914
  150DOPC   H9X17973   0.417   4.987  15.286  0.7813  0.5796 -2.4832
  150DOPC  C31017974   0.220   5.068  15.268  0.1382  0.6196  0.5524
  150DOPC  H10X17975   0.200   4.993  15.191  0.0193  0.9296  0.2795
  150DOPC  C31117976   0.114   5.156  15.309  0.0036  0.3775  0.0607
  150DOPC  H11X17977   0.156   5.259  15.318 -0.7401  0.5461  2.3854
  150DOPC  H11Y17978   0.087   5.119  15.411  2.4687 -0.1420  0.5798
  150DOPC  C31217979  -0.017   5.164  15.232  0.0780  0.1486  0.1038
  150DOPC  H12X17980   0.014   5.181  15.127  2.0431  2.0055  0.9068
  150DOPC  H12Y17981  -0.067   5.260  15.257 -2.5708 -1.2264  0.3704
  150DOPC  C31317982  -0.107   5.043  15.232 -0.3360  0.4576 -0.5199
  150DOPC  H13X17983  -0.042   4.954  15.225  0.4528  1.1303 -3.9060
  150DOPC  H13Y17984  -0.162   5.038  15.328  0.2575 -3.2029 -0.2579
  150DOPC  C31417985  -0.188   5.030  15.106 -0.2641 -0.2777  0.0516
  150DOPC  H14X17986  -0.269   5.106  15.100 -0.3608 -0.4027 -0.3085
  150DOPC  H14Y17987  -0.124   5.047  15.017 -0.9603 -1.6496 -0.7638
  150DOPC  C31517988  -0.269   4.901  15.097  0.2958  0.0932 -0.9236
  150DOPC  H15X17989  -0.351   4.902  15.171  2.5614 -1.2743  1.8125
  150DOPC  H15Y17990  -0.209   4.813  15.128 -2.3121 -2.1220 -1.7958
  150DOPC  C31617991  -0.330   4.880  14.961 -0.3998 -0.1453 -0.2005
  150DOPC  H16X17992  -0.262   4.887  14.873  0.7308 -0.1259  0.6549
  150DOPC  H16Y17993  -0.354   4.771  14.964 -0.3240 -0.1426  0.8198
  150DOPC  C31717994  -0.455   4.966  14.939  0.1857  0.3001  0.1216
  150DOPC  H17X17995  -0.511   4.958  15.035  0.6461  1.1729  0.4817
  150DOPC  H17Y17996  -0.427   5.073  14.937 -1.1357  0.7399  2.0879
  150DOPC  C31817997  -0.552   4.922  14.825  0.1845 -0.0320  0.0623
  150DOPC  H18X17998  -0.638   4.992  14.815 -0.2773 -0.7112 -0.8563
  150DOPC  H18Y17999  -0.494   4.939  14.732  2.1152  0.1791  1.2498
  150DOPC  H18Z18000  -0.575   4.814  14.832 -0.3482  0.0406 -0.4892
  151DOPC     N18001   2.737   2.734  16.665  0.0298  0.3245  0.3440
  151DOPC   C1218002   2.893   2.741  16.631 -0.2374 -0.1059  0.1118
  151DOPC  H12A18003   2.905   2.697  16.533  0.5016  3.0757 -1.3485
  151DOPC  H12B18004   2.936   2.681  16.710 -2.3978  1.5605  2.7379
  151DOPC   C1318005   2.722   2.752  16.810  0.0447 -0.2854 -0.7272
  151DOPC  H13A18006   2.617   2.764  16.834  0.2239 -0.6120  0.2427
  151DOPC  H13B18007   2.745   2.670  16.877 -1.3704 -0.2620 -0.1676
  151DOPC  H13C18008   2.785   2.832  16.847  0.4221  0.3634 -2.6688
  151DOPC   C1418009   2.689   2.594  16.628 -0.2326  0.1320 -0.7128
  151DOPC  H14A18010   2.669   2.574  16.524  0.0432  0.3485 -0.8096
  151DOPC  H14B18011   2.746   2.512  16.669 -1.1109  0.7164  1.9163
  151DOPC  H14C18012   2.594   2.580  16.678  0.3718  2.1896  1.1761
  151DOPC   C1518013   2.662   2.832  16.589 -0.3915 -0.0215  0.0332
  151DOPC  H15A18014   2.697   2.831  16.487 -0.0272  1.9160  0.1108
  151DOPC  H15B18015   2.695   2.927  16.626  2.2907 -1.1659  0.8155
  151DOPC  H15C18016   2.555   2.816  16.595 -0.5885  0.8930 -0.8004
  151DOPC   C1118017   2.960   2.878  16.615 -0.1076 -0.2788  0.2338
  151DOPC  H11A18018   3.068   2.865  16.596 -0.0335  0.5306  0.0589
  151DOPC  H11B18019   2.906   2.926  16.531  0.5474  2.5753  1.3119
  151DOPC     P18020   2.889   3.106  16.743 -0.2643 -0.0602 -0.3074
  151DOPC   O1318021   2.961   3.186  16.851 -0.2431  0.3832  0.2070
  151DOPC   O1418022   2.743   3.105  16.761  0.6029  0.1181  0.5579
  151DOPC   O1218023   2.946   2.959  16.732 -0.2726 -0.0643 -0.0432
  151DOPC   O1118024   2.928   3.167  16.606  0.5758 -0.2437  0.1031
  151DOPC    C118025   3.065   3.192  16.568  0.7095 -0.2255 -0.5849
  151DOPC    HA18026   3.109   3.093  16.542 -1.0121 -1.0372 -0.5366
  151DOPC    HB18027   3.109   3.247  16.653 -2.7222  2.8149 -0.5342
  151DOPC    C218028   3.078   3.281  16.446 -0.8185 -0.5234 -0.6173
  151DOPC    HS18029   3.023   3.367  16.489 -1.9647 -1.9942  1.0105
  151DOPC   O2118030   3.009   3.223  16.338  0.1622  0.5046  0.2415
  151DOPC   C2118031   2.955   3.314  16.258 -0.0007 -0.3492  0.1827
  151DOPC   O2218032   2.948   3.432  16.276 -0.0808  0.4183 -0.7780
  151DOPC   C2218033   2.921   3.238  16.122  0.4413  0.3395 -0.3164
  151DOPC   H2R18034   2.811   3.221  16.124  0.5667 -0.5499 -0.6816
  151DOPC   H2S18035   2.972   3.139  16.116 -0.4662 -0.1114 -0.8043
  151DOPC    C318036   3.228   3.307  16.412 -0.0677 -0.5539  0.1710
  151DOPC    HX18037   3.287   3.212  16.406  1.9635  0.7326 -1.3522
  151DOPC    HY18038   3.270   3.372  16.492  1.0668  0.0031 -0.8524
  151DOPC   O3118039   3.245   3.370  16.280  0.5681 -0.0238  0.3691
  151DOPC   C3118040   3.245   3.505  16.279 -0.5492  0.1594  0.6122
  151DOPC   O3218041   3.233   3.577  16.380 -0.5050  0.1314  0.4907
  151DOPC   C3218042   3.240   3.553  16.137 -0.2679 -0.4113 -0.3793
  151DOPC   H2X18043   3.257   3.468  16.067  3.7553  0.7259 -1.0366
  151DOPC   H2Y18044   3.136   3.589  16.117  0.0875 -0.3437 -2.3642
  151DOPC   C2318045   2.965   3.321  15.992  0.0572  0.1717  0.2727
  151DOPC   H3R18046   3.063   3.371  16.011  0.5442 -0.9821  0.9053
  151DOPC   H3S18047   2.892   3.403  15.972  0.0262 -0.1494 -0.9833
  151DOPC   C2418048   2.992   3.225  15.871 -0.3731 -0.4364  0.5709
  151DOPC   H4R18049   2.894   3.178  15.847 -2.5816  3.4301  1.2570
  151DOPC   H4S18050   3.058   3.143  15.906 -0.0082  0.7368  2.8446
  151DOPC   C2518051   3.053   3.290  15.752 -0.6908 -0.3528 -0.4702
  151DOPC   H5R18052   3.154   3.327  15.781  0.2565 -1.8886 -1.6799
  151DOPC   H5S18053   2.989   3.368  15.707 -0.5395  0.1866  0.2316
  151DOPC   C2618054   3.082   3.193  15.630 -0.7578 -0.7215  0.1448
  151DOPC   H6R18055   3.163   3.123  15.660  1.1970  1.3889  0.0580
  151DOPC   H6S18056   3.136   3.254  15.555 -0.4526 -0.8657  0.2454
  151DOPC   C2718057   2.954   3.126  15.580  0.3551  0.6670 -0.2634
  151DOPC   H7R18058   2.882   3.202  15.542 -0.0572  0.9097  0.9603
  151DOPC   H7S18059   2.912   3.070  15.666  0.1843  1.2374  0.0320
  151DOPC   C2818060   2.991   3.035  15.456 -0.3036 -0.4230 -0.3690
  151DOPC   H8R18061   2.899   2.982  15.422 -0.0369 -1.3729  0.3463
  151DOPC   H8S18062   3.047   2.949  15.498 -0.4016  0.1896  1.0920
  151DOPC   C2918063   3.056   3.100  15.336  0.1360 -0.0539 -0.0331
  151DOPC   H9R18064   3.015   3.201  15.318 -1.4333 -0.3070  1.8425
  151DOPC  C21018065   3.164   3.053  15.278 -0.4301 -0.0083  0.1462
  151DOPC  H10R18066   3.208   3.108  15.193  0.8421  0.2186  0.9238
  151DOPC  C21118067   3.253   2.932  15.308  0.3700 -0.2710 -0.0594
  151DOPC  H11R18068   3.208   2.878  15.395 -0.3814 -0.6149 -0.6469
  151DOPC  H11S18069   3.356   2.963  15.334  0.7108 -0.0578 -1.5959
  151DOPC  C21218070   3.253   2.840  15.183  0.4905  0.6075  0.0446
  151DOPC  H12R18071   3.313   2.888  15.102  1.4461 -1.3564 -0.4784
  151DOPC  H12S18072   3.149   2.828  15.145  1.1342 -3.6513 -0.8804
  151DOPC  C21318073   3.303   2.700  15.218 -0.0300 -0.3386 -0.3569
  151DOPC  H13R18074   3.256   2.658  15.309  1.0458  0.7076  0.7222
  151DOPC  H13S18075   3.414   2.704  15.227 -0.1308  0.2876  0.7884
  151DOPC  C21418076   3.273   2.599  15.112  0.1095  0.2175  0.4330
  151DOPC  H14R18077   3.162   2.596  15.099 -0.0671  0.8441  1.6076
  151DOPC  H14S18078   3.303   2.501  15.155  1.2427 -0.6874 -2.2321
  151DOPC  C21518079   3.332   2.613  14.965 -0.0413  0.0936 -0.0328
  151DOPC  H15R18080   3.330   2.719  14.931 -0.7930 -0.1961 -0.9109
  151DOPC  H15S18081   3.276   2.552  14.892  1.2500 -0.1574 -0.8498
  151DOPC  C21618082   3.479   2.576  14.957 -0.2938 -0.8311 -0.4868
  151DOPC  H16R18083   3.497   2.473  14.994  1.6824 -0.0900  0.7767
  151DOPC  H16S18084   3.537   2.641  15.025 -2.9846  1.5104 -0.2243
  151DOPC  C21718085   3.533   2.594  14.812 -0.3587  0.6732 -0.5033
  151DOPC  H17R18086   3.514   2.696  14.771 -2.2737  0.6398  0.1989
  151DOPC  H17S18087   3.470   2.534  14.744 -0.8571 -0.2701  0.7477
  151DOPC  C21818088   3.679   2.541  14.789 -0.2698 -0.0108  0.2867
  151DOPC  H18R18089   3.757   2.603  14.840  0.9796 -1.2322 -0.1089
  151DOPC  H18S18090   3.693   2.539  14.679 -0.8305 -2.5319  0.2037
  151DOPC  H18T18091   3.680   2.434  14.817  1.3993 -1.0316 -3.2258
  151DOPC   C3318092   3.335   3.678  16.128  0.5353  0.7361  0.4021
  151DOPC   H3X18093   3.289   3.754  16.195 -1.5547  0.0028 -0.1098
  151DOPC   H3Y18094   3.321   3.718  16.025 -1.4230  0.9307  0.6911
  151DOPC   C3418095   3.488   3.672  16.159  0.8967 -0.3718  0.0047
  151DOPC   H4X18096   3.503   3.682  16.268 -0.1178  1.0840  0.0393
  151DOPC   H4Y18097   3.533   3.764  16.115  1.0814  0.8131  2.5423
  151DOPC   C3518098   3.545   3.550  16.084  0.0559 -0.5620  0.2090
  151DOPC   H5X18099   3.554   3.578  15.977  2.6169  1.4429  0.8300
  151DOPC   H5Y18100   3.483   3.459  16.093 -1.9335  0.5263 -1.7027
  151DOPC   C3618101   3.679   3.512  16.143 -0.0050  0.3738  0.1490
  151DOPC   H6X18102   3.679   3.515  16.255 -1.1838  1.0302  0.1525
  151DOPC   H6Y18103   3.714   3.412  16.112 -1.0340  0.3483 -1.0150
  151DOPC   C3718104   3.787   3.603  16.087  0.1199 -0.6006  0.1919
  151DOPC   H7X18105   3.798   3.605  15.976  0.8399 -2.1928  0.2031
  151DOPC   H7Y18106   3.756   3.708  16.106  0.5741 -0.5717  0.8047
  151DOPC   C3818107   3.927   3.565  16.140  0.0582  0.2507 -0.6604
  151DOPC   H8X18108   4.001   3.625  16.083 -1.0701  1.0366 -1.3207
  151DOPC   H8Y18109   3.951   3.460  16.111 -1.3433 -0.0482 -0.7963
  151DOPC   C3918110   3.947   3.574  16.290 -0.1282  0.5733  0.4725
  151DOPC   H9X18111   3.851   3.581  16.342 -0.0567  0.0517  0.6782
  151DOPC  C31018112   4.057   3.600  16.359  0.0374 -0.8323 -0.9420
  151DOPC  H10X18113   4.053   3.618  16.468  0.9799 -0.0438 -1.0222
  151DOPC  C31118114   4.189   3.631  16.291 -0.2209 -0.5623 -0.1574
  151DOPC  H11X18115   4.223   3.730  16.327 -1.9017 -0.3669  1.0405
  151DOPC  H11Y18116   4.181   3.633  16.181 -1.8126  0.3830 -0.0518
  151DOPC  C31218117   4.289   3.532  16.351 -0.0877 -0.3530 -0.6259
  151DOPC  H12X18118   4.270   3.427  16.317 -0.5237 -0.0688 -1.2781
  151DOPC  H12Y18119   4.281   3.546  16.460 -0.1739  2.6465 -0.9513
  151DOPC  C31318120   4.433   3.559  16.304 -0.2298 -0.6565 -1.3940
  151DOPC  H13X18121   4.485   3.470  16.346  0.2321  1.0495  2.0189
  151DOPC  H13Y18122   4.445   3.556  16.194 -0.8623 -0.1680 -1.4801
  151DOPC  C31418123   4.509   3.680  16.365  0.2631  0.1745  0.3366
  151DOPC  H14X18124   4.456   3.777  16.351  0.5476  0.5172  1.5095
  151DOPC  H14Y18125   4.533   3.665  16.473  2.0876 -1.9719 -0.3095
  151DOPC  C31518126   4.647   3.687  16.285  0.0734 -0.0841  0.2431
  151DOPC  H15X18127   4.627   3.688  16.176 -2.3281 -2.3890  0.5576
  151DOPC  H15Y18128   4.701   3.592  16.307 -0.3272 -0.9504 -2.1994
  151DOPC  C31618129   4.742   3.801  16.329  1.2181  0.2580 -0.5209
  151DOPC  H16X18130   4.686   3.897  16.326 -0.4176 -0.5138  2.2266
  151DOPC  H16Y18131   4.765   3.778  16.436  1.9320  1.4246 -0.4011
  151DOPC  C31718132   4.876   3.791  16.256 -0.7819 -0.6191  0.4762
  151DOPC  H17X18133   4.964   3.840  16.303 -1.0123 -0.2301  0.5034
  151DOPC  H17Y18134   4.920   3.689  16.262 -0.3524 -0.5598 -1.2067
  151DOPC  C31818135   4.865   3.818  16.108  0.1973  0.4741  0.0327
  151DOPC  H18X18136   4.803   3.744  16.053 -0.3767  1.2895 -0.4366
  151DOPC  H18Y18137   4.815   3.916  16.089 -0.6815 -0.2988 -1.8115
  151DOPC  H18Z18138   4.966   3.831  16.062  2.1103 -0.6253  3.5351
  152DOPC     N18139   4.356   0.893  17.296  0.1715  0.2615 -0.5097
  152DOPC   C1218140   4.474   0.816  17.231  0.5086  0.2012  0.5142
  152DOPC  H12A18141   4.428   0.730  17.185  0.7340  1.8410 -3.0723
  152DOPC  H12B18142   4.546   0.782  17.305  2.2349  0.8510 -0.7925
  152DOPC   C1318143   4.253   0.913  17.193  0.1306 -0.5064  0.2856
  152DOPC  H13A18144   4.220   0.816  17.156  1.8063 -0.9262 -0.2202
  152DOPC  H13B18145   4.164   0.967  17.221 -0.7721 -1.0551 -1.3487
  152DOPC  H13C18146   4.304   0.967  17.115 -0.0996  2.0159  1.7976
  152DOPC   C1418147   4.385   1.028  17.352  0.0120  0.2070 -0.1613
  152DOPC  H14A18148   4.296   1.069  17.398  0.2086 -0.6124  0.9878
  152DOPC  H14B18149   4.472   1.026  17.416 -0.5565  0.3416  0.6222
  152DOPC  H14C18150   4.407   1.104  17.278 -0.6254  1.5744  0.9954
  152DOPC   C1518151   4.296   0.802  17.401 -0.0673 -0.5163  0.2192
  152DOPC  H15A18152   4.255   0.714  17.354  0.6199 -0.8420  0.2117
  152DOPC  H15B18153   4.210   0.853  17.442  0.3838 -0.5189  1.2019
  152DOPC  H15C18154   4.373   0.765  17.468  1.4117 -0.6400 -1.4704
  152DOPC   C1118155   4.565   0.887  17.134 -0.1241 -0.2661  0.7275
  152DOPC  H11A18156   4.565   0.997  17.153  2.9139  0.0417 -0.4811
  152DOPC  H11B18157   4.673   0.862  17.150  0.3989  0.7351 -0.9563
  152DOPC     P18158   4.555   0.720  16.919  0.3659 -0.2398 -0.0225
  152DOPC   O1318159   4.470   0.707  16.793 -0.2113 -0.5571  0.0559
  152DOPC   O1418160   4.539   0.606  17.018  0.8361  0.1271  0.3176
  152DOPC   O1218161   4.529   0.859  16.998  0.1897 -0.3264  0.5799
  152DOPC   O1118162   4.703   0.727  16.880  0.2712  0.0239  0.2446
  152DOPC    C118163   4.767   0.829  16.806 -0.3174 -0.4576 -0.1693
  152DOPC    HA18164   4.877   0.809  16.807 -0.3184 -0.4856  1.4791
  152DOPC    HB18165   4.755   0.922  16.865  2.3646 -1.7016  2.6541
  152DOPC    C218166   4.707   0.848  16.663 -0.1109  0.2712  0.1605
  152DOPC    HS18167   4.601   0.879  16.674 -0.9364 -2.3409  0.1738
  152DOPC   O2118168   4.708   0.717  16.599  0.1960  0.7891 -0.1087
  152DOPC   C2118169   4.622   0.702  16.507  0.2285  0.3584  0.2585
  152DOPC   O2218170   4.534   0.780  16.482 -0.1379 -0.5609 -0.4258
  152DOPC   C2218171   4.621   0.558  16.460  0.5654  0.1339 -0.1052
  152DOPC   H2R18172   4.542   0.498  16.510  0.2373  0.1235 -0.6362
  152DOPC   H2S18173   4.722   0.519  16.484  0.7431  0.7349  0.1419
  152DOPC    C318174   4.790   0.955  16.576  0.2941 -0.0436  0.0021
  152DOPC    HX18175   4.894   0.918  16.565  1.0420  1.8653  0.3619
  152DOPC    HY18176   4.801   1.049  16.634 -0.3659  0.0087  0.0486
  152DOPC   O3118177   4.745   0.981  16.446  0.1225  0.3925 -0.1237
  152DOPC   C3118178   4.662   1.091  16.439 -0.3280  0.0482  0.4451
  152DOPC   O3218179   4.629   1.160  16.529  0.3043 -0.0287 -0.3507
  152DOPC   C3218180   4.634   1.123  16.289 -0.7054  0.2808  0.0351
  152DOPC   H2X18181   4.729   1.158  16.244  1.1666 -1.3299  2.4867
  152DOPC   H2Y18182   4.615   1.026  16.238 -0.0748 -0.1580  0.6199
  152DOPC   C2318183   4.605   0.554  16.304  0.0459  0.0045  0.4141
  152DOPC   H3R18184   4.518   0.621  16.287  0.5888  0.6942  0.2909
  152DOPC   H3S18185   4.591   0.450  16.268  3.3611  0.0193 -1.3327
  152DOPC   C2418186   4.724   0.606  16.226 -0.2198  0.3076 -0.2925
  152DOPC   H4R18187   4.819   0.557  16.257  0.0820  0.4192 -1.0181
  152DOPC   H4S18188   4.748   0.714  16.233  0.9521  0.0307  0.2389
  152DOPC   C2518189   4.713   0.572  16.076 -0.2378 -0.3028  0.1215
  152DOPC   H5R18190   4.608   0.573  16.040 -0.7843 -2.5417  1.4706
  152DOPC   H5S18191   4.744   0.465  16.072 -1.7514 -0.8778  2.0958
  152DOPC   C2618192   4.784   0.672  15.985  0.2487 -0.6960  0.4835
  152DOPC   H6R18193   4.884   0.688  16.031 -0.8553 -0.6394  3.0072
  152DOPC   H6S18194   4.718   0.759  16.003 -1.4920 -1.9874  0.7042
  152DOPC   C2718195   4.791   0.636  15.834 -0.1589  0.4572 -0.3159
  152DOPC   H7R18196   4.815   0.721  15.768 -1.6404  0.0480 -1.4425
  152DOPC   H7S18197   4.691   0.604  15.798  0.8864 -1.7640 -1.4531
  152DOPC   C2818198   4.891   0.524  15.803  0.3263 -0.1010 -0.5673
  152DOPC   H8R18199   4.842   0.427  15.825  1.3257 -0.3373  0.7915
  152DOPC   H8S18200   4.975   0.531  15.876 -2.3807  2.0551  2.6763
  152DOPC   C2918201   4.928   0.519  15.661 -0.3353  0.1767  0.4346
  152DOPC   H9R18202   5.022   0.570  15.636  0.9387 -1.6387  1.2734
  152DOPC  C21018203   4.875   0.437  15.567  0.5660  0.1392  0.5118
  152DOPC  H10R18204   4.920   0.439  15.466  0.7871  0.9768  0.6219
  152DOPC  C21118205   4.762   0.336  15.583 -0.0334  0.0868 -0.2898
  152DOPC  H11R18206   4.701   0.336  15.489  0.3020 -0.3582 -0.5103
  152DOPC  H11S18207   4.706   0.358  15.676 -0.4698 -2.9270  0.2681
  152DOPC  C21218208   4.813   0.186  15.615 -0.3629 -0.6204  0.2873
  152DOPC  H12R18209   4.898   0.198  15.685 -1.0148  1.9761  0.7622
  152DOPC  H12S18210   4.840   0.136  15.520 -2.3017 -0.1826 -0.5423
  152DOPC  C21318211   4.707   0.103  15.671 -0.5151 -0.0240 -0.1863
  152DOPC  H13R18212   4.624   0.101  15.597  1.8776 -0.7399 -3.0644
  152DOPC  H13S18213   4.673   0.147  15.767  1.4027  1.6235 -0.1775
  152DOPC  C21418214   4.757  -0.031  15.688 -0.0828 -0.1923  0.0601
  152DOPC  H14R18215   4.840  -0.050  15.616  0.3709  1.5103  0.1053
  152DOPC  H14S18216   4.677  -0.107  15.677  0.1709 -0.6538  1.2424
  152DOPC  C21518217   4.820  -0.055  15.825  0.3646  0.0891 -0.6809
  152DOPC  H15R18218   4.744  -0.048  15.905  0.4243 -1.2851 -0.4703
  152DOPC  H15S18219   4.895   0.025  15.843  0.2469 -0.0968  0.6872
  152DOPC  C21618220   4.892  -0.189  15.853  0.0139 -0.3479 -1.0325
  152DOPC  H16R18221   4.824  -0.277  15.842 -0.8275  0.2073 -0.4169
  152DOPC  H16S18222   4.923  -0.189  15.960  1.2059  2.7633 -1.2841
  152DOPC  C21718223   5.011  -0.220  15.771 -0.7714 -0.2192  0.0681
  152DOPC  H17R18224   4.988  -0.212  15.662  0.1395 -1.8857 -0.2758
  152DOPC  H17S18225   5.042  -0.325  15.791 -0.6877 -0.5169 -1.4496
  152DOPC  C21818226   5.128  -0.128  15.789 -0.3193 -0.3250 -0.0112
  152DOPC  H18R18227   5.097  -0.022  15.798  0.6744 -0.1291  1.5237
  152DOPC  H18S18228   5.191  -0.132  15.697 -0.1302  3.2645 -0.1543
  152DOPC  H18T18229   5.192  -0.151  15.877  0.1166  2.1771  0.3987
  152DOPC   C3318230   4.525   1.231  16.267  0.3387  0.1007 -0.2396
  152DOPC   H3X18231   4.548   1.316  16.335 -0.6716  0.4839 -0.3580
  152DOPC   H3Y18232   4.426   1.183  16.287  0.7999 -0.0323  2.0342
  152DOPC   C3418233   4.524   1.294  16.127 -0.0746 -0.5990 -0.5021
  152DOPC   H4X18234   4.618   1.353  16.117 -0.6540  0.1681 -1.7845
  152DOPC   H4Y18235   4.446   1.373  16.129  1.8435  1.3874  1.9027
  152DOPC   C3518236   4.513   1.208  15.999  0.2622 -0.3712 -0.5344
  152DOPC   H5X18237   4.413   1.160  16.010  0.0749  0.0183 -0.5341
  152DOPC   H5Y18238   4.595   1.133  15.994  1.9433  1.2706  0.9069
  152DOPC   C3618239   4.524   1.296  15.873 -0.1291  0.5888  0.3843
  152DOPC   H6X18240   4.628   1.326  15.848  0.2143 -1.4370 -0.8778
  152DOPC   H6Y18241   4.498   1.234  15.785  0.4197  1.6165 -0.5261
  152DOPC   C3718242   4.430   1.421  15.863  0.4068 -0.1721 -0.9665
  152DOPC   H7X18243   4.329   1.385  15.891 -0.0245  1.0908 -0.8304
  152DOPC   H7Y18244   4.461   1.492  15.943 -1.5027 -1.5962  1.1581
  152DOPC   C3818245   4.444   1.498  15.731 -0.2050  0.2881 -0.1448
  152DOPC   H8X18246   4.550   1.529  15.728  0.1151 -0.8751 -1.7082
  152DOPC   H8Y18247   4.388   1.593  15.741 -1.0529 -0.3009  1.1010
  152DOPC   C3918248   4.401   1.417  15.612  0.0492  0.4748 -0.4431
  152DOPC   H9X18249   4.298   1.378  15.611  0.2188  0.0221 -0.5320
  152DOPC  C31018250   4.479   1.396  15.505  0.2397  0.2365  0.0993
  152DOPC  H10X18251   4.425   1.333  15.433 -0.7024  0.3471  0.6972
  152DOPC  C31118252   4.615   1.446  15.473 -0.1092  0.8648  0.1746
  152DOPC  H11X18253   4.674   1.360  15.436 -0.5164  1.1745 -1.2729
  152DOPC  H11Y18254   4.676   1.481  15.558  0.4143  1.6788 -0.5150
  152DOPC  C31218255   4.627   1.559  15.373 -0.7853 -0.2991  0.5459
  152DOPC  H12X18256   4.621   1.518  15.270 -0.3894 -0.8596  0.7370
  152DOPC  H12Y18257   4.730   1.599  15.385 -1.4869  1.2591  1.8006
  152DOPC  C31318258   4.530   1.675  15.398  0.3713  0.2974 -0.5461
  152DOPC  H13X18259   4.430   1.651  15.356 -0.3810  4.1069 -1.3341
  152DOPC  H13Y18260   4.516   1.678  15.508 -0.0195 -2.7529 -0.4370
  152DOPC  C31418261   4.563   1.814  15.343  0.9582  0.1694  0.5574
  152DOPC  H14X18262   4.477   1.879  15.370  0.8570  0.4524 -0.4168
  152DOPC  H14Y18263   4.655   1.861  15.383  3.1654 -1.9442 -1.6714
  152DOPC  C31518264   4.589   1.813  15.188  0.1498 -0.2186  0.2556
  152DOPC  H15X18265   4.504   1.786  15.122  0.4127 -1.7785  0.5197
  152DOPC  H15Y18266   4.673   1.744  15.162 -0.1505  0.2948 -2.3498
  152DOPC  C31618267   4.653   1.949  15.147  0.0056 -0.6564 -0.5227
  152DOPC  H16X18268   4.613   2.033  15.208 -1.0908 -0.7975 -1.0187
  152DOPC  H16Y18269   4.761   1.956  15.172 -0.3999  1.0096  0.9550
  152DOPC  C31718270   4.639   1.972  14.997  0.2229  0.3257  0.7980
  152DOPC  H17X18271   4.538   1.952  14.955  0.2203  2.2909 -0.2388
  152DOPC  H17Y18272   4.661   2.080  14.982 -0.3682  0.1136 -2.3083
  152DOPC  C31818273   4.742   1.884  14.916 -0.2917  0.0466  0.1143
  152DOPC  H18X18274   4.740   1.775  14.937 -1.9389 -0.3612 -1.8907
  152DOPC  H18Y18275   4.734   1.891  14.806  2.6708  0.6352 -0.1698
  152DOPC  H18Z18276   4.843   1.926  14.934 -0.0734 -0.3466 -0.1701
  153DOPC     N18277   6.146   5.939  17.215 -0.3054 -0.4256  0.7328
  153DOPC   C1218278   6.085   5.894  17.081  0.2806 -0.1213  0.5334
  153DOPC  H12A18279   5.979   5.911  17.090 -0.3739 -0.5721 -3.9021
  153DOPC  H12B18280   6.112   5.790  17.073  0.3569  0.0177 -1.4576
  153DOPC   C1318281   6.278   5.882  17.237  0.2228  0.0154 -0.1744
  153DOPC  H13A18282   6.318   5.905  17.335  0.7991 -0.0589 -0.3870
  153DOPC  H13B18283   6.273   5.775  17.222  1.3051 -0.0808  0.0335
  153DOPC  H13C18284   6.346   5.928  17.166 -1.9535  1.2576 -1.5521
  153DOPC   C1418285   6.052   5.888  17.319 -0.7294 -0.2290 -0.0396
  153DOPC  H14A18286   6.035   5.781  17.315 -1.1504 -0.3732  3.1212
  153DOPC  H14B18287   6.085   5.915  17.419 -0.6987  1.7946 -0.5534
  153DOPC  H14C18288   5.953   5.930  17.318 -0.6880 -0.1109  0.5183
  153DOPC   C1518289   6.153   6.086  17.235 -0.1596 -0.3287 -0.0861
  153DOPC  H15A18290   6.229   6.127  17.170  0.9639 -2.8026 -0.4347
  153DOPC  H15B18291   6.175   6.108  17.338 -0.8967 -1.0943  0.2471
  153DOPC  H15C18292   6.059   6.136  17.213  0.1364  1.1643  1.8327
  153DOPC   C1118293   6.136   5.959  16.950 -1.0149  0.5801 -0.2921
  153DOPC  H11A18294   6.094   5.918  16.855 -3.6051 -0.7476  1.2935
  153DOPC  H11B18295   6.110   6.067  16.961  1.4902  0.9802  3.4521
  153DOPC     P18296   6.352   5.812  16.882  0.2635 -0.1462  0.0916
  153DOPC   O1318297   6.279   5.707  16.961 -0.4507  0.3410 -0.3062
  153DOPC   O1418298   6.500   5.821  16.900  0.7920  0.0707 -0.7740
  153DOPC   O1218299   6.281   5.952  16.937 -0.6860  0.2670 -0.5162
  153DOPC   O1118300   6.310   5.800  16.724  0.3608 -0.6443  0.0843
  153DOPC    C118301   6.324   5.925  16.650  0.4289 -0.2242 -0.2924
  153DOPC    HA18302   6.361   6.013  16.707 -1.4890  1.3925 -1.4018
  153DOPC    HB18303   6.221   5.948  16.616  0.2239 -1.0894 -0.2931
  153DOPC    C218304   6.417   5.915  16.529  0.5872 -0.5994  0.2070
  153DOPC    HS18305   6.404   6.001  16.460 -0.1460 -0.4659  0.5030
  153DOPC   O2118306   6.396   5.795  16.454 -0.2121 -0.6905 -0.2902
  153DOPC   C2118307   6.302   5.807  16.365 -0.4882  0.4168  0.5105
  153DOPC   O2218308   6.226   5.901  16.349 -0.8050  0.1722 -0.1746
  153DOPC   C2218309   6.298   5.678  16.292  0.0636 -0.6083  0.4684
  153DOPC   H2R18310   6.249   5.605  16.361  1.4274 -1.3436  0.6935
  153DOPC   H2S18311   6.400   5.640  16.269 -0.3183 -1.1149 -0.4817
  153DOPC    C318312   6.568   5.930  16.577 -0.6824 -0.0133  0.0953
  153DOPC    HX18313   6.596   5.839  16.634 -0.0950  0.5248  0.6889
  153DOPC    HY18314   6.576   6.014  16.649  0.2230 -1.3032  1.5744
  153DOPC   O3118315   6.661   5.948  16.462  0.1641  0.1379 -0.0980
  153DOPC   C3118316   6.723   5.846  16.409 -0.4941  0.2033  0.3053
  153DOPC   O3218317   6.709   5.730  16.444  0.7769  0.1046  0.1358
  153DOPC   C3218318   6.795   5.902  16.284 -0.7589  0.0222 -0.4300
  153DOPC   H2X18319   6.727   5.961  16.218  0.5051  1.1514 -0.7762
  153DOPC   H2Y18320   6.881   5.966  16.314 -1.8201  0.5191  1.6948
  153DOPC   C2318321   6.214   5.679  16.159 -0.2739 -0.4289 -0.4808
  153DOPC   H3R18322   6.107   5.698  16.178 -0.2886 -0.7309 -0.2625
  153DOPC   H3S18323   6.218   5.576  16.117 -0.2199 -0.1410 -1.1975
  153DOPC   C2418324   6.275   5.770  16.051  0.2277 -0.4279 -0.4275
  153DOPC   H4R18325   6.249   5.877  16.066 -0.1334 -0.2926 -1.8311
  153DOPC   H4S18326   6.228   5.749  15.952 -0.0610 -2.8786  0.1807
  153DOPC   C2518327   6.424   5.758  16.011  0.0291  0.4563  0.5504
  153DOPC   H5R18328   6.445   5.650  15.994 -2.3847  0.0518 -0.2730
  153DOPC   H5S18329   6.483   5.785  16.101 -0.0262  1.9043  0.1628
  153DOPC   C2618330   6.460   5.850  15.890  0.0462  0.6451  0.0221
  153DOPC   H6R18331   6.568   5.876  15.890  0.7045 -1.8106 -1.6358
  153DOPC   H6S18332   6.398   5.939  15.916 -1.6773 -0.3899 -0.3882
  153DOPC   C2718333   6.433   5.788  15.754 -0.3595  0.2629 -0.2264
  153DOPC   H7R18334   6.329   5.749  15.752 -0.5904  0.8981 -1.0194
  153DOPC   H7S18335   6.504   5.706  15.731 -3.3045 -2.2695 -0.9262
  153DOPC   C2818336   6.433   5.894  15.645  0.0273 -0.0198  0.1338
  153DOPC   H8R18337   6.537   5.933  15.649  0.3698 -0.8001 -0.6885
  153DOPC   H8S18338   6.358   5.967  15.680 -0.8894 -1.4579  1.3193
  153DOPC   C2918339   6.389   5.829  15.512 -0.5361  0.1080  0.0238
  153DOPC   H9R18340   6.443   5.739  15.480 -0.7882 -0.3071  0.7393
  153DOPC  C21018341   6.290   5.876  15.433  0.1165 -0.4665  0.2362
  153DOPC  H10R18342   6.258   5.814  15.348 -2.8568 -1.1180  1.6894
  153DOPC  C21118343   6.203   5.999  15.450 -0.1003  0.4164  1.2180
  153DOPC  H11R18344   6.250   6.081  15.392 -0.4782  0.3264  0.7796
  153DOPC  H11S18345   6.189   6.037  15.553  0.7687 -0.9069  1.8519
  153DOPC  C21218346   6.058   5.989  15.393 -0.4400 -0.0283  0.3499
  153DOPC  H12R18347   6.070   5.953  15.289 -0.7583 -1.7327  0.8708
  153DOPC  H12S18348   6.020   6.093  15.394  1.7311  0.8504 -0.9027
  153DOPC  C21318349   5.970   5.894  15.471 -0.4886  0.8516 -0.0602
  153DOPC  H13R18350   5.976   5.925  15.578 -2.6927  1.0358  0.0641
  153DOPC  H13S18351   6.012   5.791  15.474 -1.2951  0.4492 -1.6576
  153DOPC  C21418352   5.829   5.890  15.411  0.1937  0.8439 -0.1713
  153DOPC  H14R18353   5.853   5.882  15.303 -2.0659 -1.4942 -0.5878
  153DOPC  H14S18354   5.761   5.974  15.435 -0.0742  0.0323  2.1609
  153DOPC  C21518355   5.752   5.762  15.447 -0.1789  0.3179  0.6250
  153DOPC  H15R18356   5.811   5.675  15.411 -1.3707 -0.3825  0.3149
  153DOPC  H15S18357   5.660   5.770  15.386  1.0892  1.3928 -1.2819
  153DOPC  C21618358   5.720   5.763  15.594 -0.8465 -0.1001  0.3416
  153DOPC  H16R18359   5.648   5.845  15.616 -0.0633  0.9267 -0.7772
  153DOPC  H16S18360   5.819   5.770  15.644 -0.6086  2.6880 -0.3370
  153DOPC  C21718361   5.667   5.627  15.638  0.4171  0.1430 -0.3340
  153DOPC  H17R18362   5.732   5.541  15.613 -1.3490 -1.8921  1.5042
  153DOPC  H17S18363   5.568   5.609  15.591  0.2509 -1.2251  0.4695
  153DOPC  C21818364   5.658   5.614  15.789 -0.5034  0.1852 -0.4361
  153DOPC  H18R18365   5.615   5.697  15.849  0.7419 -0.3019  1.2308
  153DOPC  H18S18366   5.766   5.613  15.815 -0.2541 -0.3910 -1.4419
  153DOPC  H18T18367   5.617   5.521  15.833 -0.5678  0.7681  0.7873
  153DOPC   C3318368   6.848   5.796  16.193  0.2644  0.0046  0.2068
  153DOPC   H3X18369   6.774   5.744  16.128  0.5130  0.0005 -0.0801
  153DOPC   H3Y18370   6.878   5.706  16.251 -0.7679 -0.1424  0.5212
  153DOPC   C3418371   6.945   5.839  16.086  0.8089  0.5091 -0.3716
  153DOPC   H4X18372   6.968   5.748  16.026  0.8338  0.9003 -0.9667
  153DOPC   H4Y18373   7.036   5.887  16.129  1.3315 -0.4001 -0.4344
  153DOPC   C3518374   6.893   5.945  15.984 -0.6187  0.0307 -0.3526
  153DOPC   H5X18375   6.893   6.042  16.040  2.6428 -0.8455  1.4157
  153DOPC   H5Y18376   6.786   5.934  15.954 -0.8276 -0.6211  0.5689
  153DOPC   C3618377   6.984   5.939  15.859 -0.0140  0.5993 -0.4347
  153DOPC   H6X18378   7.091   5.959  15.882 -0.0318 -0.3609  0.5826
  153DOPC   H6Y18379   6.985   5.832  15.831  0.9460  0.8951 -1.5960
  153DOPC   C3718380   6.943   6.016  15.731  0.3965 -0.8132  0.3588
  153DOPC   H7X18381   6.969   6.122  15.753 -1.3546 -0.5394  1.3228
  153DOPC   H7Y18382   7.009   5.995  15.644  0.1112 -1.0590  0.1999
  153DOPC   C3818383   6.802   6.005  15.679  0.8065  0.4487 -0.2524
  153DOPC   H8X18384   6.731   6.058  15.747 -1.0939 -2.0106 -0.1525
  153DOPC   H8Y18385   6.769   5.901  15.698 -2.2217  1.2575 -0.5307
  153DOPC   C3918386   6.761   6.041  15.540  0.7455 -0.0110 -0.2261
  153DOPC   H9X18387   6.662   5.999  15.513  0.6121 -1.6740  2.4699
  153DOPC  C31018388   6.813   6.128  15.444 -0.2460  1.4236 -0.3695
  153DOPC  H10X18389   6.751   6.148  15.356 -1.7756 -0.1129  0.2958
  153DOPC  C31118390   6.936   6.205  15.456 -0.1126 -0.1716  0.1175
  153DOPC  H11X18391   7.017   6.131  15.472 -0.8868 -0.7970  1.2524
  153DOPC  H11Y18392   6.937   6.267  15.548  0.8950  1.8193 -1.1485
  153DOPC  C31218393   6.977   6.289  15.336 -0.1326 -0.4511  0.0749
  153DOPC  H12X18394   6.883   6.330  15.295  0.6956 -0.3677 -1.8588
  153DOPC  H12Y18395   7.023   6.218  15.264  2.2637 -0.0647  1.1239
  153DOPC  C31318396   7.083   6.394  15.367 -0.0794  0.2995  0.7023
  153DOPC  H13X18397   7.046   6.457  15.450  0.4651  1.1836  0.2895
  153DOPC  H13Y18398   7.182   6.357  15.402  0.7565  1.5236 -0.2681
  153DOPC  C31418399   7.098   6.502  15.252  0.1177  0.2820 -0.1253
  153DOPC  H14X18400   7.162   6.451  15.177 -0.9747 -2.4341  0.6753
  153DOPC  H14Y18401   6.998   6.530  15.213 -0.9012 -3.2014 -0.3886
  153DOPC  C31518402   7.172   6.625  15.302  0.0474 -0.4892 -0.3556
  153DOPC  H15X18403   7.266   6.593  15.351 -0.2178  0.3181  0.7349
  153DOPC  H15Y18404   7.108   6.682  15.373 -0.8381 -2.3254  0.3794
  153DOPC  C31618405   7.197   6.722  15.187 -0.2304  0.2705  0.4144
  153DOPC  H16X18406   7.257   6.687  15.100 -1.8510 -1.1483 -0.1839
  153DOPC  H16Y18407   7.099   6.751  15.144  0.2668 -0.8878 -1.6580
  153DOPC  C31718408   7.263   6.840  15.245  0.5971  0.1071  0.2027
  153DOPC  H17X18409   7.201   6.859  15.335  0.1200 -0.1437 -0.0641
  153DOPC  H17Y18410   7.365   6.809  15.276  0.4643 -2.7399 -1.7182
  153DOPC  C31818411   7.272   6.969  15.161 -0.1940  0.4322 -0.7692
  153DOPC  H18X18412   7.168   6.999  15.135  0.0295 -0.1007 -2.4306
  153DOPC  H18Y18413   7.322   7.054  15.212 -2.6179  0.2989  2.0937
  153DOPC  H18Z18414   7.322   6.961  15.062 -0.5620  0.4411 -0.9553
  154DOPC     N18415   7.570   3.810  17.002  0.1721 -0.2028  0.1357
  154DOPC   C1218416   7.661   3.826  16.880  1.0248 -0.5103  0.3722
  154DOPC  H12A18417   7.762   3.850  16.908  1.3305 -1.7813  0.3927
  154DOPC  H12B18418   7.634   3.914  16.823  0.1550 -1.6372 -1.0176
  154DOPC   C1318419   7.565   3.937  17.072  0.0423 -0.4018 -0.4322
  154DOPC  H13A18420   7.651   3.950  17.136 -0.2092  1.8875 -0.4878
  154DOPC  H13B18421   7.564   4.017  17.000 -0.5672 -0.5311 -0.5699
  154DOPC  H13C18422   7.475   3.945  17.132 -0.9203  2.6499 -2.0402
  154DOPC   C1418423   7.605   3.703  17.089 -0.6542 -0.6810  0.4108
  154DOPC  H14A18424   7.699   3.711  17.142 -0.1482 -1.0703 -0.4081
  154DOPC  H14B18425   7.517   3.678  17.147 -2.2916  3.2367 -0.0665
  154DOPC  H14C18426   7.621   3.620  17.022  2.1877 -1.4510  1.8822
  154DOPC   C1518427   7.436   3.787  16.950  0.0343 -0.1948  0.3405
  154DOPC  H15A18428   7.367   3.769  17.031  1.2478  0.4337  1.5696
  154DOPC  H15B18429   7.451   3.696  16.893  0.1340  1.4580 -2.4799
  154DOPC  H15C18430   7.393   3.859  16.882  0.7072  0.0536  0.1733
  154DOPC   C1118431   7.661   3.714  16.779  0.2679 -0.1488  0.1181
  154DOPC  H11A18432   7.570   3.705  16.717  0.3901 -1.0272  0.0467
  154DOPC  H11B18433   7.743   3.747  16.710  0.4752 -0.0087  0.4301
  154DOPC     P18434   7.705   3.451  16.774  0.1025 -0.0284 -0.2854
  154DOPC   O1318435   7.574   3.391  16.807  0.3748  0.1895 -0.1601
  154DOPC   O1418436   7.828   3.378  16.826  0.2172 -0.5346  0.0558
  154DOPC   O1218437   7.700   3.592  16.845  0.3982 -0.1751 -0.2130
  154DOPC   O1118438   7.722   3.473  16.614  0.6724 -0.0447  0.0314
  154DOPC    C118439   7.836   3.501  16.546  0.0482 -0.6122 -0.7174
  154DOPC    HA18440   7.911   3.424  16.574 -1.9204 -2.5157 -0.3941
  154DOPC    HB18441   7.874   3.603  16.567 -0.9352 -0.7846  2.3832
  154DOPC    C218442   7.815   3.510  16.390  0.7568 -0.2374 -0.9506
  154DOPC    HS18443   7.908   3.543  16.339 -0.2408 -1.5646 -3.8240
  154DOPC   O2118444   7.712   3.600  16.360  0.4300 -0.3793  0.2532
  154DOPC   C2118445   7.724   3.734  16.372 -0.0784  0.1184  0.1029
  154DOPC   O2218446   7.828   3.793  16.405  0.3796 -0.9070  0.3137
  154DOPC   C2218447   7.592   3.799  16.341  0.7909 -0.0563  0.3150
  154DOPC   H2R18448   7.528   3.779  16.429  0.3473  1.3858  0.3426
  154DOPC   H2S18449   7.551   3.757  16.247  0.0843 -1.9602  1.4231
  154DOPC    C318450   7.782   3.369  16.333 -0.3958 -0.4602  0.0655
  154DOPC    HX18451   7.694   3.330  16.387 -0.8172  0.2714 -0.0701
  154DOPC    HY18452   7.866   3.305  16.367  1.4044  1.6790 -0.0763
  154DOPC   O3118453   7.777   3.370  16.190  0.3729  0.5164 -0.0739
  154DOPC   C3118454   7.664   3.406  16.136 -0.2417 -0.9872  0.1409
  154DOPC   O3218455   7.555   3.417  16.190  0.4214  0.7166  0.1141
  154DOPC   C3218456   7.688   3.442  15.989  0.6277  0.6212  0.3721
  154DOPC   H2X18457   7.768   3.519  15.981  0.8282  0.7436  2.7086
  154DOPC   H2Y18458   7.746   3.354  15.952  0.8533  0.9445 -0.0533
  154DOPC   C2318459   7.601   3.946  16.310  0.1120 -1.0993 -0.2397
  154DOPC   H3R18460   7.633   3.987  16.408  0.5151 -1.2116 -0.3263
  154DOPC   H3S18461   7.500   3.985  16.282  0.2182 -0.7719 -0.1785
  154DOPC   C2418462   7.688   3.979  16.191  0.4806  0.0265 -0.8211
  154DOPC   H4R18463   7.784   3.924  16.204 -0.3420 -1.4045 -0.5250
  154DOPC   H4S18464   7.715   4.086  16.200  0.1599  0.0091  0.4990
  154DOPC   C2518465   7.635   3.945  16.047 -0.1538 -0.4502 -0.1332
  154DOPC   H5R18466   7.533   3.985  16.029 -0.5488 -1.2549  0.2391
  154DOPC   H5S18467   7.627   3.834  16.042 -2.0687 -0.6345  3.3534
  154DOPC   C2618468   7.724   4.008  15.943  0.1107 -0.3143  0.7828
  154DOPC   H6R18469   7.833   3.996  15.962  0.0389 -1.7224  0.4034
  154DOPC   H6S18470   7.704   4.116  15.927  0.1938 -0.8189 -3.8288
  154DOPC   C2718471   7.692   3.951  15.800  0.2865  0.3407  0.4049
  154DOPC   H7R18472   7.581   3.945  15.811  0.4173 -2.9738  0.7844
  154DOPC   H7S18473   7.721   3.845  15.787  2.0242  0.6926  1.1446
  154DOPC   C2818474   7.735   4.044  15.684  0.0662  0.1135  0.1289
  154DOPC   H8R18475   7.715   4.151  15.705 -2.1672 -0.4320  1.1081
  154DOPC   H8S18476   7.677   4.028  15.590 -0.2344 -0.3825  0.3927
  154DOPC   C2918477   7.887   4.036  15.667 -0.2550 -0.1505 -0.1528
  154DOPC   H9R18478   7.945   4.015  15.758  0.6357 -0.0758 -0.6939
  154DOPC  C21018479   7.960   4.025  15.555 -0.0731  0.2627 -1.2861
  154DOPC  H10R18480   8.070   4.019  15.567 -0.1742  1.6382  0.8917
  154DOPC  C21118481   7.906   4.009  15.422 -0.0495 -0.4975 -0.1211
  154DOPC  H11R18482   7.991   4.056  15.367  0.3967 -0.7151  0.3795
  154DOPC  H11S18483   7.809   4.062  15.407 -1.5874 -2.8133  1.0201
  154DOPC  C21218484   7.883   3.858  15.388 -0.9574 -0.3623 -0.8813
  154DOPC  H12R18485   7.967   3.791  15.417  0.4385  1.8052  0.3306
  154DOPC  H12S18486   7.881   3.860  15.277  0.6336 -1.4898 -0.9670
  154DOPC  C21318487   7.742   3.811  15.434  1.1586 -0.6963 -0.0602
  154DOPC  H13R18488   7.668   3.887  15.403 -0.8640 -1.8419  1.7082
  154DOPC  H13S18489   7.740   3.811  15.545  2.1063  1.1746 -0.0055
  154DOPC  C21418490   7.712   3.672  15.375  0.8580  0.4761  0.0334
  154DOPC  H14R18491   7.698   3.668  15.265 -3.0185 -1.3976  0.4433
  154DOPC  H14S18492   7.611   3.637  15.404  0.3264  0.8972 -1.2388
  154DOPC  C21518493   7.815   3.564  15.401 -0.4601 -0.0215  0.5277
  154DOPC  H15R18494   7.822   3.534  15.508 -0.6321 -0.9955  0.2726
  154DOPC  H15S18495   7.909   3.607  15.360  0.4565 -1.8906  0.5538
  154DOPC  C21618496   7.780   3.438  15.319 -0.3694 -0.0622  0.9740
  154DOPC  H16R18497   7.865   3.413  15.252 -2.1407 -2.9568 -0.3993
  154DOPC  H16S18498   7.685   3.455  15.264  0.2880  1.7197  0.2948
  154DOPC  C21718499   7.774   3.299  15.397  1.0221 -0.2424  0.0207
  154DOPC  H17R18500   7.876   3.296  15.441  1.7252 -0.7291 -1.5879
  154DOPC  H17S18501   7.762   3.225  15.316 -0.0442 -1.6831  1.4181
  154DOPC  C21818502   7.659   3.290  15.500 -0.1391 -1.0176  0.2245
  154DOPC  H18R18503   7.642   3.190  15.545 -0.4351 -0.4347  1.4565
  154DOPC  H18S18504   7.567   3.332  15.454  0.7968  3.0925  1.6720
  154DOPC  H18T18505   7.664   3.368  15.579  0.1786 -0.0653 -0.7008
  154DOPC   C3318506   7.562   3.464  15.901 -1.1631  0.3261  0.7551
  154DOPC   H3X18507   7.473   3.400  15.920 -0.5857 -0.7819 -0.1427
  154DOPC   H3Y18508   7.598   3.449  15.797  2.9936  0.6523  1.9588
  154DOPC   C3418509   7.513   3.608  15.894  0.3978 -0.2257  1.4547
  154DOPC   H4X18510   7.583   3.687  15.857  0.6756 -1.7300 -1.5719
  154DOPC   H4Y18511   7.493   3.639  15.998  1.5977  0.3872  1.5267
  154DOPC   C3518512   7.379   3.620  15.810 -0.0605  0.2165  0.2286
  154DOPC   H5X18513   7.327   3.718  15.819 -3.9783 -1.5295 -1.1635
  154DOPC   H5Y18514   7.308   3.553  15.864 -3.0594  0.8754 -2.5644
  154DOPC   C3618515   7.402   3.592  15.662 -0.1975 -0.2810 -0.1322
  154DOPC   H6X18516   7.480   3.659  15.622 -0.8296  1.0667  0.8188
  154DOPC   H6Y18517   7.449   3.492  15.655  3.3017  1.2808 -0.7025
  154DOPC   C3718518   7.283   3.600  15.562  0.3068 -0.3155  0.7007
  154DOPC   H7X18519   7.324   3.561  15.466 -0.3615  1.3403 -0.2952
  154DOPC   H7Y18520   7.197   3.543  15.602 -0.6626 -0.1629 -1.0668
  154DOPC   C3818521   7.228   3.742  15.542  0.3149 -0.2408 -0.6730
  154DOPC   H8X18522   7.216   3.801  15.635 -0.6352  0.7853 -1.4303
  154DOPC   H8Y18523   7.127   3.734  15.496 -0.5297  1.1637  0.8340
  154DOPC   C3918524   7.317   3.820  15.449 -0.0289  0.1580 -0.0885
  154DOPC   H9X18525   7.388   3.891  15.492  0.8077 -0.4577 -0.4207
  154DOPC  C31018526   7.301   3.816  15.314 -0.0616 -0.2655  0.3263
  154DOPC  H10X18527   7.376   3.856  15.245 -0.0198  1.3221  1.2479
  154DOPC  C31118528   7.200   3.732  15.244 -0.1900 -0.4186  0.4498
  154DOPC  H11X18529   7.100   3.778  15.230 -0.2902 -0.4987  0.8796
  154DOPC  H11Y18530   7.185   3.642  15.307 -1.1002  0.1651  1.0992
  154DOPC  C31218531   7.254   3.678  15.108  0.3304  0.5599  0.2558
  154DOPC  H12X18532   7.259   3.757  15.030 -0.7586 -1.1551 -1.6356
  154DOPC  H12Y18533   7.188   3.597  15.073 -1.6830  2.3511 -0.2757
  154DOPC  C31318534   7.400   3.615  15.112  0.4360 -0.4905  0.4370
  154DOPC  H13X18535   7.477   3.695  15.123  1.4635 -1.4512  0.3703
  154DOPC  H13Y18536   7.414   3.550  15.200  0.5846 -0.3637  0.5067
  154DOPC  C31418537   7.428   3.525  14.983  1.0854  0.3592 -0.4605
  154DOPC  H14X18538   7.392   3.586  14.898 -2.6137 -0.9075 -0.0191
  154DOPC  H14Y18539   7.537   3.506  14.980  1.6155  2.6442  1.5621
  154DOPC  C31518540   7.359   3.382  14.982  0.4806  0.4770  0.1188
  154DOPC  H15X18541   7.393   3.326  14.892 -1.4026  0.2317 -0.4725
  154DOPC  H15Y18542   7.249   3.392  14.978  0.6620  2.5637 -2.5073
  154DOPC  C31618543   7.381   3.286  15.098 -0.2618  0.0789 -0.3147
  154DOPC  H16X18544   7.396   3.178  15.073 -1.4378 -0.1698 -0.0102
  154DOPC  H16Y18545   7.477   3.321  15.141 -0.6712  0.8689 -0.0208
  154DOPC  C31718546   7.281   3.296  15.218 -0.3733  0.0942  0.1647
  154DOPC  H17X18547   7.276   3.402  15.249 -1.1059  0.3455 -0.7799
  154DOPC  H17Y18548   7.180   3.264  15.185  0.2017  0.5070 -2.1824
  154DOPC  C31818549   7.329   3.193  15.328 -0.5476 -0.6159  0.0180
  154DOPC  H18X18550   7.272   3.209  15.422 -0.8360 -0.8698 -0.1112
  154DOPC  H18Y18551   7.310   3.092  15.287  0.6889 -0.7243 -0.3147
  154DOPC  H18Z18552   7.434   3.214  15.356 -0.3400  0.3986 -1.4396
  155DOPC     N18553   4.181   1.328  17.023 -0.5511 -0.2292  0.3826
  155DOPC   C1218554   4.231   1.440  16.934  0.3038 -0.5337  0.4886
  155DOPC  H12A18555   4.172   1.449  16.844  0.8847  1.6606  0.2721
  155DOPC  H12B18556   4.326   1.405  16.896 -0.5870 -1.6727 -0.7692
  155DOPC   C1318557   4.178   1.192  16.951 -0.0609 -0.8029  0.0311
  155DOPC  H13A18558   4.279   1.168  16.924  0.8584  2.7942 -0.1697
  155DOPC  H13B18559   4.150   1.104  17.007  0.3891 -2.3677 -2.0782
  155DOPC  H13C18560   4.118   1.187  16.861  0.1232 -1.1093 -0.0734
  155DOPC   C1418561   4.048   1.356  17.076  0.0210 -0.0550 -0.1775
  155DOPC  H14A18562   4.047   1.456  17.115  0.1264  0.2173 -0.8524
  155DOPC  H14B18563   3.972   1.354  17.000 -1.0022  0.4368  0.8161
  155DOPC  H14C18564   4.035   1.301  17.168 -1.3637  0.5010 -0.0214
  155DOPC   C1518565   4.275   1.310  17.141 -0.1244 -0.5427  0.1615
  155DOPC  H15A18566   4.275   1.403  17.195  3.3001 -1.0887  1.3893
  155DOPC  H15B18567   4.377   1.285  17.115  0.2997  0.6992  0.5577
  155DOPC  H15C18568   4.224   1.232  17.197 -0.9823 -1.0788 -1.2963
  155DOPC   C1118569   4.233   1.577  17.000 -0.7200 -0.2472 -0.6665
  155DOPC  H11A18570   4.262   1.577  17.108 -1.3112 -0.5549 -0.4988
  155DOPC  H11B18571   4.306   1.628  16.934 -1.0125  1.0867 -0.0106
  155DOPC     P18572   4.036   1.712  16.875 -0.2612 -0.3043 -0.0400
  155DOPC   O1318573   4.085   1.854  16.871  0.8994 -0.7227  0.1645
  155DOPC   O1418574   3.887   1.710  16.893 -0.1081 -0.0252  0.4311
  155DOPC   O1218575   4.110   1.642  17.000  0.2231  0.2577  0.1569
  155DOPC   O1118576   4.085   1.632  16.744 -0.1501 -0.7166 -0.6861
  155DOPC    C118577   3.983   1.540  16.686  0.0973 -0.2709 -0.5597
  155DOPC    HA18578   3.882   1.544  16.734  0.3452 -1.3562  0.1076
  155DOPC    HB18579   4.007   1.433  16.704 -2.0508 -0.5421  1.1263
  155DOPC    C218580   3.955   1.560  16.533 -0.2603 -0.5653 -0.6639
  155DOPC    HS18581   3.861   1.509  16.506 -1.5263  1.5381 -0.4558
  155DOPC   O2118582   4.068   1.520  16.452 -0.2692 -0.2257 -0.1495
  155DOPC   C2118583   4.031   1.479  16.334  0.1228  0.0659  0.3683
  155DOPC   O2218584   3.922   1.435  16.301 -0.3015 -0.2116  0.1729
  155DOPC   C2218585   4.157   1.469  16.251 -0.5183  0.6552  0.1371
  155DOPC   H2R18586   4.134   1.406  16.162  1.8257 -1.1242  0.7017
  155DOPC   H2S18587   4.233   1.405  16.301 -3.2176 -1.7386  1.4508
  155DOPC    C318588   3.927   1.712  16.505  0.4771 -0.1545  0.0847
  155DOPC    HX18589   4.025   1.754  16.534  0.5979  0.7610 -1.5426
  155DOPC    HY18590   3.853   1.751  16.577  1.3164  1.8691 -0.0946
  155DOPC   O3118591   3.901   1.741  16.362  1.0118  0.5792 -0.3607
  155DOPC   C3118592   3.784   1.809  16.333 -0.4989  0.0707  0.6357
  155DOPC   O3218593   3.712   1.861  16.417  0.1951 -0.0210  0.1231
  155DOPC   C3218594   3.757   1.789  16.182  0.5082  0.4781 -0.3121
  155DOPC   H2X18595   3.825   1.858  16.128 -1.0475  1.3671 -1.2141
  155DOPC   H2Y18596   3.778   1.682  16.160 -0.6798  0.0921  0.3401
  155DOPC   C2318597   4.206   1.603  16.205  0.1270 -0.0586  0.5612
  155DOPC   H3R18598   4.309   1.602  16.164 -0.2045 -1.1411 -0.2925
  155DOPC   H3S18599   4.218   1.671  16.292  0.7055 -1.5149  1.6582
  155DOPC   C2418600   4.116   1.666  16.096 -0.0671 -0.3773  0.3990
  155DOPC   H4R18601   4.128   1.776  16.098 -1.3454 -0.2166  0.4565
  155DOPC   H4S18602   4.006   1.658  16.116 -0.2280  1.0016  0.1355
  155DOPC   C2518603   4.153   1.626  15.956 -0.6734 -0.7943  0.1635
  155DOPC   H5R18604   4.148   1.515  15.952 -0.5475 -0.8158  0.5989
  155DOPC   H5S18605   4.252   1.671  15.937 -1.0818  0.4605  0.8772
  155DOPC   C2618606   4.058   1.682  15.851  0.6641 -0.0885 -0.2647
  155DOPC   H6R18607   4.003   1.774  15.881  0.0552 -0.1739 -1.0909
  155DOPC   H6S18608   3.978   1.605  15.842  0.8734 -0.4003  0.4666
  155DOPC   C2718609   4.108   1.698  15.715 -0.2352  0.2509  0.1257
  155DOPC   H7R18610   4.151   1.606  15.671  0.0927  0.9418 -1.0420
  155DOPC   H7S18611   4.193   1.770  15.718 -1.0613  1.2304  1.7128
  155DOPC   C2818612   4.001   1.748  15.617  0.7810  0.0460  0.1859
  155DOPC   H8R18613   3.960   1.838  15.667  0.1982  0.1528 -0.4640
  155DOPC   H8S18614   3.922   1.670  15.610  2.0481 -1.4070  1.2767
  155DOPC   C2918615   4.051   1.787  15.481 -0.2808  0.4587 -0.1996
  155DOPC   H9R18616   4.089   1.890  15.469  2.2892 -0.5738 -1.8744
  155DOPC  C21018617   4.063   1.697  15.372  0.5729 -0.0231  0.0191
  155DOPC  H10R18618   4.122   1.730  15.285  0.1606  1.8622  0.4300
  155DOPC  C21118619   4.032   1.548  15.383 -0.1643  0.2195  0.1623
  155DOPC  H11R18620   3.922   1.537  15.371 -0.4784  2.1462  0.9396
  155DOPC  H11S18621   4.073   1.525  15.483  1.1917 -0.5059 -0.5250
  155DOPC  C21218622   4.099   1.459  15.272  0.1179 -0.2879 -0.2462
  155DOPC  H12R18623   4.068   1.354  15.289  0.5180 -0.3307  0.2574
  155DOPC  H12S18624   4.208   1.457  15.296  0.4378 -0.0485 -1.6368
  155DOPC  C21318625   4.073   1.502  15.123  0.1789 -0.6737  0.1823
  155DOPC  H13R18626   4.128   1.595  15.097 -2.2306 -0.1253 -3.7684
  155DOPC  H13S18627   3.964   1.523  15.127  0.1149 -0.7577 -0.7216
  155DOPC  C21418628   4.102   1.389  15.036  0.2104 -0.2684  0.2328
  155DOPC  H14R18629   4.207   1.357  15.054  1.2891  1.2896 -2.6260
  155DOPC  H14S18630   4.105   1.431  14.933 -1.7495 -1.3636 -0.3201
  155DOPC  C21518631   4.000   1.271  15.040 -0.1871 -0.2039 -0.0198
  155DOPC  H15R18632   3.899   1.317  15.039  0.3071  0.9248 -1.0815
  155DOPC  H15S18633   4.018   1.218  15.136 -0.0110  1.8687  1.1716
  155DOPC  C21618634   4.024   1.172  14.922  0.2006 -0.1433 -0.3873
  155DOPC  H16R18635   4.116   1.116  14.950 -0.5908  0.4269  4.1049
  155DOPC  H16S18636   4.040   1.224  14.825  0.6214  2.3163  0.8950
  155DOPC  C21718637   3.901   1.073  14.907  0.0033 -0.0877 -0.0695
  155DOPC  H17R18638   3.873   1.027  15.005 -1.4419 -1.6186 -1.1433
  155DOPC  H17S18639   3.931   0.987  14.844 -0.5734 -1.1424  1.0536
  155DOPC  C21818640   3.775   1.138  14.839 -0.4476 -0.2068  0.3941
  155DOPC  H18R18641   3.802   1.174  14.738 -2.9456  1.7768  0.3420
  155DOPC  H18S18642   3.746   1.222  14.906  0.9391  1.3168 -0.8234
  155DOPC  H18T18643   3.695   1.062  14.827  2.2357 -2.9066 -2.1982
  155DOPC   C3318644   3.608   1.813  16.145  0.2679 -0.5218  0.5630
  155DOPC   H3X18645   3.583   1.920  16.164  0.4015 -0.7300  2.0684
  155DOPC   H3Y18646   3.544   1.750  16.211 -0.0877 -2.0390 -1.1415
  155DOPC   C3418647   3.578   1.754  16.007  0.1289 -0.1939 -0.0904
  155DOPC   H4X18648   3.652   1.797  15.935  3.3351 -1.7887  2.0095
  155DOPC   H4Y18649   3.474   1.779  15.979  1.3952  0.5367 -5.1868
  155DOPC   C3518650   3.573   1.600  16.007  0.1858  0.3401  0.1921
  155DOPC   H5X18651   3.473   1.578  16.052 -0.5371  2.0259 -0.4983
  155DOPC   H5Y18652   3.638   1.537  16.072  0.7963 -1.1507 -1.7590
  155DOPC   C3618653   3.575   1.525  15.873 -0.0082 -0.4165 -0.5668
  155DOPC   H6X18654   3.674   1.538  15.822  1.1720  2.9322  2.2131
  155DOPC   H6Y18655   3.555   1.416  15.883  0.4429 -0.3791  1.0330
  155DOPC   C3718656   3.474   1.589  15.779 -0.3562  0.5488  0.5502
  155DOPC   H7X18657   3.372   1.603  15.822 -0.8673 -0.7602 -0.1763
  155DOPC   H7Y18658   3.513   1.690  15.752  1.8663 -0.3300  0.2539
  155DOPC   C3818659   3.458   1.516  15.646  0.1381 -0.1456 -0.0450
  155DOPC   H8X18660   3.564   1.504  15.617  1.0873  2.3932  1.9711
  155DOPC   H8Y18661   3.408   1.589  15.579  0.6136  0.8294  0.6382
  155DOPC   C3918662   3.386   1.385  15.648  0.0005 -0.1514  0.8541
  155DOPC   H9X18663   3.335   1.365  15.743 -0.8674 -1.8305  0.0712
  155DOPC  C31018664   3.383   1.299  15.544 -0.2626 -0.1797  1.0342
  155DOPC  H10X18665   3.328   1.205  15.559 -1.2647  0.1388 -0.4877
  155DOPC  C31118666   3.459   1.323  15.412 -0.5595 -0.0816 -0.0100
  155DOPC  H11X18667   3.506   1.423  15.405  0.1839 -0.2187  2.1914
  155DOPC  H11Y18668   3.397   1.296  15.323  0.8082 -1.2487 -0.6485
  155DOPC  C31218669   3.582   1.224  15.412 -0.2217 -0.8626 -0.2317
  155DOPC  H12X18670   3.652   1.270  15.485  0.5644  2.4641 -2.8373
  155DOPC  H12Y18671   3.628   1.220  15.311 -0.9671 -0.7730 -0.5803
  155DOPC  C31318672   3.550   1.081  15.454  0.1091  0.4401 -0.2713
  155DOPC  H13X18673   3.533   1.080  15.564 -0.5103 -0.0067 -0.3661
  155DOPC  H13Y18674   3.459   1.048  15.400  0.2471 -1.7923  0.7671
  155DOPC  C31418675   3.668   0.992  15.427  0.5308  0.5236  0.0923
  155DOPC  H14X18676   3.723   0.999  15.331 -1.9803  0.7212 -1.4238
  155DOPC  H14Y18677   3.744   1.015  15.505  1.6930 -0.7404 -0.6295
  155DOPC  C31518678   3.641   0.838  15.443 -0.2011 -0.1095  0.6106
  155DOPC  H15X18679   3.555   0.810  15.379  1.6295  0.1136 -2.0976
  155DOPC  H15Y18680   3.602   0.826  15.546 -0.4431 -2.6120  0.2849
  155DOPC  C31618681   3.758   0.738  15.425  0.7156  0.5367 -0.4240
  155DOPC  H16X18682   3.786   0.741  15.318 -2.7339  1.2971 -1.4266
  155DOPC  H16Y18683   3.833   0.778  15.498 -0.1393 -0.2473  0.9285
  155DOPC  C31718684   3.722   0.588  15.460  0.4897  0.3074 -0.0677
  155DOPC  H17X18685   3.708   0.588  15.570  1.6906  0.3734  0.0993
  155DOPC  H17Y18686   3.630   0.561  15.405  1.3083  1.4039 -2.0914
  155DOPC  C31818687   3.841   0.494  15.426 -0.7779  0.0802 -0.3374
  155DOPC  H18X18688   3.936   0.542  15.461  0.6938  0.4179 -4.2396
  155DOPC  H18Y18689   3.836   0.392  15.470  0.0213  0.0317 -0.3416
  155DOPC  H18Z18690   3.860   0.487  15.317 -2.0634  0.9467 -0.6377
  156DOPC     N18691   7.348   5.785  17.012 -0.3264 -0.1499  0.3948
  156DOPC   C1218692   7.409   5.789  16.869  0.4010 -0.1954 -0.7850
  156DOPC  H12A18693   7.516   5.790  16.874  0.4168  1.2808 -0.7912
  156DOPC  H12B18694   7.403   5.889  16.828 -0.6177  0.0378 -0.1003
  156DOPC   C1318695   7.403   5.887  17.108 -0.7336 -0.4569 -0.3066
  156DOPC  H13A18696   7.375   5.986  17.077 -1.5803 -0.1524  1.3304
  156DOPC  H13B18697   7.363   5.873  17.207 -2.1116 -0.1421 -0.7913
  156DOPC  H13C18698   7.509   5.871  17.112 -0.1035  3.1104 -0.1048
  156DOPC   C1418699   7.381   5.646  17.066 -0.0413  0.3922 -0.0954
  156DOPC  H14A18700   7.331   5.619  17.158 -1.0904  2.0478 -0.1442
  156DOPC  H14B18701   7.354   5.566  16.999  1.6853 -0.7858  0.5399
  156DOPC  H14C18702   7.488   5.646  17.083 -0.0861  0.3880  0.1947
  156DOPC   C1518703   7.201   5.803  17.003 -0.3458  0.4155 -0.2188
  156DOPC  H15A18704   7.177   5.906  16.978 -0.6452  0.1506 -1.0508
  156DOPC  H15B18705   7.148   5.780  17.094 -0.3535 -0.8037 -0.5200
  156DOPC  H15C18706   7.150   5.741  16.931 -1.3238  0.0142  0.8002
  156DOPC   C1118707   7.375   5.695  16.756 -0.0487  0.0822  0.7695
  156DOPC  H11A18708   7.264   5.687  16.751 -0.0290  0.1989  0.0077
  156DOPC  H11B18709   7.416   5.729  16.659  0.7476 -0.4587  0.9067
  156DOPC     P18710   7.585   5.540  16.774  0.2195 -0.4926 -0.0327
  156DOPC   O1318711   7.616   5.397  16.802  0.2910 -0.0491 -0.1581
  156DOPC   O1418712   7.649   5.639  16.860 -0.4696 -0.0261 -0.0694
  156DOPC   O1218713   7.423   5.557  16.783  0.2520  0.1803  0.2168
  156DOPC   O1118714   7.623   5.558  16.622 -0.0023 -0.1115 -0.0712
  156DOPC    C118715   7.540   5.526  16.510  0.0413  0.1027 -0.3428
  156DOPC    HA18716   7.531   5.617  16.447 -2.1756  0.8653  0.9619
  156DOPC    HB18717   7.436   5.513  16.547 -1.3731  2.5431 -3.0450
  156DOPC    C218718   7.584   5.398  16.431  0.8236 -0.0114 -0.7330
  156DOPC    HS18719   7.611   5.326  16.511  1.8528 -0.8476 -1.8103
  156DOPC   O2118720   7.703   5.443  16.364 -0.3258  0.3648  0.3123
  156DOPC   C2118721   7.811   5.373  16.377 -0.4100 -0.0672 -0.1282
  156DOPC   O2218722   7.828   5.276  16.443  0.3923  0.2570  0.0778
  156DOPC   C2218723   7.917   5.431  16.283 -0.5824  0.1252 -0.2286
  156DOPC   H2R18724   7.992   5.430  16.365 -1.1052  0.5867  0.2579
  156DOPC   H2S18725   7.894   5.536  16.255  1.8493  0.4247 -1.3352
  156DOPC    C318726   7.480   5.341  16.343  0.4071 -0.3216  0.3279
  156DOPC    HX18727   7.441   5.431  16.291  0.0859 -0.3040  0.5957
  156DOPC    HY18728   7.396   5.311  16.409  0.0410  1.3528  0.6576
  156DOPC   O3118729   7.511   5.244  16.245  0.2128  0.0333 -0.0490
  156DOPC   C3118730   7.522   5.117  16.276 -0.0780 -0.2466  0.1939
  156DOPC   O3218731   7.515   5.068  16.386  0.6577  0.2002 -0.3416
  156DOPC   C3218732   7.539   5.037  16.152  0.1507  0.2230 -0.1686
  156DOPC   H2X18733   7.530   5.109  16.067 -1.8938  0.5255  0.2310
  156DOPC   H2Y18734   7.636   4.992  16.125  0.8702  2.2738 -1.2014
  156DOPC   C2318735   7.949   5.328  16.173  0.9474 -0.2428  0.1918
  156DOPC   H3R18736   7.977   5.226  16.206 -2.4288 -1.3201  0.1364
  156DOPC   H3S18737   8.041   5.367  16.124  0.2722 -0.7467 -1.5711
  156DOPC   C2418738   7.825   5.307  16.076 -0.4413 -0.6144 -0.3731
  156DOPC   H4R18739   7.743   5.375  16.105 -0.8021  0.0277 -2.6487
  156DOPC   H4S18740   7.779   5.206  16.082 -1.9422  0.0364 -0.4238
  156DOPC   C2518741   7.864   5.358  15.936 -0.5556 -0.9014 -0.1482
  156DOPC   H5R18742   7.966   5.322  15.913 -0.4236  0.4161 -1.8018
  156DOPC   H5S18743   7.876   5.469  15.940 -0.1017 -0.9268 -0.7653
  156DOPC   C2618744   7.770   5.319  15.820 -0.5819  0.2710  0.6420
  156DOPC   H6R18745   7.745   5.212  15.833 -0.9155  0.5221  2.2761
  156DOPC   H6S18746   7.824   5.333  15.724 -2.0490  0.3650 -0.1917
  156DOPC   C2718747   7.652   5.417  15.802 -0.6214 -0.3496 -0.2569
  156DOPC   H7R18748   7.687   5.519  15.775  0.3156 -0.2602  1.1716
  156DOPC   H7S18749   7.599   5.432  15.898 -0.4386  0.9438 -0.3338
  156DOPC   C2818750   7.542   5.361  15.707 -0.4583 -0.0753 -0.0598
  156DOPC   H8R18751   7.580   5.330  15.607  0.3440 -0.2615  0.2952
  156DOPC   H8S18752   7.472   5.445  15.690 -0.7257 -0.1874  0.4728
  156DOPC   C2918753   7.473   5.243  15.772  0.1205  0.6044  0.0235
  156DOPC   H9R18754   7.524   5.149  15.748  1.6962  1.3920  0.1710
  156DOPC  C21018755   7.370   5.243  15.864 -0.5253 -0.3251 -0.1292
  156DOPC  H10R18756   7.335   5.142  15.889 -1.6012 -0.4457 -1.9408
  156DOPC  C21118757   7.308   5.367  15.928 -0.2924 -0.4859 -0.1647
  156DOPC  H11R18758   7.308   5.444  15.849  0.2080 -1.2838 -0.9635
  156DOPC  H11S18759   7.377   5.393  16.011 -1.3466 -1.0605  0.9207
  156DOPC  C21218760   7.169   5.353  15.999 -0.9037 -0.5814 -0.0044
  156DOPC  H12R18761   7.155   5.434  16.074 -0.1441  1.1427 -1.6744
  156DOPC  H12S18762   7.174   5.253  16.048 -0.8404 -1.3212 -1.4598
  156DOPC  C21318763   7.053   5.345  15.902 -0.9854 -0.1602  0.0134
  156DOPC  H13R18764   6.960   5.301  15.943 -1.4813  0.9302  0.0929
  156DOPC  H13S18765   7.077   5.278  15.817 -1.3992  0.7461 -0.8290
  156DOPC  C21418766   7.032   5.475  15.830 -0.4716 -0.1953  0.1799
  156DOPC  H14R18767   7.113   5.479  15.754 -0.1776 -2.2348  0.3294
  156DOPC  H14S18768   7.040   5.564  15.897 -1.3703  0.5435 -0.6629
  156DOPC  C21518769   6.898   5.475  15.746 -0.4170 -0.0330 -0.2953
  156DOPC  H15R18770   6.810   5.467  15.813  0.8150 -2.4090  1.1827
  156DOPC  H15S18771   6.902   5.396  15.667  2.7076 -1.1993  0.8729
  156DOPC  C21618772   6.892   5.612  15.673 -0.4056 -0.1589  0.4069
  156DOPC  H16R18773   6.993   5.635  15.633 -1.2831  0.8645 -1.3294
  156DOPC  H16S18774   6.853   5.694  15.737 -0.3936 -0.2991  0.5919
  156DOPC  C21718775   6.804   5.603  15.541 -0.0481  0.0777 -0.4186
  156DOPC  H17R18776   6.701   5.632  15.572  0.8576  0.3959  2.6342
  156DOPC  H17S18777   6.803   5.495  15.512 -1.3133 -0.1645  0.4278
  156DOPC  C21818778   6.856   5.694  15.426 -0.0128 -1.3782 -0.3068
  156DOPC  H18R18779   6.872   5.791  15.478 -1.7417 -2.3682  2.2418
  156DOPC  H18S18780   6.777   5.712  15.350 -0.1293  3.3436  0.6024
  156DOPC  H18T18781   6.950   5.652  15.383 -0.3591 -0.9320 -1.5597
  156DOPC   C3318782   7.425   4.929  16.153 -0.0630 -0.0410  0.1144
  156DOPC   H3X18783   7.331   4.975  16.188 -0.3925 -0.3116 -0.4085
  156DOPC   H3Y18784   7.453   4.853  16.229 -2.6401  1.6651  2.9702
  156DOPC   C3418785   7.395   4.885  16.007  0.2257  0.4409  0.0810
  156DOPC   H4X18786   7.489   4.846  15.962 -0.8507 -2.2356 -0.0329
  156DOPC   H4Y18787   7.351   4.966  15.945  1.4094  1.8557  1.0255
  156DOPC   C3518788   7.299   4.767  16.006 -0.5713 -0.8534 -0.0926
  156DOPC   H5X18789   7.205   4.797  16.059 -0.6225  1.1403 -1.2248
  156DOPC   H5Y18790   7.348   4.679  16.051 -0.1299 -0.5401  0.0459
  156DOPC   C3618791   7.265   4.718  15.860 -0.3877 -0.5020 -0.2873
  156DOPC   H6X18792   7.354   4.729  15.793 -1.1405 -1.7134 -1.5404
  156DOPC   H6Y18793   7.230   4.613  15.874  0.6635 -0.4879  3.7051
  156DOPC   C3718794   7.140   4.787  15.811  0.0544  0.1038  0.4303
  156DOPC   H7X18795   7.055   4.772  15.880  0.9512  0.5766  1.6840
  156DOPC   H7Y18796   7.160   4.897  15.803 -1.2144  0.2666 -0.7644
  156DOPC   C3818797   7.093   4.729  15.675 -0.1143 -0.5251 -0.3150
  156DOPC   H8X18798   7.044   4.630  15.690  0.5590 -0.7668  0.3797
  156DOPC   H8Y18799   7.183   4.709  15.614  0.7929 -0.3251  0.9208
  156DOPC   C3918800   6.987   4.828  15.621 -0.6156  0.3067 -0.0618
  156DOPC   H9X18801   6.886   4.786  15.633 -0.3710 -0.3879 -0.3594
  156DOPC  C31018802   7.004   4.952  15.570 -0.8459  0.3301 -0.1715
  156DOPC  H10X18803   6.919   5.004  15.522 -2.6732 -0.9182  1.5706
  156DOPC  C31118804   7.143   5.021  15.564  0.2036 -0.2102  0.2040
  156DOPC  H11X18805   7.227   4.961  15.605  0.1712 -0.2248  0.2476
  156DOPC  H11Y18806   7.144   5.113  15.627  0.6410  0.4074 -0.6792
  156DOPC  C31218807   7.187   5.045  15.416 -0.6438  0.7280  0.8262
  156DOPC  H12X18808   7.180   4.952  15.357  0.8301  0.4909  0.9879
  156DOPC  H12Y18809   7.294   5.074  15.419 -0.4323 -0.0905  2.5999
  156DOPC  C31318810   7.112   5.165  15.352 -0.1066 -1.0076  1.2369
  156DOPC  H13X18811   7.017   5.119  15.318  0.2953 -1.7661  1.1070
  156DOPC  H13Y18812   7.100   5.250  15.422  0.4294  0.8565 -0.8138
  156DOPC  C31418813   7.185   5.230  15.232 -0.2714  0.9930 -0.0539
  156DOPC  H14X18814   7.219   5.145  15.169  0.1978  0.2955  1.1159
  156DOPC  H14Y18815   7.116   5.296  15.177  0.0196  1.1246 -0.2663
  156DOPC  C31518816   7.309   5.310  15.274 -0.0655 -0.6503  0.5367
  156DOPC  H15X18817   7.371   5.320  15.183  0.3455 -2.1065  0.6370
  156DOPC  H15Y18818   7.377   5.255  15.343 -0.8249 -0.4128  1.4936
  156DOPC  C31618819   7.291   5.453  15.340  0.5430 -0.0645  0.4432
  156DOPC  H16X18820   7.236   5.528  15.279  0.0672  0.8643  1.9537
  156DOPC  H16Y18821   7.220   5.441  15.424  1.0711  0.6586  1.0006
  156DOPC  C31718822   7.419   5.512  15.393  0.4234 -0.7549  0.5439
  156DOPC  H17X18823   7.480   5.426  15.429  1.0352 -0.5217  0.0580
  156DOPC  H17Y18824   7.472   5.562  15.310  2.2662  1.8555  3.0962
  156DOPC  C31818825   7.396   5.615  15.503  0.2159 -0.3647 -0.5284
  156DOPC  H18X18826   7.490   5.663  15.538 -0.8370  1.4660 -0.0758
  156DOPC  H18Y18827   7.327   5.700  15.482 -0.6914 -0.5771  1.3607
  156DOPC  H18Z18828   7.337   5.565  15.583 -3.8040 -1.0567 -3.5901
  157DOPC     N18829   0.226   0.458  16.759 -0.1316  0.3946  0.5565
  157DOPC   C1218830   0.148   0.334  16.704  0.1854  0.0881 -0.5042
  157DOPC  H12A18831   0.181   0.248  16.760 -1.0648 -0.7653 -1.0309
  157DOPC  H12B18832   0.167   0.308  16.601 -0.0082  0.9343 -0.7611
  157DOPC   C1318833   0.160   0.587  16.718 -0.0506  0.1864  0.4850
  157DOPC  H13A18834   0.060   0.595  16.757 -1.5284 -0.8461 -2.7075
  157DOPC  H13B18835   0.225   0.663  16.758  1.8805 -1.0792 -0.0967
  157DOPC  H13C18836   0.160   0.604  16.611  1.1960 -1.1689  0.2347
  157DOPC   C1418837   0.370   0.453  16.704  0.0696  0.1046 -0.4230
  157DOPC  H14A18838   0.367   0.450  16.596 -1.5198 -0.4573 -0.3977
  157DOPC  H14B18839   0.421   0.546  16.725  1.1164 -0.7446  0.9514
  157DOPC  H14C18840   0.441   0.384  16.747  0.1639  0.2843 -0.2881
  157DOPC   C1518841   0.225   0.456  16.904  1.0332 -0.4361 -0.0993
  157DOPC  H15A18842   0.272   0.540  16.953 -0.4547 -0.4522  1.4576
  157DOPC  H15B18843   0.267   0.369  16.952 -1.2696 -0.0508  2.9213
  157DOPC  H15C18844   0.119   0.459  16.928  0.8365 -0.3751 -0.9474
  157DOPC   C1118845  -0.012   0.342  16.714 -0.5423 -0.4672  0.1093
  157DOPC  H11A18846  -0.033   0.430  16.649 -0.7196  0.4244  1.3481
  157DOPC  H11B18847  -0.045   0.242  16.678 -0.7099  0.4915 -2.6878
  157DOPC     P18848  -0.207   0.391  16.885 -0.2599 -0.0800  0.0125
  157DOPC   O1318849  -0.223   0.481  17.001  0.2906 -0.0906 -0.4781
  157DOPC   O1418850  -0.267   0.257  16.903  0.2443 -0.1447 -0.2932
  157DOPC   O1218851  -0.052   0.377  16.856 -0.3149 -0.1538  0.7434
  157DOPC   O1118852  -0.259   0.459  16.749 -0.0400  0.1321  0.3662
  157DOPC    C118853  -0.378   0.417  16.681  0.4241  0.4228 -0.9599
  157DOPC    HA18854  -0.458   0.492  16.700  1.5659  1.2655  0.7026
  157DOPC    HB18855  -0.420   0.319  16.713  1.0229 -0.5291 -2.8910
  157DOPC    C218856  -0.360   0.399  16.530  0.3095  0.1951  0.0587
  157DOPC    HS18857  -0.456   0.395  16.475 -0.0684  0.4907  0.6795
  157DOPC   O2118858  -0.284   0.286  16.500 -0.2867  0.0436  0.5668
  157DOPC   C2118859  -0.307   0.161  16.535 -0.0697 -0.0743  0.1600
  157DOPC   O2218860  -0.406   0.124  16.596  0.2694  0.6826  0.2684
  157DOPC   C2218861  -0.198   0.062  16.492 -0.2164 -0.9712  0.8406
  157DOPC   H2R18862  -0.117   0.058  16.568 -0.8266  1.3463  1.6725
  157DOPC   H2S18863  -0.162   0.100  16.394 -2.2617  1.5855  0.9807
  157DOPC    C318864  -0.286   0.528  16.477 -0.1030 -0.2470 -0.0109
  157DOPC    HX18865  -0.180   0.537  16.509  0.7303  0.3048 -2.7164
  157DOPC    HY18866  -0.341   0.609  16.528 -0.8985 -1.7954  1.7271
  157DOPC   O3118867  -0.298   0.527  16.329  0.0338 -0.6527  0.1046
  157DOPC   C3118868  -0.333   0.642  16.279  0.6952  0.2797  0.2057
  157DOPC   O3218869  -0.357   0.750  16.334  0.1783  0.0685 -0.0076
  157DOPC   C3218870  -0.350   0.628  16.126 -0.6485 -0.3126 -0.2888
  157DOPC   H2X18871  -0.283   0.549  16.086  1.9275  1.8253 -0.5014
  157DOPC   H2Y18872  -0.458   0.604  16.128 -0.6152 -0.4800 -0.4684
  157DOPC   C2318873  -0.247  -0.078  16.479  0.0531  0.4772  0.7063
  157DOPC   H3R18874  -0.324  -0.074  16.400  1.8805  2.5973 -1.1141
  157DOPC   H3S18875  -0.288  -0.119  16.574 -1.0300  0.6179  0.3103
  157DOPC   C2418876  -0.132  -0.170  16.435  0.7913  0.3878 -0.0820
  157DOPC   H4R18877  -0.046  -0.149  16.503  2.8822  0.6927 -2.6396
  157DOPC   H4S18878  -0.092  -0.140  16.336 -0.8391  0.8332 -0.6234
  157DOPC   C2518879  -0.185  -0.319  16.453  0.3257  0.5234  0.1288
  157DOPC   H5R18880  -0.293  -0.329  16.431  0.5193  1.2148 -1.2431
  157DOPC   H5S18881  -0.170  -0.337  16.562  0.9714 -0.4320 -0.1080
  157DOPC   C2618882  -0.107  -0.418  16.373  0.1855  0.1721 -0.4579
  157DOPC   H6R18883  -0.003  -0.408  16.410  0.5732 -0.7882 -1.2487
  157DOPC   H6S18884  -0.106  -0.389  16.265 -0.7578  0.1163 -0.4899
  157DOPC   C2718885  -0.140  -0.567  16.396 -0.5689 -0.9058 -0.4789
  157DOPC   H7R18886  -0.239  -0.595  16.356 -1.6682  0.9121  0.7954
  157DOPC   H7S18887  -0.137  -0.570  16.508 -1.0740 -0.1517 -0.4381
  157DOPC   C2818888  -0.042  -0.660  16.323  0.1347 -0.5586 -0.0359
  157DOPC   H8R18889  -0.056  -0.766  16.355  2.2918  0.2924  4.5746
  157DOPC   H8S18890   0.065  -0.634  16.339  0.4964 -0.9468 -1.6145
  157DOPC   C2918891  -0.048  -0.642  16.171  0.6691 -0.5367 -0.2685
  157DOPC   H9R18892  -0.005  -0.543  16.150  2.1636 -0.7625  1.4541
  157DOPC  C21018893  -0.094  -0.732  16.080 -0.1206  0.6877 -0.3257
  157DOPC  H10R18894  -0.111  -0.707  15.974 -2.4218 -0.4971 -0.3181
  157DOPC  C21118895  -0.151  -0.874  16.116  1.6610  0.0558 -0.3856
  157DOPC  H11R18896  -0.261  -0.878  16.105  1.3185  0.1324  2.3411
  157DOPC  H11S18897  -0.140  -0.897  16.224 -2.7464 -1.0529  0.0031
  157DOPC  C21218898  -0.090  -0.980  16.030  0.1372 -0.1266  0.3828
  157DOPC  H12R18899  -0.144  -1.073  16.059 -2.6986  0.6361 -1.9805
  157DOPC  H12S18900   0.017  -0.981  16.061 -0.4841  0.3795  2.6809
  157DOPC  C21318901  -0.096  -0.961  15.876 -0.0255  0.5880 -0.1528
  157DOPC  H13R18902  -0.045  -0.867  15.846 -1.1553  0.8748 -1.2398
  157DOPC  H13S18903  -0.201  -0.949  15.844  0.5187  3.0121 -1.2637
  157DOPC  C21418904  -0.046  -1.090  15.797  0.1285  0.0798 -0.0305
  157DOPC  H14R18905  -0.097  -1.179  15.841  1.5551 -1.3390 -1.1054
  157DOPC  H14S18906   0.063  -1.108  15.808  0.1469  0.8499  1.1704
  157DOPC  C21518907  -0.082  -1.088  15.648 -0.0270 -0.1705  0.1873
  157DOPC  H15R18908  -0.023  -1.012  15.593 -1.1212  0.0140 -0.7835
  157DOPC  H15S18909  -0.190  -1.074  15.625  0.0209 -0.5646 -0.2996
  157DOPC  C21618910  -0.058  -1.218  15.574  0.0072 -0.1047 -0.7026
  157DOPC  H16R18911  -0.125  -1.296  15.616 -1.5103  0.7584 -1.4512
  157DOPC  H16S18912   0.050  -1.239  15.593  0.4981  0.7597 -2.3344
  157DOPC  C21718913  -0.081  -1.216  15.418 -0.1264 -0.1769 -0.7078
  157DOPC  H17R18914  -0.191  -1.215  15.401 -0.0656  1.3755 -1.1471
  157DOPC  H17S18915  -0.046  -1.316  15.383 -1.4458 -0.4760 -1.2308
  157DOPC  C21818916  -0.010  -1.105  15.347 -0.3379 -0.5103  0.7027
  157DOPC  H18R18917   0.090  -1.083  15.390  1.0038 -0.6711 -2.1100
  157DOPC  H18S18918  -0.064  -1.009  15.355  1.6443  0.6775  0.4131
  157DOPC  H18T18919   0.002  -1.129  15.239  1.1945  3.2165 -0.0999
  157DOPC   C3318920  -0.328   0.757  16.049 -0.1813 -0.0108  0.8456
  157DOPC   H3X18921  -0.374   0.846  16.098 -0.2058  0.3047  0.2507
  157DOPC   H3Y18922  -0.371   0.736  15.949  3.1431  2.6200 -1.3381
  157DOPC   C3418923  -0.180   0.801  16.038 -1.2048 -0.0407 -0.8887
  157DOPC   H4X18924  -0.174   0.877  15.957  1.7004 -0.9312 -1.6398
  157DOPC   H4Y18925  -0.116   0.712  16.017  0.9721  0.3626  3.1424
  157DOPC   C3518926  -0.119   0.869  16.170 -0.7479 -0.1205 -0.3106
  157DOPC   H5X18927  -0.106   0.787  16.243  1.6495 -0.4984 -1.0721
  157DOPC   H5Y18928  -0.193   0.940  16.212 -0.0362  1.3771 -1.4555
  157DOPC   C3618929   0.013   0.945  16.149  0.5844 -0.5653  0.4409
  157DOPC   H6X18930   0.046   0.979  16.249 -1.1345 -0.1309  0.8982
  157DOPC   H6Y18931   0.093   0.878  16.111  0.1665 -2.2403  2.3256
  157DOPC   C3718932   0.010   1.071  16.048  0.0121 -0.4065 -0.6224
  157DOPC   H7X18933  -0.004   1.012  15.955 -0.5461 -1.3024  0.0054
  157DOPC   H7Y18934  -0.089   1.118  16.066 -0.5597 -1.3182 -1.2847
  157DOPC   C3818935   0.139   1.157  16.059  0.2108  0.1071 -0.0593
  157DOPC   H8X18936   0.168   1.216  15.969  1.1175 -0.2205  0.0105
  157DOPC   H8Y18937   0.232   1.096  16.063 -0.1784 -0.4467  2.5722
  157DOPC   C3918938   0.150   1.223  16.196  0.4080 -0.0844  0.3532
  157DOPC   H9X18939   0.174   1.159  16.282  2.7721  2.2140  1.5739
  157DOPC  C31018940   0.141   1.358  16.225  0.3973 -0.2240  0.0955
  157DOPC  H10X18941   0.163   1.382  16.331 -1.3966  1.0141  0.2436
  157DOPC  C31118942   0.119   1.481  16.141  0.5021 -0.2298 -0.6148
  157DOPC  H11X18943   0.136   1.457  16.034  0.3714 -1.1802 -0.4345
  157DOPC  H11Y18944   0.180   1.566  16.177  0.1864 -0.1946 -0.1534
  157DOPC  C31218945  -0.033   1.524  16.142  0.0118 -0.1446  1.0762
  157DOPC  H12X18946  -0.082   1.528  16.241 -2.4339 -1.0823 -0.0125
  157DOPC  H12Y18947  -0.096   1.453  16.084 -2.2506  0.8184  2.2327
  157DOPC  C31318948  -0.039   1.667  16.081  0.9260  0.5693 -0.2800
  157DOPC  H13X18949   0.007   1.740  16.151 -1.6578  1.1345  0.9305
  157DOPC  H13Y18950   0.031   1.669  15.995 -0.5736  1.9929 -1.5140
  157DOPC  C31418951  -0.175   1.695  16.014  0.7185  0.5443  0.3596
  157DOPC  H14X18952  -0.202   1.615  15.942 -1.0826  0.9153  0.5631
  157DOPC  H14Y18953  -0.246   1.685  16.100  0.5034 -2.1333 -0.0383
  157DOPC  C31518954  -0.185   1.836  15.951 -0.2471  0.4058 -0.1641
  157DOPC  H15X18955  -0.168   1.912  16.030 -0.6615 -0.9303  1.2638
  157DOPC  H15Y18956  -0.287   1.849  15.909  0.3304  1.1299 -1.3849
  157DOPC  C31618957  -0.092   1.859  15.832 -0.4896  0.2714  0.1949
  157DOPC  H16X18958  -0.079   1.967  15.813 -3.0104  0.6593  0.3716
  157DOPC  H16Y18959   0.013   1.835  15.859 -1.1120 -3.1729  0.0315
  157DOPC  C31718960  -0.116   1.762  15.715 -0.4806 -0.2758 -0.6440
  157DOPC  H17X18961  -0.102   1.660  15.758  2.0303  0.8352  1.3942
  157DOPC  H17Y18962  -0.217   1.769  15.669 -1.8153 -0.3787  2.0903
  157DOPC  C31818963  -0.022   1.782  15.598 -0.3157  0.7369 -0.2963
  157DOPC  H18X18964  -0.047   1.696  15.531  0.2489  1.2010 -1.1111
  157DOPC  H18Y18965  -0.050   1.875  15.545 -1.6451  1.2153  1.1694
  157DOPC  H18Z18966   0.079   1.792  15.642 -0.5594 -0.9390  0.7313
  158DOPC     N18967   4.993   6.723  17.234  0.3377  0.1236 -0.0845
  158DOPC   C1218968   4.897   6.825  17.177  0.1379 -0.3974  0.0028
  158DOPC  H12A18969   4.911   6.924  17.218 -1.0542 -0.4965  0.6968
  158DOPC  H12B18970   4.799   6.794  17.211  0.1288  0.6060  0.9593
  158DOPC   C1318971   5.137   6.758  17.201 -0.1222  0.5157 -0.4090
  158DOPC  H13A18972   5.154   6.771  17.095  1.3140 -2.7304 -0.6911
  158DOPC  H13B18973   5.165   6.853  17.244 -0.1284  0.8084 -1.0343
  158DOPC  H13C18974   5.202   6.675  17.225 -1.5068 -0.5824 -0.3046
  158DOPC   C1418975   4.961   6.590  17.166 -0.4221 -0.1587  0.5240
  158DOPC  H14A18976   5.032   6.516  17.198  0.5357 -0.0869 -1.3310
  158DOPC  H14B18977   4.861   6.559  17.195 -0.6931  0.6237  0.4620
  158DOPC  H14C18978   4.964   6.593  17.058  2.0992  2.0337  0.5548
  158DOPC   C1518979   4.987   6.707  17.387 -0.0625 -0.5068 -0.0669
  158DOPC  H15A18980   5.020   6.799  17.434 -0.1735 -0.2874 -0.4085
  158DOPC  H15B18981   5.056   6.628  17.411  1.8258  1.0597 -0.0304
  158DOPC  H15C18982   4.889   6.682  17.426  0.4662 -0.8118  1.1099
  158DOPC   C1118983   4.895   6.824  17.019 -0.2164  0.0653 -0.0512
  158DOPC  H11A18984   4.891   6.720  16.980  1.9386 -1.2556  2.8620
  158DOPC  H11B18985   4.808   6.878  16.976  0.3408  0.6813 -0.4340
  158DOPC     P18986   5.046   7.021  16.928 -0.5906 -0.2114 -0.2731
  158DOPC   O1318987   5.156   7.054  17.019 -0.2284  0.6405 -0.0023
  158DOPC   O1418988   4.920   7.102  16.925 -0.5414  0.3017 -0.7714
  158DOPC   O1218989   5.013   6.874  16.957  0.2711  0.3012 -0.3046
  158DOPC   O1118990   5.102   7.009  16.781 -0.6030  0.7788 -0.0324
  158DOPC    C118991   5.196   6.906  16.746 -0.1488  0.1851 -0.5754
  158DOPC    HA18992   5.145   6.808  16.738  0.8005 -0.5550  1.7650
  158DOPC    HB18993   5.276   6.897  16.821 -1.0389 -0.8593  0.2847
  158DOPC    C218994   5.263   6.922  16.606  0.6513 -0.0646 -0.2536
  158DOPC    HS18995   5.313   7.021  16.592 -0.0295  0.0320 -2.3886
  158DOPC   O2118996   5.155   6.901  16.512 -0.4539  0.2016  0.3610
  158DOPC   C2118997   5.116   7.002  16.440 -0.2334  0.7047 -0.1155
  158DOPC   O2218998   5.149   7.118  16.462 -0.3587 -0.5599  0.2466
  158DOPC   C2218999   5.016   6.959  16.339  0.5394 -0.5072  0.2963
  158DOPC   H2R19000   4.919   6.996  16.378 -0.5168 -1.1575 -1.5445
  158DOPC   H2S19001   5.006   6.848  16.336 -1.5959 -0.3487 -0.3253
  158DOPC    C319002   5.381   6.823  16.587  0.3477 -0.4862  0.9026
  158DOPC    HX19003   5.342   6.720  16.601 -1.4351 -0.0651 -0.5449
  158DOPC    HY19004   5.463   6.835  16.661  0.9003 -0.6286  0.3197
  158DOPC   O3119005   5.435   6.814  16.449  0.5899  0.3527 -0.0703
  158DOPC   C3119006   5.496   6.920  16.401  0.4127  0.0607  0.0058
  158DOPC   O3219007   5.516   7.025  16.461 -0.1661 -0.0935  0.4243
  158DOPC   C3219008   5.518   6.893  16.248 -0.3951  0.3678  0.4548
  158DOPC   H2X19009   5.604   6.828  16.219 -2.9401 -2.8504 -0.4513
  158DOPC   H2Y19010   5.424   6.847  16.212 -0.7004 -0.2981  2.0148
  158DOPC   C2319011   5.036   7.024  16.201 -0.2151  0.3278 -0.9318
  158DOPC   H3R19012   5.030   7.134  16.220  1.2617  0.1878  0.6094
  158DOPC   H3S19013   4.948   6.996  16.140 -1.4996  2.1195 -0.0287
  158DOPC   C2419014   5.167   6.982  16.130 -0.2466  0.5120 -0.3440
  158DOPC   H4R19015   5.253   7.004  16.197 -0.1287  5.6927 -1.7756
  158DOPC   H4S19016   5.168   7.059  16.050 -1.1308 -0.5891 -1.4472
  158DOPC   C2519017   5.181   6.832  16.085  0.6101 -0.0778 -0.1271
  158DOPC   H5R19018   5.166   6.778  16.181 -1.7761 -1.0104 -0.9469
  158DOPC   H5S19019   5.280   6.809  16.041  0.5804 -0.4749  0.0176
  158DOPC   C2619020   5.068   6.805  15.986  0.6581  0.2882 -0.1635
  158DOPC   H6R19021   4.966   6.811  16.029  0.4510 -1.7242 -0.2574
  158DOPC   H6S19022   5.087   6.697  15.965  0.7213 -0.2747  2.4088
  158DOPC   C2719023   5.070   6.892  15.858 -0.3980 -0.1089 -0.2696
  158DOPC   H7R19024   5.174   6.906  15.823 -0.1143  1.0271  0.9631
  158DOPC   H7S19025   5.037   6.996  15.881  0.0577  0.1978 -0.9855
  158DOPC   C2819026   4.984   6.849  15.741 -0.1132  0.0196 -0.0546
  158DOPC   H8R19027   4.877   6.833  15.770 -0.1538 -0.2716 -0.3631
  158DOPC   H8S19028   5.016   6.745  15.717 -4.5846 -2.2607  2.3912
  158DOPC   C2919029   4.998   6.942  15.619  0.5661  0.1724 -0.3550
  158DOPC   H9R19030   5.089   6.916  15.563  0.3257 -0.8425 -0.2821
  158DOPC  C21019031   4.931   7.051  15.585 -0.1940  0.0357 -0.5941
  158DOPC  H10R19032   4.961   7.108  15.495 -0.6771 -2.2056 -2.2633
  158DOPC  C21119033   4.820   7.120  15.660  0.0690 -0.3000  0.2820
  158DOPC  H11R19034   4.860   7.223  15.674  2.0865 -1.1103  0.9681
  158DOPC  H11S19035   4.794   7.088  15.763  1.1436 -1.1671  0.3134
  158DOPC  C21219036   4.683   7.138  15.588 -0.9812 -0.1547  0.6698
  158DOPC  H12R19037   4.626   7.044  15.609 -1.0953 -0.1154  0.5375
  158DOPC  H12S19038   4.712   7.157  15.482 -0.0251  2.4854  1.3341
  158DOPC  C21319039   4.603   7.261  15.622 -0.4221  1.0792 -0.5578
  158DOPC  H13R19040   4.519   7.292  15.556 -2.1791  2.8911  2.3417
  158DOPC  H13S19041   4.672   7.347  15.616 -2.3648  2.7484 -0.0173
  158DOPC  C21419042   4.541   7.260  15.766  0.0222  0.2811  0.0357
  158DOPC  H14R19043   4.623   7.247  15.841 -0.9268  0.4508  1.1346
  158DOPC  H14S19044   4.478   7.171  15.785 -2.8359  1.6593 -2.2227
  158DOPC  C21519045   4.451   7.382  15.798  0.0563 -0.4632 -0.1656
  158DOPC  H15R19046   4.510   7.475  15.785 -2.0572  1.1733  1.1614
  158DOPC  H15S19047   4.416   7.367  15.902  1.7684 -1.9747  0.2441
  158DOPC  C21619048   4.333   7.404  15.709 -0.8047 -0.7392  0.4763
  158DOPC  H16R19049   4.257   7.323  15.703 -2.1163  0.3426  1.8095
  158DOPC  H16S19050   4.368   7.429  15.607 -2.4999 -1.2971 -0.2861
  158DOPC  C21719051   4.263   7.533  15.755 -0.3934 -0.4051 -0.0905
  158DOPC  H17R19052   4.216   7.581  15.667  0.4400  2.0001  0.7010
  158DOPC  H17S19053   4.338   7.602  15.800 -0.1977 -2.0125  2.1870
  158DOPC  C21819054   4.158   7.507  15.859 -0.4545 -0.8704  0.1656
  158DOPC  H18R19055   4.201   7.463  15.951 -0.5288  0.0643  0.6639
  158DOPC  H18S19056   4.083   7.442  15.810  0.5900 -1.5806 -0.5288
  158DOPC  H18T19057   4.105   7.600  15.888 -3.2099 -2.3613  0.2411
  158DOPC   C3319058   5.544   7.027  16.175  0.1480  0.1855  0.6227
  158DOPC   H3X19059   5.626   7.081  16.226 -0.3207 -0.1016  1.7198
  158DOPC   H3Y19060   5.453   7.091  16.179  1.4167  2.0643  0.7507
  158DOPC   C3419061   5.582   7.003  16.031  0.0978 -0.1556 -0.4239
  158DOPC   H4X19062   5.505   6.941  15.980  1.2086 -1.6945 -0.3090
  158DOPC   H4Y19063   5.673   6.938  16.030 -0.4106 -0.8849 -0.9516
  158DOPC   C3519064   5.609   7.130  15.958 -0.1434  0.0057 -0.0171
  158DOPC   H5X19065   5.684   7.113  15.877  0.9405  0.3061  0.9136
  158DOPC   H5Y19066   5.651   7.208  16.024 -1.1619 -1.0333  1.9213
  158DOPC   C3619067   5.480   7.190  15.889 -0.1625  0.2838 -0.1836
  158DOPC   H6X19068   5.398   7.228  15.954  0.1865  1.7580 -0.5628
  158DOPC   H6Y19069   5.509   7.287  15.843 -0.1160  0.9528  1.1923
  158DOPC   C3719070   5.419   7.104  15.775  0.3449  0.3300  0.4246
  158DOPC   H7X19071   5.502   7.075  15.708 -1.8733 -0.4760 -2.1432
  158DOPC   H7Y19072   5.378   7.012  15.821 -1.2002 -0.4169 -2.2330
  158DOPC   C3819073   5.305   7.171  15.708 -0.4976 -0.8032  0.0337
  158DOPC   H8X19074   5.226   7.198  15.782 -0.2883 -1.2823  0.4318
  158DOPC   H8Y19075   5.251   7.105  15.637  0.3314 -0.4456 -0.9514
  158DOPC   C3919076   5.337   7.291  15.623 -0.4515  0.1499 -0.3653
  158DOPC   H9X19077   5.375   7.378  15.679 -0.3844  0.7500 -1.3298
  158DOPC  C31019078   5.325   7.301  15.493  0.5093 -0.0929  0.4370
  158DOPC  H10X19079   5.336   7.399  15.444  0.4984  0.1114  0.8326
  158DOPC  C31119080   5.276   7.199  15.391 -0.5366  0.5819  0.4162
  158DOPC  H11X19081   5.231   7.114  15.446 -1.8376  1.6243  1.0140
  158DOPC  H11Y19082   5.354   7.170  15.317 -1.1000 -3.5921  1.2022
  158DOPC  C31219083   5.160   7.269  15.319 -0.0331  0.5865 -0.2575
  158DOPC  H12X19084   5.195   7.361  15.268  0.6280  0.2087 -0.4971
  158DOPC  H12Y19085   5.080   7.299  15.389  0.9016 -0.3975  1.2898
  158DOPC  C31319086   5.104   7.177  15.211  0.0646 -0.3569 -0.2680
  158DOPC  H13X19087   5.176   7.159  15.129 -1.0494  0.1717 -1.3904
  158DOPC  H13Y19088   5.078   7.083  15.265  0.8158 -0.3359  0.1385
  158DOPC  C31419089   4.982   7.226  15.130  0.0592  0.1802 -0.4651
  158DOPC  H14X19090   5.010   7.322  15.081 -0.0371  0.6392  0.3625
  158DOPC  H14Y19091   4.965   7.156  15.046  0.4909  1.1914 -1.4291
  158DOPC  C31519092   4.857   7.264  15.216 -0.1237 -0.5482 -0.5211
  158DOPC  H15X19093   4.881   7.362  15.263  0.4196  0.1910 -2.2699
  158DOPC  H15Y19094   4.841   7.190  15.297 -0.3437  0.0691  0.0077
  158DOPC  C31619095   4.723   7.287  15.139 -0.0672  0.1162 -0.3132
  158DOPC  H16X19096   4.660   7.338  15.214  1.3472  2.5162 -0.6370
  158DOPC  H16Y19097   4.750   7.361  15.060 -1.9689  1.7495  0.4874
  158DOPC  C31719098   4.660   7.156  15.083 -0.6632  0.3097 -0.3259
  158DOPC  H17X19099   4.743   7.115  15.022 -0.4813 -1.6648  1.1295
  158DOPC  H17Y19100   4.631   7.088  15.167 -1.0115  0.4772 -0.3103
  158DOPC  C31819101   4.532   7.172  14.992  0.3012  0.1426 -0.0054
  158DOPC  H18X19102   4.538   7.249  14.912 -0.1168  1.7459  1.4729
  158DOPC  H18Y19103   4.493   7.074  14.956  1.7014 -1.3791  2.3742
  158DOPC  H18Z19104   4.455   7.203  15.065  0.7403 -2.3156  1.6513
  159DOPC     N19105   0.710   2.147  17.050 -0.5223  0.1738  0.1753
  159DOPC   C1219106   0.733   2.096  16.907  0.1464 -0.1728 -0.3590
  159DOPC  H12A19107   0.636   2.071  16.867 -0.5549 -1.0426  1.7422
  159DOPC  H12B19108   0.791   2.005  16.898 -0.7104 -0.7146 -0.6021
  159DOPC   C1319109   0.831   2.202  17.105 -0.2679  0.2328 -0.3063
  159DOPC  H13A19110   0.826   2.230  17.209  1.7037 -1.5678  0.3536
  159DOPC  H13B19111   0.903   2.123  17.117  0.6889  1.3822  2.2844
  159DOPC  H13C19112   0.870   2.287  17.051  1.0848  1.8137  2.9127
  159DOPC   C1419113   0.671   2.030  17.140 -0.4366  0.2490  0.4730
  159DOPC  H14A19114   0.756   1.973  17.173  0.3310  0.6712 -0.7366
  159DOPC  H14B19115   0.618   2.064  17.228  0.7312  1.1592  0.8547
  159DOPC  H14C19116   0.603   1.970  17.081  1.1701 -1.3482  0.1855
  159DOPC   C1519117   0.600   2.250  17.057  0.1058  0.4275 -0.5121
  159DOPC  H15A19118   0.582   2.292  17.155 -0.9437  2.2812 -1.4342
  159DOPC  H15B19119   0.508   2.197  17.034 -0.5774  1.0555  0.6870
  159DOPC  H15C19120   0.608   2.320  16.975  3.5927 -1.1499 -1.7154
  159DOPC   C1119121   0.786   2.188  16.799 -0.4214  0.0186  0.4256
  159DOPC  H11A19122   0.884   2.231  16.826 -0.7078  0.9406  0.0579
  159DOPC  H11B19123   0.800   2.128  16.706 -0.3862 -1.5821  1.4322
  159DOPC     P19124   0.552   2.267  16.700 -0.1320  0.6250  0.2556
  159DOPC   O1319125   0.454   2.358  16.766 -0.5833  0.6147 -0.4221
  159DOPC   O1419126   0.521   2.121  16.709  0.6628  0.1876 -0.8751
  159DOPC   O1219127   0.692   2.292  16.767 -0.1682 -0.2702 -0.1644
  159DOPC   O1119128   0.580   2.316  16.555  0.5155  0.1979 -0.4656
  159DOPC    C119129   0.700   2.382  16.510  0.9753  0.5875  0.0773
  159DOPC    HA19130   0.756   2.434  16.590  0.9333  0.5501  0.1316
  159DOPC    HB19131   0.680   2.458  16.431 -2.5435  0.4720  0.6831
  159DOPC    C219132   0.790   2.287  16.431 -0.2066  0.0222  1.0999
  159DOPC    HS19133   0.821   2.203  16.497 -1.1947 -0.5360  0.8653
  159DOPC   O2119134   0.897   2.364  16.366 -0.2755  0.4504  0.7328
  159DOPC   C2119135   1.015   2.299  16.385  0.5485  0.1678  0.3310
  159DOPC   O2219136   1.030   2.202  16.454 -0.2124  0.2794  0.2332
  159DOPC   C2219137   1.126   2.357  16.299 -0.7848 -0.6707 -0.0939
  159DOPC   H2R19138   1.162   2.441  16.361  0.2833 -1.4796  0.3945
  159DOPC   H2S19139   1.081   2.404  16.209 -1.6977  1.9748  1.6260
  159DOPC    C319140   0.704   2.220  16.319 -0.6029  0.0131  0.7764
  159DOPC    HX19141   0.660   2.303  16.259 -1.1452  0.0245  1.1922
  159DOPC    HY19142   0.618   2.162  16.358 -2.4200  1.5950 -0.6772
  159DOPC   O3119143   0.780   2.141  16.224  0.3918 -0.1687  0.1315
  159DOPC   C3119144   0.799   2.021  16.264 -0.3709 -0.3294  0.3232
  159DOPC   O3219145   0.770   1.973  16.372  0.0387 -0.5042  0.1380
  159DOPC   C3219146   0.848   1.932  16.147  0.0713 -0.2675 -0.3334
  159DOPC   H2X19147   0.927   1.985  16.089 -1.4358  0.5644 -1.7171
  159DOPC   H2Y19148   0.887   1.838  16.190 -1.2662 -0.9046 -0.4772
  159DOPC   C2319149   1.237   2.250  16.270  0.8547 -0.8972 -0.5555
  159DOPC   H3R19150   1.191   2.154  16.238  0.3724 -0.0936 -2.3781
  159DOPC   H3S19151   1.285   2.237  16.370  0.3056  0.6708 -0.0536
  159DOPC   C2419152   1.335   2.289  16.165  0.0007 -0.2500 -0.5904
  159DOPC   H4R19153   1.407   2.369  16.195 -1.0081  0.8440 -1.0295
  159DOPC   H4S19154   1.288   2.328  16.072 -0.1507 -0.3300 -0.5466
  159DOPC   C2519155   1.424   2.166  16.137 -0.2263  0.0193  0.6097
  159DOPC   H5R19156   1.347   2.107  16.082 -0.3285 -0.7871  1.6022
  159DOPC   H5S19157   1.460   2.103  16.221 -2.6724 -2.0437  0.2517
  159DOPC   C2619158   1.542   2.207  16.045  1.0306  0.0196  0.2257
  159DOPC   H6R19159   1.605   2.280  16.099  1.7379  0.5473 -1.2746
  159DOPC   H6S19160   1.505   2.260  15.954  1.2333  1.3782  0.9129
  159DOPC   C2719161   1.617   2.077  15.998 -0.4212 -0.4568  0.4564
  159DOPC   H7R19162   1.561   2.023  15.918 -0.7463 -0.4763  0.6948
  159DOPC   H7S19163   1.619   2.005  16.082 -0.1370 -0.6910  0.2479
  159DOPC   C2819164   1.758   2.113  15.953 -0.7951  0.0626 -0.1168
  159DOPC   H8R19165   1.806   2.014  15.937  0.1203 -0.1134  2.9944
  159DOPC   H8S19166   1.817   2.161  16.034 -0.5123  1.6537 -1.2145
  159DOPC   C2919167   1.743   2.202  15.832  0.6572  0.7543 -0.8755
  159DOPC   H9R19168   1.745   2.310  15.853  2.7005  1.1063 -2.5158
  159DOPC  C21019169   1.738   2.164  15.705 -0.0848  0.2834  0.3878
  159DOPC  H10R19170   1.722   2.240  15.627 -0.4490  0.3122  0.4918
  159DOPC  C21119171   1.747   2.021  15.657  0.0579  0.4625 -0.6513
  159DOPC  H11R19172   1.668   2.016  15.580  0.1299 -3.2288 -0.6652
  159DOPC  H11S19173   1.719   1.950  15.738  1.4196  1.1540  0.4722
  159DOPC  C21219174   1.883   1.966  15.607  0.1033  0.0426 -0.7043
  159DOPC  H12R19175   1.872   1.856  15.599 -0.5399  0.1416 -1.2427
  159DOPC  H12S19176   1.968   1.975  15.679 -3.0403  1.7893  3.1376
  159DOPC  C21319177   1.936   2.027  15.471  0.3493  0.6652 -0.2241
  159DOPC  H13R19178   1.926   2.138  15.470 -0.4836  0.5864 -1.1726
  159DOPC  H13S19179   1.868   1.993  15.391  0.1354 -0.9492  0.5943
  159DOPC  C21419180   2.086   1.993  15.445 -0.2414  0.0450 -0.1202
  159DOPC  H14R19181   2.144   2.047  15.523 -1.4633 -1.3029  1.8085
  159DOPC  H14S19182   2.105   2.052  15.353  0.1599  0.3357  0.1465
  159DOPC  C21519183   2.131   1.848  15.435  0.7179  0.0182  0.5074
  159DOPC  H15R19184   2.063   1.793  15.367  0.6375 -1.5754  1.8132
  159DOPC  H15S19185   2.135   1.804  15.537  1.6137 -1.4276 -0.1201
  159DOPC  C21619186   2.269   1.841  15.368 -0.9674 -0.2501  0.4279
  159DOPC  H16R19187   2.337   1.917  15.412 -2.2169  0.0687  1.8795
  159DOPC  H16S19188   2.254   1.866  15.261 -0.4977  1.5923  0.7705
  159DOPC  C21719189   2.322   1.696  15.367  0.0955  1.0731 -0.1550
  159DOPC  H17R19190   2.248   1.621  15.332  2.7020 -1.7965  0.0613
  159DOPC  H17S19191   2.344   1.673  15.473  1.4845  0.9918 -0.4361
  159DOPC  C21819192   2.453   1.679  15.286  0.3460 -0.4374  0.0687
  159DOPC  H18R19193   2.435   1.687  15.176 -0.0029 -0.4459  0.1233
  159DOPC  H18S19194   2.503   1.584  15.311  1.4783  0.3454  0.8675
  159DOPC  H18T19195   2.528   1.757  15.311 -0.1818  0.2848 -0.5388
  159DOPC   C3319196   0.730   1.927  16.045  0.0169 -0.7924 -0.7175
  159DOPC   H3X19197   0.685   2.023  16.015  0.8590  0.0493  0.6029
  159DOPC   H3Y19198   0.653   1.872  16.103  1.5853 -0.0744  2.2314
  159DOPC   C3419199   0.774   1.869  15.910 -0.2997  0.1701  0.7098
  159DOPC   H4X19200   0.828   1.954  15.862 -0.3443 -0.1318  0.1088
  159DOPC   H4Y19201   0.680   1.848  15.854  1.3261 -4.1214 -0.8121
  159DOPC   C3519202   0.865   1.740  15.913  1.4370 -0.4591  0.6081
  159DOPC   H5X19203   0.803   1.650  15.933  0.6467  0.1595  1.0156
  159DOPC   H5Y19204   0.940   1.736  15.995 -0.2595 -1.8005  2.1676
  159DOPC   C3619205   0.945   1.720  15.780 -0.3961 -0.2018 -0.1857
  159DOPC   H6X19206   0.995   1.818  15.770  0.4747 -0.6832 -0.6554
  159DOPC   H6Y19207   1.015   1.634  15.792  2.3971  1.7926 -1.1817
  159DOPC   C3719208   0.853   1.709  15.658 -0.0092  0.4865  0.6902
  159DOPC   H7X19209   0.806   1.609  15.673 -0.2130  0.6386  1.0666
  159DOPC   H7Y19210   0.781   1.794  15.655  0.0413  0.5218 -1.8057
  159DOPC   C3819211   0.931   1.700  15.524 -0.6281 -0.4619 -0.0560
  159DOPC   H8X19212   1.019   1.637  15.549 -0.2823  0.5412  1.4328
  159DOPC   H8Y19213   0.956   1.805  15.498 -1.5744  0.1483  1.3365
  159DOPC   C3919214   0.859   1.634  15.416 -0.8284  0.8430  0.5371
  159DOPC   H9X19215   0.822   1.533  15.440  1.1645 -0.6169 -1.9791
  159DOPC  C31019216   0.855   1.678  15.286 -0.0685  0.0604 -0.1932
  159DOPC  H10X19217   0.799   1.621  15.210  2.4991 -0.7930 -1.5686
  159DOPC  C31119218   0.916   1.809  15.236 -0.0816 -0.3961 -0.2942
  159DOPC  H11X19219   0.929   1.892  15.310 -2.5285  0.6903 -0.9875
  159DOPC  H11Y19220   0.841   1.855  15.169  0.7945  0.6647 -0.5798
  159DOPC  C31219221   1.050   1.811  15.153  0.9327 -0.3689 -0.0129
  159DOPC  H12X19222   1.034   1.725  15.084  1.9099  0.1402 -0.9071
  159DOPC  H12Y19223   1.133   1.788  15.222  2.4189  1.4935 -1.1092
  159DOPC  C31319224   1.067   1.948  15.082  0.2289  0.3986 -0.2153
  159DOPC  H13X19225   0.980   1.981  15.023  0.2083  1.5446  0.4198
  159DOPC  H13Y19226   1.098   2.019  15.162 -0.8387  0.5188  0.0995
  159DOPC  C31419227   1.168   1.928  14.972 -0.3632 -0.3831 -0.4734
  159DOPC  H14X19228   1.250   1.862  15.007 -0.8788 -0.2681  0.9987
  159DOPC  H14Y19229   1.130   1.890  14.875  0.5886 -0.1881 -0.9354
  159DOPC  C31519230   1.223   2.069  14.932 -1.0140 -0.2327  0.2003
  159DOPC  H15X19231   1.330   2.073  14.903 -0.9878  3.8664  0.2919
  159DOPC  H15Y19232   1.213   2.138  15.018  3.0461  1.1992 -0.2912
  159DOPC  C31619233   1.163   2.129  14.807  0.5196 -0.3770 -0.5366
  159DOPC  H16X19234   1.195   2.084  14.711  0.4801  1.4565 -1.4570
  159DOPC  H16Y19235   1.054   2.110  14.820  0.1910 -0.5071 -3.0544
  159DOPC  C31719236   1.186   2.279  14.797  0.1261  0.1572  0.5969
  159DOPC  H17X19237   1.134   2.312  14.705 -1.1031  1.5614  1.7472
  159DOPC  H17Y19238   1.151   2.346  14.879  0.9695  2.8247 -1.0996
  159DOPC  C31819239   1.332   2.315  14.787 -0.2887 -0.0514  0.5528
  159DOPC  H18X19240   1.346   2.424  14.769 -1.8804  0.3926  1.6801
  159DOPC  H18Y19241   1.388   2.283  14.877  1.9188 -1.8822 -1.3505
  159DOPC  H18Z19242   1.381   2.260  14.705  0.5184 -0.7851  1.5045
  160DOPC     N19243   3.546   6.669  17.105  0.1662 -0.1550  0.2185
  160DOPC   C1219244   3.438   6.764  17.166  0.7864 -0.1819 -0.3460
  160DOPC  H12A19245   3.499   6.844  17.207  0.3852  0.0876 -0.2666
  160DOPC  H12B19246   3.377   6.705  17.232  0.5097 -1.0424 -1.3531
  160DOPC   C1319247   3.623   6.591  17.203 -0.3530 -1.3880  0.1724
  160DOPC  H13A19248   3.679   6.650  17.274 -2.7446  1.1994  0.0790
  160DOPC  H13B19249   3.561   6.521  17.257  1.5011 -1.2324  2.6573
  160DOPC  H13C19250   3.691   6.527  17.148  0.1923 -0.1692 -0.6149
  160DOPC   C1419251   3.641   6.756  17.023  0.0918  0.5278 -0.0617
  160DOPC  H14A19252   3.716   6.690  16.984  0.8193  0.8610  0.7497
  160DOPC  H14B19253   3.593   6.795  16.934  1.2128  1.4305 -0.2979
  160DOPC  H14C19254   3.684   6.833  17.086  1.0749  0.1689 -0.2802
  160DOPC   C1519255   3.484   6.570  17.012 -0.4956  0.4202 -0.1074
  160DOPC  H15A19256   3.425   6.625  16.940 -0.6423 -0.4830 -0.6793
  160DOPC  H15B19257   3.426   6.504  17.074  1.4708 -0.1315  1.2393
  160DOPC  H15C19258   3.549   6.503  16.959 -1.1463  0.4772 -1.0040
  160DOPC   C1119259   3.338   6.828  17.070  0.1105 -0.0989  0.3288
  160DOPC  H11A19260   3.281   6.752  17.013 -0.2191 -0.7306  1.4724
  160DOPC  H11B19261   3.265   6.876  17.139  0.4194 -0.6060  1.0200
  160DOPC     P19262   3.363   6.976  16.842  0.0429  0.5118 -0.2994
  160DOPC   O1319263   3.472   7.062  16.785 -0.1024  0.4929 -0.0237
  160DOPC   O1419264   3.228   7.037  16.841  0.3914 -0.3538  0.1376
  160DOPC   O1219265   3.398   6.936  16.994  0.4899  0.1471  0.3227
  160DOPC   O1119266   3.352   6.835  16.774  0.1612  0.5034  0.4472
  160DOPC    C119267   3.458   6.780  16.693  0.6261 -0.2459 -0.1205
  160DOPC    HA19268   3.469   6.671  16.713 -2.9208 -1.0261 -1.4733
  160DOPC    HB19269   3.557   6.827  16.706  0.4565  0.7887 -2.1666
  160DOPC    C219270   3.419   6.787  16.541  0.5496  1.0814  0.3523
  160DOPC    HS19271   3.484   6.713  16.490 -0.7329  1.6119 -2.2335
  160DOPC   O2119272   3.449   6.919  16.487  0.0095 -0.4720 -0.7635
  160DOPC   C2119273   3.576   6.930  16.456  0.1642 -0.8870 -0.8046
  160DOPC   O2219274   3.664   6.850  16.477 -0.1986 -0.0144  0.0520
  160DOPC   C2219275   3.606   7.069  16.402 -0.1055  0.7540 -0.0779
  160DOPC   H2R19276   3.667   7.121  16.478  1.6398 -3.0398  1.3607
  160DOPC   H2S19277   3.505   7.115  16.392 -1.8868 -2.4517  1.3352
  160DOPC    C319278   3.273   6.754  16.501 -0.4323  0.3499 -0.2135
  160DOPC    HX19279   3.206   6.806  16.572  0.7899  0.6127  0.7684
  160DOPC    HY19280   3.259   6.644  16.514 -2.4471  0.6211  0.0844
  160DOPC   O3119281   3.252   6.785  16.360 -0.7332 -0.8586 -0.2215
  160DOPC   C3119282   3.153   6.870  16.333  0.1394  0.2730 -0.1809
  160DOPC   O3219283   3.085   6.924  16.416 -0.0764 -0.0717 -0.5933
  160DOPC   C3219284   3.155   6.888  16.180  0.5625  0.4666  0.2479
  160DOPC   H2X19285   3.243   6.953  16.162 -0.0057  1.1215 -0.1955
  160DOPC   H2Y19286   3.162   6.784  16.141 -1.5267 -0.2515  1.6371
  160DOPC   C2319287   3.687   7.085  16.266 -0.6485 -0.1903  0.5327
  160DOPC   H3R19288   3.778   7.026  16.290 -0.2883 -0.1486 -0.6965
  160DOPC   H3S19289   3.720   7.191  16.270  1.6001 -0.8678  2.6959
  160DOPC   C2419290   3.599   7.056  16.139 -0.3750 -0.5206  0.0259
  160DOPC   H4R19291   3.612   7.146  16.076  1.5401 -0.0044  1.0792
  160DOPC   H4S19292   3.494   7.052  16.173 -0.3905  0.9404  0.2020
  160DOPC   C2519293   3.647   6.932  16.074  0.2023  0.6199  0.2470
  160DOPC   H5R19294   3.635   6.843  16.140 -0.1030 -0.2249 -0.8896
  160DOPC   H5S19295   3.752   6.935  16.040 -0.3797  0.8575 -1.6683
  160DOPC   C2619296   3.571   6.909  15.941 -0.3122  0.0281  0.2132
  160DOPC   H6R19297   3.587   7.004  15.885  1.5042  0.2593  1.0588
  160DOPC   H6S19298   3.462   6.900  15.963 -0.0353 -2.2598  0.8588
  160DOPC   C2719299   3.604   6.790  15.853 -0.2941  0.2848 -0.1119
  160DOPC   H7R19300   3.553   6.707  15.906  0.5478 -1.6366 -2.1742
  160DOPC   H7S19301   3.711   6.763  15.848 -0.5493 -0.6697 -0.4854
  160DOPC   C2819302   3.534   6.799  15.713  0.1373 -0.7818 -0.2666
  160DOPC   H8R19303   3.428   6.832  15.712  0.5648  0.7070 -1.4940
  160DOPC   H8S19304   3.536   6.693  15.680  2.7191 -0.5554 -1.0462
  160DOPC   C2919305   3.606   6.892  15.614 -0.5009 -0.1171 -0.2120
  160DOPC   H9R19306   3.589   7.000  15.627 -0.4310 -0.0596 -0.5942
  160DOPC  C21019307   3.694   6.856  15.522 -0.4372  0.0494  0.4816
  160DOPC  H10R19308   3.736   6.927  15.448 -0.4677 -0.3508  0.0761
  160DOPC  C21119309   3.746   6.716  15.491 -0.2705 -0.3629  0.3559
  160DOPC  H11R19310   3.691   6.645  15.558  0.1222 -0.8170  0.2000
  160DOPC  H11S19311   3.856   6.710  15.506 -0.3174 -0.1526  0.8071
  160DOPC  C21219312   3.717   6.673  15.341  0.5972  0.4320 -0.1980
  160DOPC  H12R19313   3.611   6.698  15.317  0.8285  3.3348  1.3434
  160DOPC  H12S19314   3.739   6.565  15.333 -0.5967  0.1972 -0.6058
  160DOPC  C21319315   3.793   6.749  15.228 -0.0382 -0.8642  0.0739
  160DOPC  H13R19316   3.767   6.856  15.220 -1.3061 -1.2495 -1.4420
  160DOPC  H13S19317   3.764   6.713  15.127  0.8042 -1.7186  0.1136
  160DOPC  C21419318   3.939   6.721  15.228 -0.5459 -0.9859 -0.2774
  160DOPC  H14R19319   3.962   6.614  15.207  1.2296 -0.7911  0.4876
  160DOPC  H14S19320   3.989   6.751  15.323  2.0672  2.6917 -2.5553
  160DOPC  C21519321   4.017   6.791  15.104  0.7961 -0.1913 -0.5949
  160DOPC  H15R19322   4.011   6.902  15.112 -0.8571 -0.0471 -2.8394
  160DOPC  H15S19323   3.946   6.768  15.022  0.1910  2.4819 -0.9045
  160DOPC  C21619324   4.160   6.751  15.082 -0.6925  0.2441 -0.5484
  160DOPC  H16R19325   4.183   6.792  14.982 -1.8204  1.9286 -0.1575
  160DOPC  H16S19326   4.163   6.640  15.075 -1.9370  0.2258 -1.0057
  160DOPC  C21719327   4.256   6.818  15.181 -0.2732  0.1089 -0.1333
  160DOPC  H17R19328   4.242   6.778  15.284 -1.1482  2.5495  0.7608
  160DOPC  H17S19329   4.227   6.925  15.178 -0.3260  0.0749 -0.7983
  160DOPC  C21819330   4.405   6.813  15.136  0.2814  0.6449  0.1468
  160DOPC  H18R19331   4.439   6.707  15.131  1.7056  1.0884 -0.2607
  160DOPC  H18S19332   4.475   6.861  15.208  2.5079 -0.9271 -0.8530
  160DOPC  H18T19333   4.419   6.865  15.039  0.2600  2.9508  1.2929
  160DOPC   C3319334   3.025   6.948  16.131  0.0209  0.1664  0.1621
  160DOPC   H3X19335   2.997   7.029  16.201 -0.8805  1.1305 -1.2617
  160DOPC   H3Y19336   2.942   6.875  16.144  1.6713 -1.9777 -0.6109
  160DOPC   C3419337   3.034   6.996  15.991 -0.4403 -0.1842  0.3550
  160DOPC   H4X19338   3.140   6.991  15.960  0.1102  0.6987  1.9297
  160DOPC   H4Y19339   3.010   7.104  15.979  1.2141  0.0825 -0.9825
  160DOPC   C3519340   2.956   6.909  15.896 -0.2671 -0.4927 -0.0417
  160DOPC   H5X19341   2.845   6.922  15.902 -0.1801 -0.3091  1.8323
  160DOPC   H5Y19342   2.973   6.804  15.927 -0.3600 -0.3672  0.4490
  160DOPC   C3619343   2.992   6.924  15.743 -0.7480 -0.1465  0.8084
  160DOPC   H6X19344   2.941   6.851  15.677  0.7397  0.9514 -1.6965
  160DOPC   H6Y19345   2.964   7.027  15.715  0.3288 -0.4422 -1.6126
  160DOPC   C3719346   3.145   6.907  15.711 -0.2441 -0.6140 -0.1227
  160DOPC   H7X19347   3.204   6.983  15.766 -0.0496  0.0632 -1.2385
  160DOPC   H7Y19348   3.162   6.802  15.742 -0.5259 -0.6642 -0.1343
  160DOPC   C3819349   3.188   6.918  15.554 -0.0082 -0.5843 -0.1893
  160DOPC   H8X19350   3.144   6.830  15.502 -2.5934  0.0896  0.7082
  160DOPC   H8Y19351   3.299   6.923  15.551  0.0537 -1.3219  0.6902
  160DOPC   C3919352   3.138   7.050  15.490 -0.1314  0.3438  0.6422
  160DOPC   H9X19353   3.033   7.080  15.501 -0.2678  0.9110 -1.7522
  160DOPC  C31019354   3.220   7.135  15.426  0.0609 -0.1612  0.4561
  160DOPC  H10X19355   3.171   7.224  15.386 -0.1682 -0.2776  0.4762
  160DOPC  C31119356   3.369   7.130  15.397 -0.4614 -0.1101  0.1617
  160DOPC  H11X19357   3.402   7.024  15.404  0.6676  0.3094  1.8183
  160DOPC  H11Y19358   3.431   7.193  15.464  0.9205  1.3171 -2.3474
  160DOPC  C31219359   3.405   7.199  15.262  0.2580  0.3400  0.0265
  160DOPC  H12X19360   3.382   7.307  15.270 -1.0129  0.0750  0.1668
  160DOPC  H12Y19361   3.330   7.151  15.196 -1.4151  2.7379  0.0753
  160DOPC  C31319362   3.542   7.160  15.205 -0.0956 -0.0858  0.2425
  160DOPC  H13X19363   3.555   7.052  15.223  1.2319 -0.2176 -1.2708
  160DOPC  H13Y19364   3.528   7.171  15.095  3.0707  0.1777 -0.2096
  160DOPC  C31419365   3.662   7.254  15.250  0.5329  0.5787  0.0993
  160DOPC  H14X19366   3.656   7.349  15.193 -1.1889 -0.0632 -0.8627
  160DOPC  H14Y19367   3.643   7.268  15.359  0.2787 -1.8819  0.4305
  160DOPC  C31519368   3.802   7.195  15.222 -0.3931  0.0289 -0.3645
  160DOPC  H15X19369   3.824   7.190  15.113 -2.0548 -0.5950 -0.6958
  160DOPC  H15Y19370   3.788   7.093  15.264 -0.5182  0.7485  1.4621
  160DOPC  C31619371   3.911   7.276  15.298  0.6625 -0.0639 -0.0746
  160DOPC  H16X19372   3.915   7.383  15.269  0.8795  0.4625  1.7765
  160DOPC  H16Y19373   3.905   7.273  15.409  0.4336  0.3649 -0.0758
  160DOPC  C31719374   4.045   7.225  15.264  0.6038 -0.2700  0.9108
  160DOPC  H17X19375   4.052   7.124  15.311 -2.0940 -1.2331 -0.5214
  160DOPC  H17Y19376   4.045   7.205  15.155 -1.1645 -0.3773  0.9049
  160DOPC  C31819377   4.156   7.315  15.310 -0.5437  0.1782  0.7469
  160DOPC  H18X19378   4.150   7.411  15.254 -2.4378  0.5163  1.4519
  160DOPC  H18Y19379   4.141   7.333  15.418 -0.7550  0.3410  0.6926
  160DOPC  H18Z19380   4.251   7.275  15.270 -2.0035 -1.5428 -1.2496
  161DOPC     N19381   5.153   7.408  16.679 -0.7907 -0.6429 -0.1190
  161DOPC   C1219382   5.104   7.550  16.712 -0.6196 -0.3173 -0.4560
  161DOPC  H12A19383   5.052   7.582  16.624  0.7670  0.0559 -1.1710
  161DOPC  H12B19384   5.194   7.610  16.719 -1.1786  0.6648 -1.4443
  161DOPC   C1319385   5.039   7.321  16.646 -0.0508  0.4220  0.0088
  161DOPC  H13A19386   5.067   7.223  16.612 -3.2206 -0.7563  0.4694
  161DOPC  H13B19387   4.989   7.310  16.741 -0.6254  1.2957 -0.1778
  161DOPC  H13C19388   4.969   7.368  16.578 -0.4101 -0.2066 -0.0572
  161DOPC   C1419389   5.231   7.351  16.797  0.4100 -0.3875  0.1842
  161DOPC  H14A19390   5.177   7.375  16.887  3.3147  1.2523  1.6610
  161DOPC  H14B19391   5.246   7.244  16.788  0.0741 -0.4256  0.0596
  161DOPC  H14C19392   5.325   7.401  16.815 -0.2051  1.2257 -0.8466
  161DOPC   C1519393   5.242   7.421  16.558  0.0604 -0.2041  0.0364
  161DOPC  H15A19394   5.268   7.330  16.507 -2.3223 -0.6438 -0.4845
  161DOPC  H15B19395   5.336   7.470  16.582  0.4607 -1.2274  0.6374
  161DOPC  H15C19396   5.187   7.474  16.482 -1.7223  1.0134  2.0811
  161DOPC   C1119397   5.018   7.574  16.837  0.2036  0.0256 -0.2590
  161DOPC  H11A19398   5.071   7.537  16.927 -1.3372  1.6102  1.3937
  161DOPC  H11B19399   5.020   7.682  16.865 -0.6194  0.0407 -0.2238
  161DOPC     P19400   4.753   7.566  16.758 -0.4796  0.5067 -0.4138
  161DOPC   O1319401   4.722   7.705  16.798 -0.2172 -0.0011  0.5799
  161DOPC   O1419402   4.644   7.476  16.782 -0.2109  0.2048  0.3362
  161DOPC   O1219403   4.887   7.516  16.842  0.3233 -0.1421 -0.0557
  161DOPC   O1119404   4.800   7.556  16.615  0.1027 -0.1631  0.8090
  161DOPC    C119405   4.813   7.666  16.518 -0.1045  0.1825  0.5621
  161DOPC    HA19406   4.846   7.629  16.419 -1.8542  0.9811 -0.3657
  161DOPC    HB19407   4.898   7.731  16.548 -1.2787  1.4902  1.1802
  161DOPC    C219408   4.685   7.743  16.475  0.9547 -0.2658  0.3702
  161DOPC    HS19409   4.634   7.776  16.568  1.1010 -1.9176  1.0856
  161DOPC   O2119410   4.602   7.661  16.392  0.3107 -0.4545  0.2352
  161DOPC   C2119411   4.474   7.696  16.402  0.1686  0.1771  1.1824
  161DOPC   O2219412   4.426   7.790  16.460 -0.3049 -0.1237 -0.7065
  161DOPC   C2219413   4.395   7.614  16.291  0.0662 -0.8535 -1.0417
  161DOPC   H2R19414   4.286   7.631  16.306  0.3172  0.4792 -0.5835
  161DOPC   H2S19415   4.412   7.506  16.310 -0.9362 -0.6685  1.2998
  161DOPC    C319416   4.716   7.875  16.405  0.7499 -0.3250  0.3826
  161DOPC    HX19417   4.771   7.940  16.476 -1.7519  0.6536  1.5337
  161DOPC    HY19418   4.623   7.934  16.393  0.3448 -1.3293 -2.0033
  161DOPC   O3119419   4.775   7.861  16.271  0.9046 -0.1223  0.8529
  161DOPC   C3119420   4.899   7.852  16.255  0.0697 -0.1622  0.1843
  161DOPC   O3219421   4.982   7.856  16.345 -0.4571  0.2960  0.0812
  161DOPC   C3219422   4.928   7.866  16.104 -0.5115 -0.1538  0.5611
  161DOPC   H2X19423   4.877   7.784  16.049  1.2238 -0.9844  0.1305
  161DOPC   H2Y19424   4.879   7.962  16.075  0.0639  0.1051  0.4350
  161DOPC   C2319425   4.443   7.646  16.151  0.6403  0.1410  0.4840
  161DOPC   H3R19426   4.380   7.586  16.083  1.0173  0.2736  0.0125
  161DOPC   H3S19427   4.545   7.619  16.115 -0.4650  0.3314 -3.2076
  161DOPC   C2419428   4.435   7.791  16.131  0.6134  0.6374  0.0735
  161DOPC   H4R19429   4.513   7.846  16.188  1.5674 -0.6720  0.0689
  161DOPC   H4S19430   4.338   7.831  16.168  0.3426 -0.9622  1.2137
  161DOPC   C2519431   4.469   7.834  15.980  0.0632  0.3922 -0.4634
  161DOPC   H5R19432   4.414   7.757  15.922 -2.0174  0.6131  1.0731
  161DOPC   H5S19433   4.578   7.818  15.972  0.0345 -0.9263  1.2847
  161DOPC   C2619434   4.418   7.973  15.937 -0.0335 -0.2180  0.2960
  161DOPC   H6R19435   4.499   8.049  15.938 -0.2878  0.0531  0.3398
  161DOPC   H6S19436   4.327   8.005  15.992 -0.4412 -0.1726 -0.3893
  161DOPC   C2719437   4.366   7.978  15.786 -0.8115  0.3276  0.0359
  161DOPC   H7R19438   4.286   7.901  15.775 -1.8255  1.5105 -1.2651
  161DOPC   H7S19439   4.449   7.944  15.721 -2.5937 -1.1485 -1.5895
  161DOPC   C2819440   4.311   8.118  15.737 -0.8707 -0.4192 -0.7137
  161DOPC   H8R19441   4.404   8.177  15.755 -0.8013 -1.1914  1.9577
  161DOPC   H8S19442   4.233   8.158  15.805  0.8076 -0.0444  1.0804
  161DOPC   C2919443   4.269   8.123  15.594  0.1995  0.1341 -0.0322
  161DOPC   H9R19444   4.209   8.033  15.570  1.4601 -0.4151 -1.2614
  161DOPC  C21019445   4.329   8.191  15.497 -0.3785  0.7280 -0.0727
  161DOPC  H10R19446   4.282   8.187  15.397 -1.7994  2.2297  0.5008
  161DOPC  C21119447   4.441   8.290  15.501  0.3960  0.8562  0.4561
  161DOPC  H11R19448   4.499   8.262  15.591 -2.4656  0.3875  2.2992
  161DOPC  H11S19449   4.399   8.392  15.520  0.7470  0.4855  4.0011
  161DOPC  C21219450   4.528   8.281  15.378  0.5817  0.3117  0.1562
  161DOPC  H12R19451   4.464   8.295  15.288  1.1764 -0.7775 -0.4684
  161DOPC  H12S19452   4.581   8.184  15.371 -0.8808 -0.6709  1.9835
  161DOPC  C21319453   4.623   8.397  15.372 -0.0339  0.0541  0.3355
  161DOPC  H13R19454   4.706   8.396  15.445 -0.0813  1.2149  0.4256
  161DOPC  H13S19455   4.568   8.491  15.395 -0.5293 -0.3640  0.9309
  161DOPC  C21419456   4.677   8.418  15.230  0.3047  0.5373 -0.1030
  161DOPC  H14R19457   4.594   8.454  15.166  0.7132 -0.6696 -1.3421
  161DOPC  H14S19458   4.720   8.330  15.178  0.9010  0.3678  0.6534
  161DOPC  C21519459   4.798   8.517  15.226  0.2194 -0.1065  0.1355
  161DOPC  H15R19460   4.880   8.484  15.293  0.1207 -1.1147 -0.2329
  161DOPC  H15S19461   4.764   8.622  15.242 -3.8344 -0.7999 -2.5286
  161DOPC  C21619462   4.868   8.512  15.091  0.3873 -0.4566  0.0579
  161DOPC  H16R19463   4.798   8.556  15.017 -0.1649 -0.8829  0.3198
  161DOPC  H16S19464   4.888   8.408  15.060  1.3601 -0.0573 -0.7018
  161DOPC  C21719465   5.006   8.589  15.077 -0.0579  0.2321  0.6249
  161DOPC  H17R19466   5.079   8.536  15.143  0.0049 -0.5792 -0.0762
  161DOPC  H17S19467   4.987   8.693  15.111 -3.2601 -0.0635  0.0428
  161DOPC  C21819468   5.066   8.601  14.943  0.1199  0.0492 -0.3777
  161DOPC  H18R19469   4.982   8.630  14.876 -0.3325  1.7359  0.8524
  161DOPC  H18S19470   5.111   8.504  14.911  0.5334 -0.8358  2.5460
  161DOPC  H18T19471   5.154   8.669  14.949  0.6204 -0.6672  0.7830
  161DOPC   C3319472   5.084   7.864  16.072  0.5129 -0.6800 -0.0220
  161DOPC   H3X19473   5.129   7.763  16.061  0.4719 -0.7238  0.2094
  161DOPC   H3Y19474   5.139   7.930  16.142 -0.9173  1.3403 -0.7155
  161DOPC   C3419475   5.101   7.941  15.942 -0.4459  0.2763  0.7182
  161DOPC   H4X19476   5.059   8.043  15.955 -1.0697  0.4451 -2.0012
  161DOPC   H4Y19477   5.049   7.900  15.853  2.1194 -1.1771 -0.2270
  161DOPC   C3519478   5.257   7.937  15.908 -0.3133 -0.0911 -0.2389
  161DOPC   H5X19479   5.296   7.835  15.892  1.7053  0.8868 -2.2533
  161DOPC   H5Y19480   5.308   7.993  15.990  0.6532  0.9545 -1.5010
  161DOPC   C3619481   5.287   8.020  15.779  0.1585  0.0631  0.4449
  161DOPC   H6X19482   5.250   7.970  15.687 -1.7748  2.1770 -0.0230
  161DOPC   H6Y19483   5.222   8.109  15.793 -0.9310 -0.8045  1.1166
  161DOPC   C3719484   5.436   8.060  15.765  0.0945 -0.5820  0.0067
  161DOPC   H7X19485   5.479   8.090  15.863  0.4581 -0.8732 -0.0598
  161DOPC   H7Y19486   5.486   7.969  15.725 -0.1945  0.5642 -3.2657
  161DOPC   C3819487   5.463   8.179  15.672  0.0560  0.3075 -0.9676
  161DOPC   H8X19488   5.562   8.217  15.705 -0.8151  1.9857 -0.1360
  161DOPC   H8Y19489   5.393   8.262  15.697 -0.1076 -0.3506  0.8889
  161DOPC   C3919490   5.476   8.148  15.529  0.1457  0.8247 -0.7006
  161DOPC   H9X19491   5.574   8.105  15.503 -0.8510 -1.9409 -0.1572
  161DOPC  C31019492   5.385   8.155  15.432 -0.4272 -0.0220  0.7863
  161DOPC  H10X19493   5.413   8.139  15.327 -0.4707  0.8752  0.6310
  161DOPC  C31119494   5.243   8.201  15.448 -0.8653 -0.0433 -0.4110
  161DOPC  H11X19495   5.244   8.268  15.537 -0.8504 -0.0803 -0.3830
  161DOPC  H11Y19496   5.170   8.121  15.475 -3.0782  2.2289  0.7628
  161DOPC  C31219497   5.180   8.281  15.336 -0.3026  0.0856  0.2751
  161DOPC  H12X19498   5.243   8.369  15.311 -2.0865  0.3677 -4.0911
  161DOPC  H12Y19499   5.077   8.315  15.359  0.0184  0.2819  1.5525
  161DOPC  C31319500   5.177   8.213  15.194  0.4009  0.3318  0.6464
  161DOPC  H13X19501   5.148   8.291  15.120 -0.5216 -0.1162  0.5293
  161DOPC  H13Y19502   5.276   8.175  15.160  0.0329  1.6414 -2.2088
  161DOPC  C31419503   5.070   8.105  15.190 -0.0504  0.3761  0.0393
  161DOPC  H14X19504   5.102   8.017  15.249 -0.0235  0.9261  0.8617
  161DOPC  H14Y19505   4.976   8.152  15.227 -1.7459 -1.4121 -1.7867
  161DOPC  C31519506   5.043   8.054  15.045  0.0331 -0.4930 -0.1602
  161DOPC  H15X19507   5.138   8.050  14.988  1.2637  1.2883  1.6514
  161DOPC  H15Y19508   4.982   8.134  14.997 -1.5085 -2.1033 -1.0161
  161DOPC  C31619509   4.962   7.926  15.043 -0.3954 -0.3838 -0.6343
  161DOPC  H16X19510   4.882   7.929  15.119  0.7044  2.0294  0.5387
  161DOPC  H16Y19511   4.915   7.906  14.944  1.1549  1.5157 -1.8365
  161DOPC  C31719512   5.047   7.797  15.070 -0.5719 -0.2920 -0.2074
  161DOPC  H17X19513   5.128   7.802  14.994  0.3788  0.9443  0.8482
  161DOPC  H17Y19514   5.100   7.808  15.167  0.9197  1.4833 -1.1435
  161DOPC  C31819515   4.964   7.675  15.070  0.6304 -0.1687  0.3502
  161DOPC  H18X19516   4.885   7.681  15.148  0.0057  0.2581 -0.3061
  161DOPC  H18Y19517   4.913   7.669  14.972 -0.8008  0.8497  0.9949
  161DOPC  H18Z19518   5.027   7.584  15.068  1.4782  0.4094 -0.4909
  162DOPC     N19519   2.986   6.175  17.279  0.3972 -0.5357 -0.4232
  162DOPC   C1219520   2.947   6.090  17.160 -0.0561 -0.0455 -0.0492
  162DOPC  H12A19521   2.860   6.033  17.190 -0.4298  0.5540  0.0343
  162DOPC  H12B19522   3.019   6.012  17.142  0.3312  0.2888  0.0561
  162DOPC   C1319523   2.864   6.250  17.318 -0.3387  0.0599 -0.1517
  162DOPC  H13A19524   2.825   6.296  17.229  0.3946 -1.3798 -1.2512
  162DOPC  H13B19525   2.787   6.182  17.350  0.4193 -0.0129  1.6845
  162DOPC  H13C19526   2.878   6.317  17.402 -0.6124  2.5261 -1.9644
  162DOPC   C1419527   3.085   6.275  17.244  0.1468 -0.0789  0.0521
  162DOPC  H14A19528   3.110   6.347  17.320  1.1111 -0.9864  0.6326
  162DOPC  H14B19529   3.177   6.231  17.210  0.3397  0.3258  0.0492
  162DOPC  H14C19530   3.027   6.329  17.172 -2.3601 -0.7306  1.4581
  162DOPC   C1519531   3.028   6.088  17.388 -0.4027 -0.3397  0.0951
  162DOPC  H15A19532   3.056   6.148  17.474 -1.8599  0.4624  0.0432
  162DOPC  H15B19533   3.115   6.028  17.365 -1.0472 -0.3121 -2.7670
  162DOPC  H15C19534   2.950   6.031  17.438 -1.0312  2.7273  2.9820
  162DOPC   C1119535   2.907   6.148  17.019  0.1750  0.0684 -0.3103
  162DOPC  H11A19536   3.001   6.183  16.971 -0.5932  2.5493 -0.1670
  162DOPC  H11B19537   2.867   6.072  16.949 -0.1739  1.8963 -2.2134
  162DOPC     P19538   2.670   6.267  17.006  0.0782  0.3363  0.4406
  162DOPC   O1319539   2.613   6.381  17.078  0.1713  0.2408  0.0694
  162DOPC   O1419540   2.609   6.131  17.018 -0.5726 -0.3689  0.5258
  162DOPC   O1219541   2.817   6.247  17.049 -0.0807  0.4395  0.3656
  162DOPC   O1119542   2.667   6.306  16.857 -0.3784 -0.5253 -0.1858
  162DOPC    C119543   2.789   6.335  16.787  0.4625 -0.6648 -0.1153
  162DOPC    HA19544   2.859   6.250  16.771  1.0121  0.0777 -1.8290
  162DOPC    HB19545   2.843   6.423  16.829 -0.1545  0.2790 -1.2557
  162DOPC    C219546   2.745   6.371  16.645 -0.2409  0.0543  0.0334
  162DOPC    HS19547   2.674   6.455  16.661  0.3212  0.1905  2.0459
  162DOPC   O2119548   2.681   6.254  16.586 -0.0997 -0.0951  0.0342
  162DOPC   C2119549   2.571   6.285  16.510 -0.4601 -0.3372  0.8670
  162DOPC   O2219550   2.538   6.394  16.476  0.4311 -0.1930  0.7867
  162DOPC   C2219551   2.502   6.156  16.468  0.1219  0.5498 -0.8083
  162DOPC   H2R19552   2.447   6.119  16.558  0.6493  0.8093 -0.3736
  162DOPC   H2S19553   2.585   6.089  16.439  1.5639  1.9087 -0.0097
  162DOPC    C319554   2.861   6.407  16.558 -0.4073  0.0048  0.2589
  162DOPC    HX19555   2.903   6.305  16.541 -0.6410  0.0111 -0.4084
  162DOPC    HY19556   2.929   6.474  16.614 -0.8518 -0.1710  1.0244
  162DOPC   O3119557   2.810   6.460  16.439  0.1810  0.2388  0.3050
  162DOPC   C3119558   2.760   6.586  16.459 -1.1527 -0.0802  0.6282
  162DOPC   O3219559   2.762   6.644  16.566 -0.2584 -0.4972 -0.2407
  162DOPC   C3219560   2.692   6.630  16.336 -0.3579  0.0755 -0.4779
  162DOPC   H2X19561   2.582   6.623  16.349 -0.3454 -1.4951 -1.0525
  162DOPC   H2Y19562   2.726   6.733  16.309  1.5591 -1.0261 -2.5740
  162DOPC   C2319563   2.389   6.182  16.363 -0.1664  0.1533  0.4901
  162DOPC   H3R19564   2.324   6.271  16.377  0.9508  1.1125 -0.1929
  162DOPC   H3S19565   2.319   6.096  16.372 -0.1996  0.1568  0.2887
  162DOPC   C2419566   2.429   6.170  16.215 -0.8616  0.3491  0.2337
  162DOPC   H4R19567   2.508   6.093  16.203 -1.5626 -0.0777 -2.1915
  162DOPC   H4S19568   2.474   6.268  16.186 -0.4006  0.3703  0.9973
  162DOPC   C2519569   2.324   6.135  16.107  0.5778  0.5424  0.0174
  162DOPC   H5R19570   2.275   6.042  16.142  1.7774 -0.3655 -0.6558
  162DOPC   H5S19571   2.365   6.119  16.006  1.0768  1.9135 -0.0123
  162DOPC   C2619572   2.227   6.249  16.105  0.0105 -0.3766  0.3575
  162DOPC   H6R19573   2.280   6.339  16.067  1.9321 -1.8356 -0.6006
  162DOPC   H6S19574   2.195   6.271  16.209 -2.0682  0.6385 -0.4640
  162DOPC   C2719575   2.096   6.228  16.022  0.3569  0.5885  0.1964
  162DOPC   H7R19576   2.042   6.137  16.054  0.4095 -0.2175 -1.8724
  162DOPC   H7S19577   2.122   6.200  15.918  1.4050  2.2258 -0.0303
  162DOPC   C2819578   2.006   6.354  16.015  0.3044 -0.6971  0.1749
  162DOPC   H8R19579   1.952   6.346  15.919  0.0497 -0.8298  0.3297
  162DOPC   H8S19580   2.065   6.449  16.009 -0.2465 -0.3373  0.3884
  162DOPC   C2919581   1.911   6.363  16.133 -0.2281 -0.0731  0.6081
  162DOPC   H9R19582   1.942   6.446  16.198 -1.1546  0.6367  0.1750
  162DOPC  C21019583   1.802   6.287  16.148  0.1584 -0.5769 -0.2499
  162DOPC  H10R19584   1.729   6.299  16.229  1.2932 -0.4899  0.7890
  162DOPC  C21119585   1.752   6.192  16.041 -0.6238  0.1781  0.3673
  162DOPC  H11R19586   1.795   6.091  16.057  0.1828  0.8224  2.5801
  162DOPC  H11S19587   1.792   6.232  15.945  0.2138 -0.0888  0.5964
  162DOPC  C21219588   1.600   6.200  16.037  0.6470 -0.7642  0.1055
  162DOPC  H12R19589   1.558   6.172  16.136  0.0189  2.0319  0.7107
  162DOPC  H12S19590   1.567   6.118  15.970  0.8418 -1.1264  0.4524
  162DOPC  C21319591   1.555   6.339  15.994 -0.0584 -0.3251 -0.4959
  162DOPC  H13R19592   1.586   6.359  15.889  1.4075  0.0270 -0.0124
  162DOPC  H13S19593   1.615   6.416  16.046 -0.7346 -0.4167  0.4359
  162DOPC  C21419594   1.398   6.368  16.000  0.1788  0.7995  0.0533
  162DOPC  H14R19595   1.361   6.332  16.099 -1.7847 -2.1547 -1.5744
  162DOPC  H14S19596   1.357   6.300  15.921  0.9795  1.0971 -0.6280
  162DOPC  C21519597   1.358   6.507  15.971  0.2461 -0.5557  0.2667
  162DOPC  H15R19598   1.372   6.530  15.863 -1.5750  0.0348  0.1250
  162DOPC  H15S19599   1.399   6.579  16.045 -0.2032 -0.0172 -0.0047
  162DOPC  C21619600   1.204   6.516  15.985  0.7771  0.4611  0.6197
  162DOPC  H16R19601   1.186   6.622  15.956  0.7542  0.1704 -0.4819
  162DOPC  H16S19602   1.177   6.498  16.091 -0.2393 -0.7695  0.1691
  162DOPC  C21719603   1.118   6.415  15.902 -0.1554 -0.0359  0.0134
  162DOPC  H17R19604   1.141   6.311  15.934  0.4975 -0.2355 -1.0613
  162DOPC  H17S19605   1.143   6.421  15.794  2.5182 -0.1272  0.5552
  162DOPC  C21819606   0.967   6.438  15.908  0.3989  0.0001  0.0143
  162DOPC  H18R19607   0.948   6.542  15.872  1.8355  0.7887  1.4236
  162DOPC  H18S19608   0.932   6.427  16.013 -1.6010  0.7906 -0.5186
  162DOPC  H18T19609   0.922   6.354  15.851  0.8820 -1.2051  1.3602
  162DOPC   C3319610   2.717   6.530  16.212  0.1481  0.0658  0.6404
  162DOPC   H3X19611   2.692   6.424  16.234 -0.5648  0.0904 -0.0268
  162DOPC   H3Y19612   2.823   6.540  16.181 -0.1223 -1.7700 -1.1263
  162DOPC   C3419613   2.628   6.570  16.094  0.5434  0.5682 -0.2615
  162DOPC   H4X19614   2.635   6.681  16.095  1.0855  0.5474 -1.0304
  162DOPC   H4Y19615   2.521   6.558  16.121  0.2114  0.7681 -1.4645
  162DOPC   C3519616   2.667   6.514  15.962  0.2910  0.2740  0.0856
  162DOPC   H5X19617   2.683   6.405  15.975 -1.2288  0.2962  2.7379
  162DOPC   H5Y19618   2.771   6.551  15.948  0.5319 -0.5659 -0.4135
  162DOPC   C3619619   2.581   6.560  15.840 -0.3576 -0.0077  0.1169
  162DOPC   H6X19620   2.482   6.510  15.843  0.0638 -1.0703 -1.8737
  162DOPC   H6Y19621   2.559   6.666  15.868 -2.2253  0.1479 -1.7251
  162DOPC   C3719622   2.654   6.563  15.712  0.4793  0.3803 -0.2131
  162DOPC   H7X19623   2.586   6.616  15.642 -1.7076 -0.5425  1.1263
  162DOPC   H7Y19624   2.752   6.615  15.724 -0.0267  1.3551 -0.2280
  162DOPC   C3819625   2.685   6.416  15.658 -0.6298  0.5112 -0.0187
  162DOPC   H8X19626   2.591   6.378  15.612 -0.7083 -0.4714  0.9295
  162DOPC   H8Y19627   2.697   6.362  15.754 -1.7828 -1.6825 -1.0209
  162DOPC   C3919628   2.804   6.419  15.559 -1.0057 -0.0123 -1.3448
  162DOPC   H9X19629   2.791   6.450  15.455  1.5038  0.6326 -1.5246
  162DOPC  C31019630   2.930   6.368  15.587 -0.2807  0.0273 -0.5036
  162DOPC  H10X19631   3.008   6.380  15.511 -0.3137  1.2118 -0.3762
  162DOPC  C31119632   2.980   6.299  15.718 -0.0214 -0.3173  0.2810
  162DOPC  H11X19633   3.019   6.200  15.687 -1.2879 -0.9194  0.5611
  162DOPC  H11Y19634   2.887   6.283  15.776 -0.5840 -1.9178 -1.0031
  162DOPC  C31219635   3.085   6.386  15.788 -0.6166 -0.3343 -0.6236
  162DOPC  H12X19636   3.052   6.491  15.779 -0.0459  0.2081  2.4430
  162DOPC  H12Y19637   3.185   6.364  15.744 -0.5170  0.3991 -0.7735
  162DOPC  C31319638   3.082   6.363  15.940  0.5233  0.0723 -0.7707
  162DOPC  H13X19639   2.981   6.331  15.973  1.2953 -2.0457 -0.3265
  162DOPC  H13Y19640   3.144   6.276  15.972  0.7196  0.5975  0.3606
  162DOPC  C31419641   3.109   6.478  16.042  0.1104 -0.6616 -0.0441
  162DOPC  H14X19642   3.212   6.517  16.028 -0.6782  1.8858  0.7262
  162DOPC  H14Y19643   3.039   6.563  16.025  1.3629  0.4125 -0.0038
  162DOPC  C31519644   3.092   6.434  16.186 -0.2270 -0.3958 -0.5155
  162DOPC  H15X19645   2.987   6.405  16.210  0.3008 -0.5952  1.7914
  162DOPC  H15Y19646   3.115   6.520  16.252 -0.5206 -1.5572  1.1732
  162DOPC  C31619647   3.189   6.320  16.228  0.0887  0.1164  0.0456
  162DOPC  H16X19648   3.156   6.223  16.184  1.6519 -0.2453 -0.4219
  162DOPC  H16Y19649   3.288   6.347  16.185 -0.3305 -0.1823 -1.1528
  162DOPC  C31719650   3.217   6.307  16.382  0.9318 -0.0892 -0.2665
  162DOPC  H17X19651   3.255   6.404  16.421 -1.1832  1.7576 -2.4548
  162DOPC  H17Y19652   3.115   6.294  16.423  0.0586 -0.7416 -2.4914
  162DOPC  C31819653   3.298   6.193  16.428  0.2448 -0.4950 -0.3355
  162DOPC  H18X19654   3.261   6.099  16.381 -3.2229  2.1104 -3.3804
  162DOPC  H18Y19655   3.406   6.205  16.403  0.3222 -1.2649 -0.4070
  162DOPC  H18Z19656   3.300   6.188  16.539 -0.6851  2.4432 -0.1129
  163DOPC     N19657   2.411   2.916  17.293 -0.3169 -0.4308  0.3007
  163DOPC   C1219658   2.497   2.803  17.242 -0.1622 -0.0652  0.5597
  163DOPC  H12A19659   2.557   2.778  17.329  0.2784 -0.1125  0.2416
  163DOPC  H12B19660   2.563   2.843  17.167  0.3149 -0.6917  0.6314
  163DOPC   C1319661   2.331   2.878  17.410  0.0498  0.1210  0.2457
  163DOPC  H13A19662   2.395   2.856  17.494  0.8829  1.9886  0.1621
  163DOPC  H13B19663   2.268   2.956  17.451  1.7471  0.0337  3.3542
  163DOPC  H13C19664   2.265   2.795  17.390 -1.9102  2.3046 -3.5020
  163DOPC   C1419665   2.314   2.972  17.186 -0.6612  0.8028  0.8993
  163DOPC  H14A19666   2.257   3.058  17.215 -0.4490  1.2188  0.1236
  163DOPC  H14B19667   2.379   2.992  17.102 -1.1553 -2.6359 -0.5123
  163DOPC  H14C19668   2.245   2.895  17.153  1.2022 -1.3620  1.8066
  163DOPC   C1519669   2.499   3.028  17.327 -0.1768 -0.4579  0.5610
  163DOPC  H15A19670   2.564   2.992  17.405  0.8438 -0.8760 -0.4601
  163DOPC  H15B19671   2.452   3.117  17.366  2.2413 -0.7099  4.4639
  163DOPC  H15C19672   2.567   3.056  17.248 -0.7745 -1.4217 -0.3199
  163DOPC   C1119673   2.426   2.676  17.191  0.2168  0.7842  0.1757
  163DOPC  H11A19674   2.504   2.601  17.165 -1.2726 -1.1415  0.9836
  163DOPC  H11B19675   2.376   2.623  17.275 -0.3684  0.1538 -0.5489
  163DOPC     P19676   2.365   2.700  16.932  0.2208  0.1827 -0.0380
  163DOPC   O1319677   2.420   2.566  16.912 -0.0546  0.2353 -0.3059
  163DOPC   O1419678   2.449   2.817  16.899  0.3960  0.1963  0.1812
  163DOPC   O1219679   2.324   2.697  17.084 -0.0678 -0.2355 -0.5359
  163DOPC   O1119680   2.225   2.716  16.858  0.2993 -0.1144  0.3408
  163DOPC    C119681   2.144   2.605  16.828 -0.0069 -0.1672 -0.6059
  163DOPC    HA19682   2.039   2.638  16.812  0.3028  0.0445 -2.4024
  163DOPC    HB19683   2.144   2.535  16.914 -1.9294  0.4175 -0.0716
  163DOPC    C219684   2.180   2.541  16.690 -0.2623 -0.2423 -0.5160
  163DOPC    HS19685   2.286   2.507  16.688 -0.4690 -1.0272  0.8484
  163DOPC   O2119686   2.167   2.646  16.593 -0.3115 -0.3587  0.5821
  163DOPC   C2119687   2.265   2.662  16.503 -0.4698  0.0093 -0.7970
  163DOPC   O2219688   2.356   2.584  16.486 -0.0039 -0.1208  0.3097
  163DOPC   C2219689   2.241   2.787  16.422  0.6814 -0.1318  0.0735
  163DOPC   H2R19690   2.337   2.839  16.407  1.4135 -0.5773  2.7066
  163DOPC   H2S19691   2.164   2.851  16.470  1.7416  1.5654 -0.4280
  163DOPC    C319692   2.104   2.417  16.663  0.1147 -0.0205  0.2251
  163DOPC    HX19693   1.995   2.439  16.666  0.0836 -0.2237  1.9314
  163DOPC    HY19694   2.112   2.328  16.730  0.7229  0.1471  0.3831
  163DOPC   O3119695   2.133   2.371  16.529  0.4464  0.3053  0.0483
  163DOPC   C3119696   2.241   2.299  16.519  0.2568 -0.0008  1.0071
  163DOPC   O3219697   2.318   2.265  16.605 -0.1054 -0.1697 -0.7360
  163DOPC   C3219698   2.259   2.260  16.373 -0.0499 -0.2721 -0.2471
  163DOPC   H2X19699   2.368   2.264  16.353  0.4443  0.5052  2.2771
  163DOPC   H2Y19700   2.223   2.156  16.357  1.7545 -0.5060 -3.9674
  163DOPC   C2319701   2.191   2.739  16.283  0.5947  0.1971 -0.4948
  163DOPC   H3R19702   2.098   2.679  16.290 -0.9105  2.3691 -0.6366
  163DOPC   H3S19703   2.264   2.665  16.244 -0.6019 -1.4180  0.2103
  163DOPC   C2419704   2.176   2.852  16.180 -0.4927 -0.2220  0.3821
  163DOPC   H4R19705   2.258   2.926  16.194 -0.1359 -0.6390  0.5270
  163DOPC   H4S19706   2.081   2.904  16.203  0.8878  2.9632 -0.6192
  163DOPC   C2519707   2.163   2.808  16.034  0.2152 -0.6482 -0.0615
  163DOPC   H5R19708   2.075   2.741  16.022  0.3785 -0.7738 -0.5779
  163DOPC   H5S19709   2.255   2.751  16.006  0.2449 -0.6303 -0.0007
  163DOPC   C2619710   2.153   2.930  15.946  0.3128 -0.1376 -0.0806
  163DOPC   H6R19711   2.241   2.994  15.970  1.1053 -0.6417 -1.4910
  163DOPC   H6S19712   2.063   2.987  15.974  0.3979 -1.2832  2.8279
  163DOPC   C2719713   2.146   2.911  15.797 -0.7049 -0.3496  0.0821
  163DOPC   H7R19714   2.251   2.898  15.761 -0.5163  2.0731 -0.4077
  163DOPC   H7S19715   2.136   3.015  15.761 -0.2476  0.2568  1.6232
  163DOPC   C2819716   2.043   2.819  15.751  0.5102  0.2198 -0.2472
  163DOPC   H8R19717   1.948   2.852  15.798  1.4502 -0.3637  2.1946
  163DOPC   H8S19718   2.075   2.718  15.785  0.1943 -0.0611 -0.7760
  163DOPC   C2919719   2.028   2.820  15.600  0.0217  0.0997 -0.3230
  163DOPC   H9R19720   2.039   2.918  15.552  0.9249  0.6234  0.9037
  163DOPC  C21019721   1.997   2.712  15.531  0.5639 -0.1496  0.1708
  163DOPC  H10R19722   1.988   2.715  15.421 -1.9459  4.2232  0.2738
  163DOPC  C21119723   1.974   2.570  15.588  0.1992 -0.0355 -0.1061
  163DOPC  H11R19724   1.909   2.574  15.678  0.8620 -0.7610  0.4151
  163DOPC  H11S19725   2.070   2.521  15.612  0.5964  0.1770 -1.1958
  163DOPC  C21219726   1.918   2.469  15.482  0.3769  0.2517  0.5279
  163DOPC  H12R19727   1.818   2.510  15.457  0.0817  0.0456  1.3332
  163DOPC  H12S19728   1.900   2.370  15.529 -2.1343  1.2710  1.8552
  163DOPC  C21319729   2.002   2.441  15.355  0.1995  0.0507 -0.0660
  163DOPC  H13R19730   1.998   2.531  15.291 -1.0073  0.3776  0.4403
  163DOPC  H13S19731   1.951   2.360  15.300  1.1943 -0.3710 -0.3866
  163DOPC  C21419732   2.144   2.391  15.383  0.1061 -0.2420 -0.0215
  163DOPC  H14R19733   2.147   2.313  15.463 -0.3191 -0.4870 -0.2361
  163DOPC  H14S19734   2.212   2.466  15.429 -1.6724  1.4584 -0.0442
  163DOPC  C21519735   2.215   2.349  15.253  0.1624 -0.3035 -0.2138
  163DOPC  H15R19736   2.203   2.430  15.179  1.2623 -0.9974 -1.1742
  163DOPC  H15S19737   2.167   2.263  15.202  0.7313 -0.9128  0.2641
  163DOPC  C21619738   2.358   2.328  15.273 -0.2501  0.2838 -0.1408
  163DOPC  H16R19739   2.396   2.399  15.350  0.4510  0.9260 -1.0653
  163DOPC  H16S19740   2.415   2.351  15.181  1.0879 -0.8919  0.3540
  163DOPC  C21719741   2.398   2.187  15.323  0.4699 -0.2721 -0.3880
  163DOPC  H17R19742   2.376   2.111  15.244  0.6327  1.0760 -1.7927
  163DOPC  H17S19743   2.328   2.168  15.406  0.2891  0.9664 -0.2330
  163DOPC  C21819744   2.546   2.176  15.347 -0.5999 -0.5583 -0.6132
  163DOPC  H18R19745   2.576   2.215  15.446 -1.4386 -1.1428 -0.1162
  163DOPC  H18S19746   2.616   2.213  15.270  2.0539 -1.4985  1.1864
  163DOPC  H18T19747   2.575   2.069  15.358 -1.6699 -0.8303 -0.3236
  163DOPC   C3319748   2.184   2.354  16.267  0.4565  0.5828  0.1444
  163DOPC   H3X19749   2.187   2.458  16.306  1.5768  1.4602 -2.0760
  163DOPC   H3Y19750   2.077   2.324  16.261  0.4296  0.4760  1.0821
  163DOPC   C3419751   2.258   2.358  16.128 -0.2402 -0.0433  0.0465
  163DOPC   H4X19752   2.299   2.258  16.102  0.0936 -0.6516  2.6352
  163DOPC   H4Y19753   2.350   2.419  16.138  1.2935 -1.9566 -1.6164
  163DOPC   C3519754   2.157   2.417  16.030  0.3009 -0.1649 -0.1532
  163DOPC   H5X19755   2.086   2.496  16.063  1.1888  0.8462 -0.5712
  163DOPC   H5Y19756   2.102   2.323  16.007  0.1419  0.0017 -0.4587
  163DOPC   C3619757   2.215   2.475  15.898 -0.8699 -0.2606 -0.0994
  163DOPC   H6X19758   2.130   2.511  15.837  0.7921  1.1655 -1.7050
  163DOPC   H6Y19759   2.286   2.555  15.930 -0.8019 -0.1131 -0.6182
  163DOPC   C3719760   2.296   2.367  15.828  0.5553 -0.7218 -0.2316
  163DOPC   H7X19761   2.362   2.307  15.894 -0.1801 -0.4841  0.7292
  163DOPC   H7Y19762   2.226   2.291  15.785  0.7306  0.9774 -3.9404
  163DOPC   C3819763   2.374   2.429  15.707  0.0039 -0.2964 -0.3967
  163DOPC   H8X19764   2.296   2.474  15.642 -1.7742 -1.7290  0.6206
  163DOPC   H8Y19765   2.417   2.343  15.651 -0.9034  0.4661 -2.3629
  163DOPC   C3919766   2.484   2.527  15.751 -0.0925  0.1058  0.1031
  163DOPC   H9X19767   2.452   2.631  15.734 -0.2560 -0.0499 -0.5773
  163DOPC  C31019768   2.605   2.500  15.789 -0.4577 -0.0854  0.2951
  163DOPC  H10X19769   2.662   2.578  15.841  0.0242  0.0022 -0.3510
  163DOPC  C31119770   2.668   2.362  15.810  0.8452 -0.1189  0.2407
  163DOPC  H11X19771   2.772   2.362  15.772  0.7379  1.6807 -0.1561
  163DOPC  H11Y19772   2.606   2.286  15.758 -0.8159  0.8776  0.6754
  163DOPC  C31219773   2.660   2.307  15.955 -0.7198  0.0969  0.1093
  163DOPC  H12X19774   2.555   2.287  15.985 -0.9963  0.1438 -0.7851
  163DOPC  H12Y19775   2.698   2.380  16.030 -0.7930  0.5094 -0.2469
  163DOPC  C31319776   2.758   2.193  15.961  0.3474  0.0957 -0.2851
  163DOPC  H13X19777   2.720   2.129  15.879  1.3905 -2.0161  0.7815
  163DOPC  H13Y19778   2.862   2.223  15.935  0.7322 -1.2361 -0.3782
  163DOPC  C31419779   2.767   2.119  16.094 -0.6991 -0.9273  0.4374
  163DOPC  H14X19780   2.857   2.054  16.092 -1.0605 -1.4784  1.4674
  163DOPC  H14Y19781   2.783   2.190  16.178 -0.7239  1.4737 -1.4538
  163DOPC  C31519782   2.646   2.033  16.112 -0.3030  0.2647  0.0669
  163DOPC  H15X19783   2.623   1.982  16.016  0.7327 -0.2834  0.1067
  163DOPC  H15Y19784   2.556   2.094  16.139 -0.0181 -0.1783  2.1970
  163DOPC  C31619785   2.663   1.926  16.226 -0.3804 -0.0617  0.8728
  163DOPC  H16X19786   2.761   1.875  16.215  0.9837  2.7722 -1.7601
  163DOPC  H16Y19787   2.675   1.986  16.319 -1.2636 -0.0887  1.0066
  163DOPC  C31719788   2.543   1.827  16.244  0.0424  0.0248  0.4270
  163DOPC  H17X19789   2.516   1.791  16.143 -3.0711  1.1197  0.7632
  163DOPC  H17Y19790   2.583   1.737  16.297  1.6762  0.2321 -0.4072
  163DOPC  C31819791   2.424   1.893  16.311  0.2410 -0.0129  0.3499
  163DOPC  H18X19792   2.463   1.956  16.394  0.3797 -1.9658  1.8614
  163DOPC  H18Y19793   2.380   1.965  16.239  0.8228 -0.3376 -0.3351
  163DOPC  H18Z19794   2.337   1.831  16.341 -0.5455 -1.1978 -3.8030
  164DOPC     N19795   2.314   1.403  17.184 -0.3676  0.4068 -0.1578
  164DOPC   C1219796   2.463   1.398  17.150  0.0267  0.7499 -0.0611
  164DOPC  H12A19797   2.491   1.294  17.162  0.8238  1.0580  0.9742
  164DOPC  H12B19798   2.528   1.443  17.223  0.2270  0.8211 -0.2831
  164DOPC   C1319799   2.270   1.542  17.218 -0.3975 -0.2789  0.3701
  164DOPC  H13A19800   2.173   1.549  17.264  0.1613 -1.1520  1.7520
  164DOPC  H13B19801   2.339   1.589  17.286  0.2160  1.3528 -1.2849
  164DOPC  H13C19802   2.265   1.604  17.129 -0.1572  1.4030  1.4960
  164DOPC   C1419803   2.289   1.320  17.307  0.1187 -0.1027 -0.2463
  164DOPC  H14A19804   2.302   1.214  17.292 -2.1575 -0.2017 -1.8972
  164DOPC  H14B19805   2.364   1.344  17.381  1.8667 -0.7610 -1.7140
  164DOPC  H14C19806   2.190   1.336  17.347  0.8243  2.1322  0.8096
  164DOPC   C1519807   2.226   1.344  17.076 -0.1199 -0.3239  0.4568
  164DOPC  H15A19808   2.123   1.372  17.090 -0.1110  0.2659 -0.5463
  164DOPC  H15B19809   2.247   1.238  17.068  0.8573 -0.0807 -0.4344
  164DOPC  H15C19810   2.266   1.386  16.985  0.5748 -0.7654  0.5459
  164DOPC   C1119811   2.514   1.451  17.005 -0.5144  0.3658 -0.5308
  164DOPC  H11A19812   2.478   1.555  17.012 -0.3184  0.3516  1.2108
  164DOPC  H11B19813   2.625   1.454  16.997 -0.6800  1.7728 -3.3768
  164DOPC     P19814   2.518   1.239  16.859 -0.5167 -0.2562 -0.2904
  164DOPC   O1319815   2.473   1.140  16.961  0.4157  0.1884 -0.3184
  164DOPC   O1419816   2.667   1.252  16.839  0.8699  0.2125 -0.7156
  164DOPC   O1219817   2.455   1.378  16.893 -0.2296 -0.2922 -0.1687
  164DOPC   O1119818   2.456   1.218  16.712 -0.2156  0.1019 -0.3800
  164DOPC    C119819   2.514   1.286  16.606  0.1126 -0.4439  0.0504
  164DOPC    HA19820   2.624   1.274  16.604  0.5064  2.0614  1.9137
  164DOPC    HB19821   2.501   1.395  16.620  0.7208 -0.5617  1.6584
  164DOPC    C219822   2.462   1.234  16.467 -0.5502  0.5368  0.2236
  164DOPC    HS19823   2.523   1.276  16.385 -1.8557  0.3357 -0.8847
  164DOPC   O2119824   2.318   1.256  16.454 -0.8980 -0.6222  0.5559
  164DOPC   C2119825   2.295   1.376  16.406  0.5382 -0.2105  0.2211
  164DOPC   O2219826   2.380   1.450  16.361 -0.3391  0.0469 -0.1254
  164DOPC   C2219827   2.145   1.409  16.423  0.6032 -0.1966  0.3787
  164DOPC   H2R19828   2.141   1.519  16.416 -1.2703 -0.0914  2.2707
  164DOPC   H2S19829   2.093   1.378  16.516  0.9391 -0.8604  0.3540
  164DOPC    C319830   2.485   1.083  16.458 -0.2754 -0.5555  0.5545
  164DOPC    HX19831   2.420   1.035  16.535 -1.3762  0.7277  0.4711
  164DOPC    HY19832   2.589   1.052  16.482 -0.3556 -3.1574 -1.9558
  164DOPC   O3119833   2.464   1.051  16.318 -0.1146 -0.3889  0.3126
  164DOPC   C3119834   2.349   0.989  16.295 -0.3375  0.5530 -0.4032
  164DOPC   O3219835   2.264   0.955  16.375 -0.2944 -0.5621 -0.1801
  164DOPC   C3219836   2.338   0.965  16.141  0.0733  0.0362 -0.5502
  164DOPC   H2X19837   2.330   1.061  16.085  1.2424 -0.6151 -1.8797
  164DOPC   H2Y19838   2.431   0.909  16.118  1.3619  1.5379  0.7901
  164DOPC   C2319839   2.064   1.337  16.315  0.2751 -0.2868  0.9134
  164DOPC   H3R19840   1.955   1.359  16.313  0.6184  1.7451  1.9437
  164DOPC   H3S19841   2.079   1.229  16.333  2.9000  0.1275  1.7377
  164DOPC   C2419842   2.125   1.360  16.169 -0.2126  0.6386  0.3899
  164DOPC   H4R19843   2.067   1.298  16.097  0.8412  1.0167 -0.8458
  164DOPC   H4S19844   2.232   1.329  16.176 -0.3678 -0.2899 -0.8593
  164DOPC   C2519845   2.115   1.503  16.109  0.4094  0.0189 -0.1865
  164DOPC   H5R19846   2.192   1.572  16.148  1.3697 -1.0011 -0.2150
  164DOPC   H5S19847   2.013   1.537  16.135 -0.8931 -1.4091 -2.9557
  164DOPC   C2619848   2.112   1.507  15.955  0.0006 -0.4188  0.1153
  164DOPC   H6R19849   2.088   1.611  15.926 -0.4922  0.1556  2.3442
  164DOPC   H6S19850   2.039   1.436  15.912 -1.0250 -1.2700  3.0323
  164DOPC   C2719851   2.246   1.472  15.890 -0.9017  0.1429  0.2961
  164DOPC   H7R19852   2.272   1.365  15.909 -1.6815  0.1057  1.1965
  164DOPC   H7S19853   2.324   1.535  15.938 -0.6473 -1.5621  2.3254
  164DOPC   C2819854   2.236   1.491  15.742  0.0530 -0.3458 -0.2051
  164DOPC   H8R19855   2.215   1.599  15.722  0.3663 -0.0537  0.9731
  164DOPC   H8S19856   2.153   1.425  15.708  0.1007  0.0753 -1.1780
  164DOPC   C2919857   2.367   1.450  15.683 -0.0187 -0.0553  0.0475
  164DOPC   H9R19858   2.462   1.503  15.702  0.4930 -0.1895 -1.8982
  164DOPC  C21019859   2.383   1.358  15.586 -0.4548  0.3824  0.0230
  164DOPC  H10R19860   2.484   1.350  15.543 -0.3124 -0.6139  0.5005
  164DOPC  C21119861   2.279   1.277  15.518  0.2656 -0.1656 -0.7688
  164DOPC  H11R19862   2.185   1.300  15.573  0.4446 -1.2736  0.0287
  164DOPC  H11S19863   2.294   1.174  15.558 -0.4127  0.9828  2.8099
  164DOPC  C21219864   2.265   1.288  15.366  0.4792  0.4758 -0.4443
  164DOPC  H12R19865   2.240   1.393  15.339 -1.2712  0.0639 -0.5329
  164DOPC  H12S19866   2.172   1.232  15.342 -0.0375  0.4439  1.5006
  164DOPC  C21319867   2.374   1.228  15.280 -0.5195  0.0218 -0.2766
  164DOPC  H13R19868   2.378   1.118  15.297  1.8143  0.2653  1.2270
  164DOPC  H13S19869   2.472   1.274  15.304 -0.0723 -1.4478  0.8415
  164DOPC  C21419870   2.338   1.253  15.134 -0.7337 -0.2715 -0.5385
  164DOPC  H14R19871   2.319   1.360  15.113  1.1398  0.0249 -0.9338
  164DOPC  H14S19872   2.249   1.188  15.120 -0.9068 -0.4138  1.0115
  164DOPC  C21519873   2.453   1.202  15.039  0.1809  0.4192  0.2469
  164DOPC  H15R19874   2.549   1.249  15.070  1.3508  0.2561 -2.7969
  164DOPC  H15S19875   2.422   1.253  14.945  0.2534 -2.6988 -1.6151
  164DOPC  C21619876   2.451   1.054  15.008 -0.4527  0.4047  0.3431
  164DOPC  H16R19877   2.353   1.025  14.965 -0.7726 -0.6716  1.6925
  164DOPC  H16S19878   2.458   1.003  15.107  1.7325  1.3816  0.7521
  164DOPC  C21719879   2.555   0.991  14.913 -0.3685  0.0148 -0.2364
  164DOPC  H17R19880   2.657   1.021  14.944 -0.8433  2.8182 -1.0785
  164DOPC  H17S19881   2.555   1.028  14.808  1.3501 -1.2200 -0.7073
  164DOPC  C21819882   2.543   0.836  14.906 -0.1926  0.4129 -0.6033
  164DOPC  H18R19883   2.581   0.788  14.999 -0.2697 -1.7025 -1.6079
  164DOPC  H18S19884   2.612   0.803  14.826 -0.2184 -0.7363 -0.1744
  164DOPC  H18T19885   2.436   0.817  14.883 -1.1868  4.3069  0.0574
  164DOPC   C3319886   2.215   0.875  16.112  0.4439 -0.7477 -0.0998
  164DOPC   H3X19887   2.120   0.912  16.155 -0.1156 -3.7267  1.4268
  164DOPC   H3Y19888   2.226   0.778  16.164 -0.2043 -0.7154  0.1090
  164DOPC   C3419889   2.184   0.849  15.962  0.1144 -0.0959 -0.3738
  164DOPC   H4X19890   2.153   0.945  15.916  0.1128  1.0216  1.8213
  164DOPC   H4Y19891   2.102   0.774  15.956  1.8531 -2.5850  3.3922
  164DOPC   C3519892   2.306   0.788  15.897 -0.7897  0.3779  0.1254
  164DOPC   H5X19893   2.346   0.707  15.962 -2.4851 -0.3373  0.3341
  164DOPC   H5Y19894   2.384   0.867  15.897 -0.2134 -0.1010  2.7980
  164DOPC   C3619895   2.284   0.736  15.758  0.2855  0.1011  0.4445
  164DOPC   H6X19896   2.208   0.658  15.738 -1.2980  1.5685  0.4443
  164DOPC   H6Y19897   2.249   0.828  15.705  0.1772 -0.3374 -0.2628
  164DOPC   C3719898   2.415   0.687  15.698  0.1910  0.4674 -0.0339
  164DOPC   H7X19899   2.487   0.763  15.735 -0.7186  2.2788 -1.7720
  164DOPC   H7Y19900   2.441   0.588  15.741 -3.0771  0.4127  2.1625
  164DOPC   C3819901   2.414   0.689  15.540 -0.3425  0.3751 -0.2665
  164DOPC   H8X19902   2.362   0.781  15.508  1.1145  0.8117 -1.5198
  164DOPC   H8Y19903   2.361   0.603  15.494  0.5690  0.0048 -0.6710
  164DOPC   C3919904   2.557   0.694  15.480 -0.4035 -0.4498 -0.4175
  164DOPC   H9X19905   2.603   0.595  15.465 -2.1276 -1.1886 -1.0466
  164DOPC  C31019906   2.620   0.798  15.432  0.3101  0.1947 -0.7238
  164DOPC  H10X19907   2.723   0.783  15.394  0.1820  1.4731 -1.6390
  164DOPC  C31119908   2.573   0.946  15.422 -0.6011  0.5394 -0.6202
  164DOPC  H11X19909   2.465   0.964  15.442 -0.7272 -1.4405  0.8316
  164DOPC  H11Y19910   2.595   0.992  15.324 -0.2731  0.1637 -0.7261
  164DOPC  C31219911   2.666   1.037  15.516  0.0299 -0.1967  0.4366
  164DOPC  H12X19912   2.642   1.145  15.502  0.6290 -0.1603 -0.3564
  164DOPC  H12Y19913   2.773   1.026  15.489 -0.3217  0.7870 -1.5322
  164DOPC  C31319914   2.629   1.004  15.664 -0.0640 -0.1392  0.2641
  164DOPC  H13X19915   2.522   0.976  15.673  0.2633 -0.9050  2.1582
  164DOPC  H13Y19916   2.696   0.921  15.698  1.1863  0.7241 -0.0145
  164DOPC  C31419917   2.651   1.128  15.750  0.7450  0.1948  0.1833
  164DOPC  H14X19918   2.593   1.216  15.714  0.7697  0.2903  0.3750
  164DOPC  H14Y19919   2.757   1.158  15.767  1.2080 -1.7002  0.9579
  164DOPC  C31519920   2.603   1.098  15.889 -0.4346  0.0382 -0.3912
  164DOPC  H15X19921   2.645   1.000  15.920 -0.3642  0.2374  0.1702
  164DOPC  H15Y19922   2.494   1.078  15.891 -0.5831  0.6035 -1.6595
  164DOPC  C31619923   2.641   1.207  15.995 -0.3504 -0.3184 -0.0182
  164DOPC  H16X19924   2.576   1.199  16.084 -0.0351  0.8055  0.3389
  164DOPC  H16Y19925   2.747   1.184  16.020  0.3542  0.3338 -2.1544
  164DOPC  C31719926   2.623   1.353  15.955 -0.0512  0.1899  0.5513
  164DOPC  H17X19927   2.714   1.379  15.896  0.1218 -0.2505  0.6269
  164DOPC  H17Y19928   2.535   1.360  15.888  1.3501  1.1016 -1.2920
  164DOPC  C31819929   2.609   1.439  16.082 -0.8003  0.2677  0.3497
  164DOPC  H18X19930   2.698   1.435  16.149 -0.4369  1.6636 -0.0109
  164DOPC  H18Y19931   2.578   1.542  16.053 -0.7132  0.2670  0.2516
  164DOPC  H18Z19932   2.525   1.408  16.147 -1.3312  1.8002  0.4397
  165DOPC     N19933   6.930   0.053  17.021  0.0200 -0.6338  0.1066
  165DOPC   C1219934   6.937  -0.005  16.881  0.8169  0.9945 -0.4625
  165DOPC  H12A19935   6.884  -0.099  16.884  1.4759  0.6217 -0.2473
  165DOPC  H12B19936   7.042  -0.029  16.867  1.2790  1.0894  2.2789
  165DOPC   C1319937   6.990  -0.034  17.119 -0.7476 -0.3998 -0.8868
  165DOPC  H13A19938   7.088  -0.066  17.089 -0.2641  1.0496 -0.9496
  165DOPC  H13B19939   6.982   0.007  17.219  0.5933 -3.5288  0.6208
  165DOPC  H13C19940   6.929  -0.123  17.117  0.1128 -1.0829  1.0733
  165DOPC   C1419941   6.783   0.076  17.053  0.8795 -0.1050  0.3882
  165DOPC  H14A19942   6.771   0.153  17.128 -0.1971  0.1574 -0.0337
  165DOPC  H14B19943   6.737   0.107  16.961 -2.0600 -1.7953  1.1520
  165DOPC  H14C19944   6.727  -0.007  17.095 -0.3312  0.8885  0.7860
  165DOPC   C1519945   7.004   0.188  17.005  0.4847  0.6125  0.0077
  165DOPC  H15A19946   7.005   0.234  17.102  1.2783 -2.0763  1.3813
  165DOPC  H15B19947   6.950   0.248  16.933 -1.0451 -0.5955  0.0769
  165DOPC  H15C19948   7.107   0.170  16.979  0.1703 -4.1637  1.0994
  165DOPC   C1119949   6.885   0.076  16.756  0.2273 -0.6088  0.1608
  165DOPC  H11A19950   6.960   0.156  16.739 -1.5477  1.2825  0.8748
  165DOPC  H11B19951   6.881   0.012  16.665 -0.5706  1.8515 -1.6279
  165DOPC     P19952   6.718   0.286  16.752 -0.0150  0.3097  0.1117
  165DOPC   O1319953   6.799   0.369  16.849 -0.0422 -0.0025 -0.1391
  165DOPC   O1419954   6.570   0.287  16.759 -0.9740 -0.3545 -0.3868
  165DOPC   O1219955   6.752   0.127  16.778 -0.5422  0.2910  0.4693
  165DOPC   O1119956   6.770   0.320  16.613  0.8407 -0.0287  0.2697
  165DOPC    C119957   6.747   0.243  16.486 -0.3878  0.6013 -0.2326
  165DOPC    HA19958   6.650   0.280  16.447  0.8679  1.3974 -2.7844
  165DOPC    HB19959   6.737   0.134  16.505 -2.3252  0.9833  1.2529
  165DOPC    C219960   6.854   0.272  16.376  1.1749 -0.1197 -0.4510
  165DOPC    HS19961   6.952   0.260  16.428  0.9491 -4.1824 -0.6671
  165DOPC   O2119962   6.831   0.410  16.337 -0.4550 -0.3257 -0.9214
  165DOPC   C2119963   6.938   0.478  16.315  0.1518 -0.5272 -1.0432
  165DOPC   O2219964   7.060   0.448  16.325 -0.1495  0.5516 -0.2785
  165DOPC   C2219965   6.892   0.627  16.296  0.0053  0.2629  0.0039
  165DOPC   H2R19966   6.981   0.693  16.305  0.9271 -0.7633 -1.2587
  165DOPC   H2S19967   6.818   0.643  16.378 -1.0747  0.9310 -1.0745
  165DOPC    C319968   6.848   0.179  16.252 -0.2723 -0.1033  0.1845
  165DOPC    HX19969   6.748   0.182  16.205  0.5197 -1.0447 -1.6393
  165DOPC    HY19970   6.857   0.073  16.284 -1.6266 -0.1169  0.5878
  165DOPC   O3119971   6.951   0.220  16.161  0.4245 -0.0933 -0.6194
  165DOPC   C3119972   7.067   0.178  16.194 -0.6496  0.7218  0.7050
  165DOPC   O3219973   7.099   0.098  16.286  0.1723 -0.0432  0.9178
  165DOPC   C3219974   7.164   0.229  16.084 -0.1175 -0.2104 -0.0522
  165DOPC   H2X19975   7.138   0.172  15.992  0.3727  0.1712 -0.4260
  165DOPC   H2Y19976   7.145   0.337  16.066 -0.4353 -0.1476  0.5836
  165DOPC   C2319977   6.836   0.658  16.156 -0.4967 -0.7595 -0.5335
  165DOPC   H3R19978   6.799   0.763  16.159 -0.1417 -0.6433  1.6281
  165DOPC   H3S19979   6.749   0.593  16.130 -0.8876  0.1411 -1.5358
  165DOPC   C2419980   6.936   0.649  16.035  0.5666  1.2361  0.0358
  165DOPC   H4R19981   6.958   0.540  16.039  0.9882  1.3671  1.5740
  165DOPC   H4S19982   7.020   0.715  16.063  0.9906  0.6719  0.1052
  165DOPC   C2519983   6.890   0.682  15.893  0.1850 -0.4569 -0.1902
  165DOPC   H5R19984   6.833   0.772  15.924  0.0428 -0.1936 -1.2015
  165DOPC   H5S19985   6.820   0.602  15.859 -0.8657 -0.1833  1.2369
  165DOPC   C2619986   6.986   0.704  15.780 -0.5262  0.3460 -0.5302
  165DOPC   H6R19987   7.062   0.622  15.783 -0.3774  0.4962  0.9954
  165DOPC   H6S19988   7.036   0.799  15.808 -0.5213  0.7162 -1.7405
  165DOPC   C2719989   6.921   0.695  15.650 -0.1549  0.3873 -0.1387
  165DOPC   H7R19990   6.850   0.779  15.657  1.5895  1.8319  1.3007
  165DOPC   H7S19991   6.870   0.598  15.632 -0.8079  0.1497  2.5835
  165DOPC   C2819992   7.004   0.726  15.527  0.4913 -0.4503 -0.4092
  165DOPC   H8R19993   7.031   0.834  15.527 -0.3263 -0.2324 -0.9829
  165DOPC   H8S19994   6.943   0.705  15.436 -1.7464 -0.5722  1.0413
  165DOPC   C2919995   7.127   0.641  15.520  0.5196 -0.0284 -0.3492
  165DOPC   H9R19996   7.103   0.537  15.496 -0.8424  0.6107 -1.9818
  165DOPC  C21019997   7.254   0.687  15.514  0.0536  0.4770 -0.3612
  165DOPC  H10R19998   7.338   0.617  15.511  1.9238  2.5492  0.6036
  165DOPC  C21119999   7.300   0.828  15.517 -0.0605 -0.0147 -0.3767
  165DOPC  H11R20000   7.209   0.885  15.486 -2.1140 -2.9834 -0.2467
  165DOPC  H11S20001   7.366   0.867  15.437  0.3589  2.9465  1.2609
  165DOPC  C21220002   7.334   0.878  15.662  0.6721 -0.4096 -0.5347
  165DOPC  H12R20003   7.416   0.822  15.713 -1.2378 -1.2529  1.7718
  165DOPC  H12S20004   7.243   0.869  15.725 -0.2062 -0.6703 -1.8171
  165DOPC  C21320005   7.374   1.026  15.668 -0.0759 -0.8395 -0.2312
  165DOPC  H13R20006   7.390   1.057  15.774 -0.0903 -0.2988 -0.3847
  165DOPC  H13S20007   7.287   1.086  15.636 -0.6510 -1.0557  0.8701
  165DOPC  C21420008   7.508   1.063  15.595 -0.7173  0.1947  0.1137
  165DOPC  H14R20009   7.492   1.031  15.490  1.5967  0.1129 -0.2582
  165DOPC  H14S20010   7.586   0.990  15.627  0.1881  0.8160 -0.6394
  165DOPC  C21520011   7.561   1.205  15.622 -0.0015 -0.0006 -0.2231
  165DOPC  H15R20012   7.527   1.231  15.725 -2.2605  0.6507 -1.0638
  165DOPC  H15S20013   7.501   1.270  15.554 -0.9253 -1.6678 -1.0725
  165DOPC  C21620014   7.709   1.222  15.603  0.3708  0.1641 -0.2227
  165DOPC  H16R20015   7.742   1.165  15.513 -2.2664 -3.1159  0.7097
  165DOPC  H16S20016   7.764   1.180  15.690 -1.1783  0.4872  0.9429
  165DOPC  C21720017   7.740   1.364  15.567  0.2294 -0.3108  1.1097
  165DOPC  H17R20018   7.840   1.382  15.612  0.6637 -0.5035  0.2484
  165DOPC  H17S20019   7.667   1.430  15.619 -0.7255  0.3347 -0.9591
  165DOPC  C21820020   7.746   1.403  15.418 -0.3045  0.5114  0.5203
  165DOPC  H18R20021   7.765   1.511  15.403 -0.4577  0.1856 -2.7406
  165DOPC  H18S20022   7.649   1.375  15.372 -0.9630  1.1338  1.5045
  165DOPC  H18T20023   7.829   1.347  15.369 -0.9719 -0.0546  0.0053
  165DOPC   C3320024   7.307   0.195  16.122 -0.3195 -0.3049 -0.0069
  165DOPC   H3X20025   7.325   0.093  16.162  0.5673  0.5222  1.8260
  165DOPC   H3Y20026   7.331   0.249  16.216 -0.4057 -2.1684  1.1380
  165DOPC   C3420027   7.416   0.229  16.017 -0.1854  0.1622 -0.4592
  165DOPC   H4X20028   7.415   0.337  15.988  0.1057  0.0768 -0.7899
  165DOPC   H4Y20029   7.402   0.159  15.933 -0.7325  0.3050 -0.4920
  165DOPC   C3520030   7.567   0.210  16.062 -0.3766 -0.1737  0.6612
  165DOPC   H5X20031   7.630   0.223  15.971 -0.4264  0.2109  0.6816
  165DOPC   H5Y20032   7.583   0.110  16.107 -0.1663 -0.8100 -0.7789
  165DOPC   C3620033   7.606   0.312  16.163  0.3291 -0.5705  0.1396
  165DOPC   H6X20034   7.580   0.411  16.120 -2.0796 -1.0770  0.3023
  165DOPC   H6Y20035   7.546   0.288  16.253 -0.4203 -1.2360 -0.5173
  165DOPC   C3720036   7.755   0.320  16.193  0.5543 -0.6595  0.2056
  165DOPC   H7X20037   7.806   0.358  16.102 -0.2908 -0.2918 -0.1333
  165DOPC   H7Y20038   7.788   0.216  16.214 -0.0249 -0.4499  2.3874
  165DOPC   C3820039   7.798   0.414  16.316  0.4149  0.0531  0.5825
  165DOPC   H8X20040   7.899   0.387  16.355  0.6510 -2.1714 -1.3489
  165DOPC   H8Y20041   7.724   0.390  16.395  1.2311  2.6369  2.2636
  165DOPC   C3920042   7.798   0.565  16.294 -0.6414 -0.6843 -0.2650
  165DOPC   H9X20043   7.701   0.616  16.307  0.0144  1.0868 -1.7913
  165DOPC  C31020044   7.906   0.638  16.266  0.1883 -0.7175 -0.4306
  165DOPC  H10X20045   7.884   0.746  16.270 -0.2221 -0.8171  0.3045
  165DOPC  C31120046   8.045   0.601  16.240  0.1009  0.4802 -0.2603
  165DOPC  H11X20047   8.050   0.494  16.208 -0.7589  0.5967 -0.8084
  165DOPC  H11Y20048   8.103   0.611  16.334 -0.0711  1.6319 -0.2631
  165DOPC  C31220049   8.119   0.684  16.129  0.0543  0.0108 -0.0433
  165DOPC  H12X20050   8.103   0.792  16.149  0.0097  0.3014 -1.5031
  165DOPC  H12Y20051   8.060   0.654  16.040 -1.7642 -0.4986  1.2733
  165DOPC  C31320052   8.268   0.645  16.129  0.4651  0.1809 -0.5508
  165DOPC  H13X20053   8.312   0.687  16.222 -1.7468  1.2918  0.0637
  165DOPC  H13Y20054   8.274   0.535  16.125  0.4473  0.1962 -1.0369
  165DOPC  C31420055   8.337   0.694  16.009  0.0234 -0.1425 -0.0243
  165DOPC  H14X20056   8.285   0.788  15.980  0.0439  0.2407  1.1239
  165DOPC  H14Y20057   8.445   0.714  16.027 -0.1550  0.8758 -0.0233
  165DOPC  C31520058   8.324   0.609  15.884  0.3728  0.4092 -0.1983
  165DOPC  H15X20059   8.217   0.611  15.854  0.8615 -2.5940 -2.6053
  165DOPC  H15Y20060   8.353   0.505  15.908 -0.0219  1.0477  3.5493
  165DOPC  C31620061   8.415   0.652  15.768  0.2891 -0.9515  0.1552
  165DOPC  H16X20062   8.519   0.664  15.808  0.5277  0.1932 -0.7707
  165DOPC  H16Y20063   8.404   0.564  15.702 -1.9750 -0.2051 -0.5458
  165DOPC  C31720064   8.373   0.775  15.685 -0.3235  1.1224 -0.3539
  165DOPC  H17X20065   8.273   0.736  15.655  1.5826 -2.2230 -2.9981
  165DOPC  H17Y20066   8.366   0.867  15.747 -1.0926  0.9062 -0.1047
  165DOPC  C31820067   8.468   0.804  15.567  0.4574 -0.0713  0.4232
  165DOPC  H18X20068   8.569   0.829  15.606  0.0691 -0.7450  1.9731
  165DOPC  H18Y20069   8.475   0.710  15.507  0.3656 -0.0343  0.3541
  165DOPC  H18Z20070   8.430   0.887  15.504 -1.0913 -1.6889 -0.8890
  166DOPC     N20071   1.089   2.722  17.237 -0.0972 -0.1115  0.3557
  166DOPC   C1220072   1.225   2.794  17.238  0.3275 -0.2210  0.9887
  166DOPC  H12A20073   1.240   2.847  17.332 -0.2388 -0.4113  1.1901
  166DOPC  H12B20074   1.228   2.874  17.165 -0.0043  1.5725  2.8155
  166DOPC   C1320075   0.976   2.816  17.260 -0.8584 -0.0886 -0.9087
  166DOPC  H13A20076   0.962   2.894  17.187  0.8690  1.4697  0.3399
  166DOPC  H13B20077   0.892   2.748  17.263  0.5873 -1.9729  2.3184
  166DOPC  H13C20078   0.976   2.870  17.353  0.4401  0.1785 -1.0460
  166DOPC   C1420079   1.076   2.624  17.345  0.5296 -0.1560  0.2024
  166DOPC  H14A20080   0.974   2.593  17.361  0.0537  1.8557  1.3408
  166DOPC  H14B20081   1.151   2.553  17.312  1.1761  0.4443  0.3679
  166DOPC  H14C20082   1.105   2.677  17.434  0.1595  3.5306 -1.6891
  166DOPC   C1520083   1.070   2.654  17.102  0.1895  0.2782 -0.1096
  166DOPC  H15A20084   0.976   2.604  17.088  0.1884  0.2038  0.1494
  166DOPC  H15B20085   1.141   2.573  17.098  0.9482  0.9680 -1.3884
  166DOPC  H15C20086   1.081   2.717  17.015 -2.5342 -0.8960 -1.4119
  166DOPC   C1120087   1.359   2.710  17.232  0.5682  0.5048  0.0500
  166DOPC  H11A20088   1.442   2.782  17.246  1.1611  0.4017 -2.5057
  166DOPC  H11B20089   1.361   2.650  17.325  1.6300  0.7396  0.1943
  166DOPC     P20090   1.465   2.677  16.999 -0.0933 -0.1459 -0.3854
  166DOPC   O1320091   1.463   2.572  16.895  0.3078  0.2651 -0.0496
  166DOPC   O1420092   1.603   2.696  17.054 -0.1209  0.3658 -0.2228
  166DOPC   O1220093   1.365   2.634  17.113 -0.4895 -0.3249  0.5874
  166DOPC   O1120094   1.406   2.814  16.945  0.5852 -0.2732  0.2962
  166DOPC    C120095   1.295   2.813  16.853 -0.6372 -0.2225  0.8544
  166DOPC    HA20096   1.214   2.875  16.895 -0.0081  2.0461 -1.0403
  166DOPC    HB20097   1.244   2.715  16.841 -1.1883  0.2834 -1.7228
  166DOPC    C220098   1.324   2.874  16.717 -0.5406  0.2313 -0.6983
  166DOPC    HS20099   1.231   2.880  16.657 -1.8804  1.9134  1.4000
  166DOPC   O2120100   1.430   2.799  16.644 -0.0432  0.0091  0.3899
  166DOPC   C2120101   1.389   2.689  16.591  0.4304  0.4025  0.2935
  166DOPC   O2220102   1.274   2.636  16.605 -0.2200 -0.2114  0.1394
  166DOPC   C2220103   1.487   2.622  16.493  0.1722 -0.5332  0.1940
  166DOPC   H2R20104   1.506   2.523  16.540 -0.7900  0.1277  2.0980
  166DOPC   H2S20105   1.585   2.674  16.496 -0.2497  0.3156 -0.2041
  166DOPC    C320106   1.367   3.025  16.729  0.0095  0.2512 -1.1117
  166DOPC    HX20107   1.455   3.031  16.797  0.5157 -1.4524 -1.5559
  166DOPC    HY20108   1.287   3.086  16.774  2.4530  1.1353  2.4746
  166DOPC   O3120109   1.423   3.088  16.610 -0.4714  0.5865 -0.2603
  166DOPC   C3120110   1.331   3.116  16.519 -0.7888  0.3565  0.4755
  166DOPC   O3220111   1.214   3.090  16.528  0.0187  0.2429 -0.3680
  166DOPC   C3220112   1.389   3.196  16.404 -0.4502 -0.4671  0.1145
  166DOPC   H2X20113   1.458   3.274  16.443 -2.4914  0.4514  2.1273
  166DOPC   H2Y20114   1.448   3.123  16.344 -0.0720 -0.8295  0.9049
  166DOPC   C2320115   1.425   2.613  16.353 -0.7037 -0.6150 -0.0789
  166DOPC   H3R20116   1.340   2.542  16.350 -2.1264  1.0458 -0.2473
  166DOPC   H3S20117   1.503   2.570  16.287  1.2412  1.3801  0.8008
  166DOPC   C2420118   1.380   2.747  16.297  0.2987 -0.6922 -0.1805
  166DOPC   H4R20119   1.459   2.823  16.314 -0.9440  0.4504  0.6996
  166DOPC   H4S20120   1.296   2.776  16.365 -0.3846 -1.6676 -0.5870
  166DOPC   C2520121   1.322   2.731  16.157 -0.0075  0.1509  0.1155
  166DOPC   H5R20122   1.263   2.637  16.146  0.8940 -0.4840  0.5513
  166DOPC   H5S20123   1.413   2.715  16.096 -1.7505  0.2790 -2.6839
  166DOPC   C2620124   1.244   2.846  16.101 -0.1899  0.1338 -0.4940
  166DOPC   H6R20125   1.302   2.940  16.104  0.9542 -0.5001 -1.7522
  166DOPC   H6S20126   1.158   2.873  16.166 -0.2166  0.9713 -0.8605
  166DOPC   C2720127   1.217   2.818  15.956 -0.2642 -0.0166 -0.3598
  166DOPC   H7R20128   1.152   2.728  15.952  0.1688 -0.5409  2.2141
  166DOPC   H7S20129   1.316   2.788  15.914 -0.7316 -2.1549 -0.0902
  166DOPC   C2820130   1.156   2.940  15.881 -0.0270  0.1195  0.4003
  166DOPC   H8R20131   1.220   3.030  15.890 -2.3741  2.0178 -0.7298
  166DOPC   H8S20132   1.065   2.957  15.942  0.8920  0.4681  1.7286
  166DOPC   C2920133   1.130   2.898  15.737  0.1282 -1.0630  0.6040
  166DOPC   H9R20134   1.032   2.854  15.715 -1.2779  0.5127  3.1437
  166DOPC  C21020135   1.213   2.907  15.631 -0.6789 -0.0203  0.4678
  166DOPC  H10R20136   1.184   2.874  15.531 -0.3394 -1.1155  0.7155
  166DOPC  C21120137   1.353   2.965  15.645 -0.2824 -0.0874 -0.6999
  166DOPC  H11R20138   1.393   2.958  15.749  0.9217  2.0275 -0.9648
  166DOPC  H11S20139   1.354   3.073  15.622 -0.0989  0.3405  1.1550
  166DOPC  C21220140   1.456   2.896  15.556 -0.1241  0.3217  0.1120
  166DOPC  H12R20141   1.460   2.786  15.576  0.3876  0.5605  1.4922
  166DOPC  H12S20142   1.559   2.928  15.583 -0.1250  0.2264  0.2334
  166DOPC  C21320143   1.442   2.915  15.402 -0.3053  0.4754 -0.6155
  166DOPC  H13R20144   1.436   3.023  15.375  0.3490  0.0826 -2.4626
  166DOPC  H13S20145   1.350   2.866  15.363  2.2684 -3.0139 -2.8260
  166DOPC  C21420146   1.564   2.859  15.329 -0.1545  0.3663  0.1563
  166DOPC  H14R20147   1.581   2.751  15.352  2.8760  0.3453 -1.6292
  166DOPC  H14S20148   1.653   2.919  15.359 -0.3732  0.2934  0.9614
  166DOPC  C21520149   1.546   2.875  15.174 -0.0797  0.3914 -0.1837
  166DOPC  H15R20150   1.541   2.983  15.148  0.8984  0.1342 -1.5561
  166DOPC  H15S20151   1.448   2.832  15.143  0.3556 -1.9808  1.4454
  166DOPC  C21620152   1.658   2.819  15.086  0.0570  0.3218  0.3722
  166DOPC  H16R20153   1.754   2.847  15.133 -0.0239 -1.0075  1.3917
  166DOPC  H16S20154   1.662   2.853  14.980  0.9804  0.3326  0.4065
  166DOPC  C21720155   1.652   2.665  15.071 -1.1780  0.6121 -0.3089
  166DOPC  H17R20156   1.592   2.627  15.157  0.7411 -0.2258  0.7317
  166DOPC  H17S20157   1.752   2.623  15.095 -0.6835  1.9699  0.1302
  166DOPC  C21820158   1.609   2.595  14.945 -0.2217 -0.4514 -0.3890
  166DOPC  H18R20159   1.622   2.487  14.962  0.4928 -0.3855 -0.4907
  166DOPC  H18S20160   1.673   2.614  14.856 -1.8603 -1.5284 -1.8719
  166DOPC  H18T20161   1.505   2.627  14.919  0.9460  2.6404 -1.8618
  166DOPC   C3320162   1.281   3.270  16.311 -0.1761  0.3939  0.0903
  166DOPC   H3X20163   1.237   3.349  16.376 -0.0577  0.5703 -0.0395
  166DOPC   H3Y20164   1.203   3.201  16.274  1.4937 -1.7318  0.2889
  166DOPC   C3420165   1.336   3.313  16.172  0.1663 -0.4113  0.9494
  166DOPC   H4X20166   1.385   3.219  16.137  1.2129  0.3048  0.4176
  166DOPC   H4Y20167   1.413   3.393  16.179  1.3676 -1.3888 -0.5236
  166DOPC   C3520168   1.221   3.364  16.084 -0.5165  0.3845 -0.0131
  166DOPC   H5X20169   1.158   3.441  16.132 -0.6714 -0.1671  0.6917
  166DOPC   H5Y20170   1.153   3.281  16.055 -1.4557  1.2878 -0.4507
  166DOPC   C3620171   1.270   3.435  15.952  0.0261 -0.2991  0.1897
  166DOPC   H6X20172   1.177   3.477  15.908 -0.5402 -3.1278 -1.5188
  166DOPC   H6Y20173   1.346   3.515  15.970 -0.6774  0.2871  0.6283
  166DOPC   C3720174   1.319   3.341  15.842 -0.7542  0.2672 -0.4507
  166DOPC   H7X20175   1.423   3.313  15.866 -0.6717  0.6094 -0.4086
  166DOPC   H7Y20176   1.265   3.244  15.841 -0.8043  0.2947 -0.4081
  166DOPC   C3820177   1.323   3.400  15.700  0.3273 -0.6366 -0.1690
  166DOPC   H8X20178   1.377   3.324  15.639 -2.1318 -1.8916 -0.9396
  166DOPC   H8Y20179   1.383   3.493  15.698  1.1073 -1.0565  1.6257
  166DOPC   C3920180   1.190   3.426  15.636  0.8229  0.4297  0.2009
  166DOPC   H9X20181   1.117   3.470  15.706 -0.1901 -0.1008 -0.4892
  166DOPC  C31020182   1.139   3.386  15.511 -0.2537  0.1155  0.1897
  166DOPC  H10X20183   1.037   3.415  15.485  0.5326  1.4765 -1.5378
  166DOPC  C31120184   1.214   3.305  15.407  0.7142 -0.5620 -0.0759
  166DOPC  H11X20185   1.307   3.262  15.449  0.6788 -2.5043 -1.8045
  166DOPC  H11Y20186   1.235   3.367  15.317 -0.7480  1.0941  0.6529
  166DOPC  C31220187   1.141   3.181  15.361  0.6764 -0.6772  0.2369
  166DOPC  H12X20188   1.081   3.135  15.443  1.5469  2.7775  3.0307
  166DOPC  H12Y20189   1.217   3.103  15.336  0.6750 -0.8393  0.7348
  166DOPC  C31320190   1.046   3.215  15.240 -0.2333  0.2606 -0.4382
  166DOPC  H13X20191   0.996   3.312  15.263  0.2171 -0.1313  2.5931
  166DOPC  H13Y20192   1.097   3.226  15.142 -0.3493 -1.0087 -0.6477
  166DOPC  C31420193   0.949   3.101  15.212  0.3087  0.0554  0.1423
  166DOPC  H14X20194   0.881   3.100  15.300  0.5260  0.4663  0.3132
  166DOPC  H14Y20195   0.888   3.130  15.123 -2.7495 -0.4297  1.9327
  166DOPC  C31520196   1.017   2.962  15.202  0.1980 -0.6124 -0.3824
  166DOPC  H15X20197   0.934   2.887  15.205 -0.4801  0.0692 -1.4959
  166DOPC  H15Y20198   1.088   2.948  15.287 -1.4323  1.8078  1.5180
  166DOPC  C31620199   1.094   2.951  15.067  0.2003 -0.1455 -0.3096
  166DOPC  H16X20200   1.025   2.961  14.980  1.3448 -0.8276 -1.3176
  166DOPC  H16Y20201   1.168   3.034  15.064 -1.8012  1.7536  0.2450
  166DOPC  C31720202   1.157   2.817  15.049  0.2372  0.3102  0.1234
  166DOPC  H17X20203   1.220   2.793  15.137  0.8053 -0.2105 -0.4197
  166DOPC  H17Y20204   1.078   2.739  15.047  1.3904 -0.8975  0.5628
  166DOPC  C31820205   1.236   2.808  14.918 -0.0582  0.0589 -0.2856
  166DOPC  H18X20206   1.164   2.824  14.835  0.6647  2.3356 -0.5416
  166DOPC  H18Y20207   1.314   2.887  14.917  0.7784 -0.7515 -0.4759
  166DOPC  H18Z20208   1.288   2.710  14.920  0.1534  0.1748  1.4039
  167DOPC     N20209   0.792   0.164  17.250  0.2701 -0.0572  0.0146
  167DOPC   C1220210   0.893   0.110  17.154 -0.7188 -0.5392  0.3049
  167DOPC  H12A20211   0.881   0.004  17.138 -0.2373 -0.4767 -0.5070
  167DOPC  H12B20212   0.992   0.109  17.197  0.7508 -0.7318 -2.8556
  167DOPC   C1320213   0.651   0.114  17.219  0.1121 -0.4183 -0.4348
  167DOPC  H13A20214   0.647   0.125  17.112  0.3601  0.9488 -0.3184
  167DOPC  H13B20215   0.637   0.011  17.250  3.2226 -0.8219 -0.0916
  167DOPC  H13C20216   0.581   0.174  17.275  1.4358  0.5709  0.1983
  167DOPC   C1420217   0.810   0.318  17.247  0.2698  0.4343  0.2968
  167DOPC  H14A20218   0.911   0.354  17.264  0.1395  1.6708 -1.3097
  167DOPC  H14B20219   0.776   0.343  17.148  1.6597 -0.2029 -0.3743
  167DOPC  H14C20220   0.748   0.367  17.320 -0.9801 -1.2790  0.4328
  167DOPC   C1520221   0.824   0.107  17.384 -0.4161  0.7287  0.5342
  167DOPC  H15A20222   0.920   0.142  17.418 -1.3270  2.0050  1.9367
  167DOPC  H15B20223   0.827  -0.001  17.391  1.5354  0.6997 -0.2730
  167DOPC  H15C20224   0.747   0.146  17.449 -1.8444  1.0990 -1.3141
  167DOPC   C1120225   0.896   0.177  17.015  0.9993  0.4154  0.3453
  167DOPC  H11A20226   0.942   0.277  17.026 -0.1455  1.1599 -1.2823
  167DOPC  H11B20227   0.953   0.106  16.951 -1.1298  0.3404 -1.5913
  167DOPC     P20228   0.736   0.279  16.853 -0.0261  0.0985  0.4977
  167DOPC   O1320229   0.821   0.398  16.872  0.2943 -0.5038  0.5267
  167DOPC   O1420230   0.590   0.310  16.843 -0.4527  0.3287 -0.6831
  167DOPC   O1220231   0.763   0.172  16.958 -0.1485 -0.5492  0.0646
  167DOPC   O1120232   0.785   0.209  16.723 -0.1402 -0.0058  0.0334
  167DOPC    C120233   0.912   0.160  16.697  1.0491  0.1556 -0.1059
  167DOPC    HA20234   0.923   0.055  16.732  4.4423  0.5107  0.2549
  167DOPC    HB20235   0.993   0.215  16.750  0.9810  0.8774 -0.7348
  167DOPC    C220236   0.937   0.169  16.550 -0.7025 -0.1574  0.1860
  167DOPC    HS20237   1.047   0.161  16.540 -0.4827 -1.0224  2.6525
  167DOPC   O2120238   0.884   0.282  16.487 -0.2046  0.1439  1.0639
  167DOPC   C2120239   0.965   0.385  16.499 -0.0337 -0.2597 -0.4548
  167DOPC   O2220240   1.062   0.388  16.571  0.3114 -0.1750 -0.0176
  167DOPC   C2220241   0.904   0.495  16.417  0.2023 -0.9811 -0.1913
  167DOPC   H2R20242   0.890   0.578  16.489 -0.6095 -0.9911 -0.3330
  167DOPC   H2S20243   0.803   0.475  16.377 -0.8792 -2.2370  2.8934
  167DOPC    C320244   0.868   0.053  16.484 -0.0257  0.0119 -0.5564
  167DOPC    HX20245   0.758   0.052  16.499  0.0666 -3.1442  0.6590
  167DOPC    HY20246   0.895  -0.047  16.524 -2.0896  0.3289  1.8735
  167DOPC   O3120247   0.899   0.052  16.345  0.1852 -0.4770 -0.0524
  167DOPC   C3120248   0.804   0.007  16.269 -0.3804  0.9565  0.6764
  167DOPC   O3220249   0.713  -0.070  16.297 -0.4604 -0.1460 -0.3622
  167DOPC   C3220250   0.831   0.040  16.121 -0.4742 -0.1492  0.1595
  167DOPC   H2X20251   0.911   0.117  16.111 -0.4983  0.1005  1.6117
  167DOPC   H2Y20252   0.869  -0.054  16.078  0.3225  1.0625 -1.9412
  167DOPC   C2320253   0.993   0.544  16.301  0.3870 -0.2768  0.0740
  167DOPC   H3R20254   1.097   0.518  16.332  0.2308 -0.6150  0.3200
  167DOPC   H3S20255   0.984   0.652  16.281 -0.8308 -0.2370  0.7711
  167DOPC   C2420256   0.962   0.458  16.182  0.4028 -0.1000  0.4318
  167DOPC   H4R20257   0.854   0.455  16.157  0.9702 -1.5614 -2.2323
  167DOPC   H4S20258   0.985   0.353  16.209 -0.7070 -0.1611  1.2250
  167DOPC   C2520259   1.027   0.498  16.047 -0.2003 -0.0226 -0.0111
  167DOPC   H5R20260   1.137   0.492  16.063 -0.5798 -1.3548  2.5793
  167DOPC   H5S20261   0.999   0.603  16.023  2.3660  0.4314 -1.4182
  167DOPC   C2620262   0.978   0.408  15.930  0.0194 -0.6241 -1.2805
  167DOPC   H6R20263   0.867   0.406  15.925 -0.0042 -1.0590 -0.6341
  167DOPC   H6S20264   1.010   0.306  15.957  1.0392  0.0252  0.0725
  167DOPC   C2720265   1.035   0.442  15.790  0.8115 -0.1118 -0.6321
  167DOPC   H7R20266   1.146   0.438  15.795  0.7329 -1.3907  2.6616
  167DOPC   H7S20267   1.004   0.548  15.777 -1.6024 -0.5809  0.7386
  167DOPC   C2820268   0.973   0.360  15.677  0.4208 -0.0159 -0.0567
  167DOPC   H8R20269   0.864   0.339  15.686  0.7086 -2.1551 -0.7584
  167DOPC   H8S20270   1.014   0.257  15.666 -3.0929 -1.5619  0.1079
  167DOPC   C2920271   0.981   0.439  15.549 -0.2819 -0.0970  0.6705
  167DOPC   H9R20272   0.894   0.507  15.541 -0.2732  0.1631  2.3822
  167DOPC  C21020273   1.075   0.438  15.451 -0.1129  0.6170  0.4636
  167DOPC  H10R20274   1.066   0.502  15.363  1.4403  0.8326  0.4329
  167DOPC  C21120275   1.197   0.351  15.451  0.1288 -0.6533 -0.4493
  167DOPC  H11R20276   1.196   0.278  15.535  0.0492 -2.3708 -1.8737
  167DOPC  H11S20277   1.288   0.413  15.461  0.3988 -0.8662 -1.4194
  167DOPC  C21220278   1.217   0.276  15.320 -0.6282 -0.5306 -0.4141
  167DOPC  H12R20279   1.319   0.232  15.311  0.0573  0.9280 -0.0630
  167DOPC  H12S20280   1.137   0.200  15.311 -0.9675 -0.0112 -2.1315
  167DOPC  C21320281   1.217   0.363  15.191 -0.8429 -0.4766  0.0238
  167DOPC  H13R20282   1.318   0.410  15.184 -0.7587 -0.7629 -0.8120
  167DOPC  H13S20283   1.146   0.448  15.196  0.1307  0.2897  1.5953
  167DOPC  C21420284   1.189   0.288  15.057 -0.4276  0.0692  0.1425
  167DOPC  H14R20285   1.179   0.369  14.982  0.9167 -0.2525 -0.4218
  167DOPC  H14S20286   1.089   0.241  15.052  0.0275 -0.8210 -1.1143
  167DOPC  C21520287   1.299   0.188  15.019 -0.6143  0.3570  0.7513
  167DOPC  H15R20288   1.294   0.098  15.084 -1.5108  0.7077  1.1805
  167DOPC  H15S20289   1.402   0.228  15.014  0.4341 -2.1512  0.6289
  167DOPC  C21620290   1.280   0.143  14.875 -0.0438 -0.7401  0.0867
  167DOPC  H16R20291   1.177   0.109  14.852  0.3103 -0.6966 -1.7022
  167DOPC  H16S20292   1.336   0.050  14.854 -0.5639 -2.0805  3.8492
  167DOPC  C21720293   1.321   0.244  14.772 -0.0752  0.0806 -0.4264
  167DOPC  H17R20294   1.421   0.289  14.787 -0.4073  0.7330 -0.1149
  167DOPC  H17S20295   1.257   0.335  14.777  2.4150  1.8727  1.7337
  167DOPC  C21820296   1.321   0.181  14.632  0.1227 -0.3403  0.0092
  167DOPC  H18R20297   1.366   0.256  14.563 -0.9325  1.2366  0.9885
  167DOPC  H18S20298   1.219   0.164  14.589 -0.0660  0.2689  0.2135
  167DOPC  H18T20299   1.370   0.082  14.623 -0.0238 -0.3877 -0.2998
  167DOPC   C3320300   0.706   0.065  16.040 -0.6380  0.1206 -0.1473
  167DOPC   H3X20301   0.636  -0.020  16.050  0.8386 -1.0576  0.6126
  167DOPC   H3Y20302   0.726   0.093  15.934  0.8049  2.0850  0.5852
  167DOPC   C3420303   0.629   0.188  16.094 -0.3919 -0.0591  0.3446
  167DOPC   H4X20304   0.665   0.285  16.054 -1.4552  1.0691  1.9962
  167DOPC   H4Y20305   0.638   0.191  16.205  3.0497  0.7913  0.1698
  167DOPC   C3520306   0.480   0.165  16.063  0.2921 -0.3657 -0.1814
  167DOPC   H5X20307   0.428   0.255  16.102  0.8908  0.4264 -1.1643
  167DOPC   H5Y20308   0.448   0.080  16.128  0.8707 -0.1635  0.3744
  167DOPC   C3620309   0.442   0.153  15.916  0.0496  0.2984  0.2679
  167DOPC   H6X20310   0.512   0.088  15.859 -0.8153  0.2334 -0.7633
  167DOPC   H6Y20311   0.349   0.093  15.904  0.4929 -0.5301  0.8432
  167DOPC   C3720312   0.425   0.284  15.836 -0.0350 -0.4243  0.2008
  167DOPC   H7X20313   0.391   0.365  15.904  0.8582  2.1711 -2.2358
  167DOPC   H7Y20314   0.528   0.316  15.811 -0.2359  1.1247  1.2524
  167DOPC   C3820315   0.340   0.260  15.713  0.1058 -0.1183  0.7646
  167DOPC   H8X20316   0.340   0.159  15.669 -3.2255  0.0632  0.0778
  167DOPC   H8Y20317   0.370   0.323  15.627 -0.7286 -1.4619 -0.5521
  167DOPC   C3920318   0.200   0.284  15.737  0.4245  0.1992 -0.4630
  167DOPC   H9X20319   0.167   0.255  15.838 -1.6685  0.8157 -0.9218
  167DOPC  C31020320   0.110   0.355  15.658 -0.2805  0.4705 -0.1096
  167DOPC  H10X20321   0.004   0.369  15.684 -0.8198 -0.7696 -1.4694
  167DOPC  C31120322   0.140   0.417  15.521 -0.3310 -0.6589 -0.4628
  167DOPC  H11X20323   0.075   0.369  15.444 -0.7250 -0.0402 -0.5271
  167DOPC  H11Y20324   0.249   0.410  15.501  0.0756 -1.8740  1.8292
  167DOPC  C31220325   0.100   0.565  15.509 -0.3710 -0.1071 -0.1735
  167DOPC  H12X20326   0.005   0.594  15.559 -1.2037 -1.7832 -0.7374
  167DOPC  H12Y20327   0.076   0.592  15.404 -2.8273  1.3322  0.6566
  167DOPC  C31320328   0.214   0.665  15.547  0.5198  0.1419  0.3470
  167DOPC  H13X20329   0.235   0.662  15.656  0.4987 -0.5605  0.3359
  167DOPC  H13Y20330   0.300   0.632  15.485 -0.0781 -1.9588  0.5733
  167DOPC  C31420331   0.187   0.811  15.503  0.3029 -0.4094  0.6663
  167DOPC  H14X20332   0.169   0.814  15.394  0.0388  3.3860  0.6887
  167DOPC  H14Y20333   0.087   0.844  15.541  0.1185  0.5740 -0.6143
  167DOPC  C31520334   0.306   0.909  15.534 -0.2352  0.1294  0.9338
  167DOPC  H15X20335   0.280   1.002  15.479 -1.2384 -0.3124  0.6300
  167DOPC  H15Y20336   0.405   0.882  15.492 -0.1819  1.5490  0.0954
  167DOPC  C31620337   0.336   0.946  15.678 -0.6265  0.6739  0.3465
  167DOPC  H16X20338   0.243   0.940  15.738 -1.2313 -3.3578 -0.7194
  167DOPC  H16Y20339   0.405   0.873  15.726 -3.9090 -2.8395  0.2125
  167DOPC  C31720340   0.402   1.085  15.686  0.0675  0.1410  0.7595
  167DOPC  H17X20341   0.490   1.093  15.619 -2.0391  2.2911 -1.9647
  167DOPC  H17Y20342   0.336   1.161  15.640  0.9202  1.0887  1.0649
  167DOPC  C31820343   0.450   1.124  15.823 -0.1917  0.7210  0.6729
  167DOPC  H18X20344   0.365   1.119  15.894 -1.6005 -1.4114 -1.0444
  167DOPC  H18Y20345   0.516   1.044  15.862 -1.3006 -0.2040  0.6834
  167DOPC  H18Z20346   0.495   1.226  15.826  1.7821 -0.0913  0.4247
  168DOPC     N20347   3.375   7.329  17.064  0.2246 -0.0743  0.3841
  168DOPC   C1220348   3.374   7.455  17.152  0.3438  0.2626 -0.1674
  168DOPC  H12A20349   3.478   7.477  17.172  0.1628  1.0824 -0.0855
  168DOPC  H12B20350   3.321   7.430  17.243 -0.8559 -0.2416 -0.9849
  168DOPC   C1320351   3.394   7.214  17.162 -0.3946  0.1768  0.4851
  168DOPC  H13A20352   3.494   7.197  17.200 -0.2215 -1.3025 -0.5647
  168DOPC  H13B20353   3.327   7.222  17.246 -0.6372  1.4693  0.1926
  168DOPC  H13C20354   3.360   7.124  17.114  0.3584  0.3493 -0.4093
  168DOPC   C1420355   3.492   7.327  16.973  0.0132 -0.0253 -0.3207
  168DOPC  H14A20356   3.493   7.412  16.906 -1.2238  0.6360  0.4623
  168DOPC  H14B20357   3.582   7.320  17.031 -0.1507  0.1375 -0.0461
  168DOPC  H14C20358   3.478   7.248  16.901 -3.5502  0.1780 -0.0308
  168DOPC   C1520359   3.245   7.312  16.985 -0.1962  1.0028  0.2439
  168DOPC  H15A20360   3.230   7.401  16.925  1.2966  1.0366 -0.1242
  168DOPC  H15B20361   3.153   7.303  17.041 -1.2394 -1.8312 -1.6746
  168DOPC  H15C20362   3.245   7.244  16.901 -0.9975  0.8755  0.3433
  168DOPC   C1120363   3.305   7.576  17.086 -0.4305 -0.3524 -0.6862
  168DOPC  H11A20364   3.197   7.551  17.081 -0.8045  0.5349  1.6727
  168DOPC  H11B20365   3.301   7.669  17.147 -3.7334 -0.9539  0.2387
  168DOPC     P20366   3.476   7.698  16.929  0.4673 -0.0897 -0.0229
  168DOPC   O1320367   3.600   7.658  17.002  0.2995  0.0582  0.1748
  168DOPC   O1420368   3.421   7.833  16.967  0.3280  0.0923  0.3742
  168DOPC   O1220369   3.356   7.599  16.957  0.9156 -0.0428 -0.2090
  168DOPC   O1120370   3.499   7.680  16.773  0.4454  0.0399 -0.2138
  168DOPC    C120371   3.397   7.740  16.691 -0.0568  0.3749  0.4935
  168DOPC    HA20372   3.453   7.760  16.597 -0.5228  0.9196  0.3285
  168DOPC    HB20373   3.356   7.835  16.731 -0.5958  0.2941  0.1364
  168DOPC    C220374   3.285   7.640  16.657 -0.1885 -0.1980  0.6494
  168DOPC    HS20375   3.248   7.607  16.757 -0.5723 -0.1429  0.5254
  168DOPC   O2120376   3.355   7.525  16.596  0.0035  0.0896 -0.0463
  168DOPC   C2120377   3.291   7.413  16.616  0.3380  0.0734 -0.1819
  168DOPC   O2220378   3.203   7.397  16.701 -0.5004 -0.0160  0.3894
  168DOPC   C2220379   3.340   7.296  16.529 -0.2800 -0.0168  0.3443
  168DOPC   H2R20380   3.343   7.206  16.594  1.6228 -0.3665 -0.1779
  168DOPC   H2S20381   3.445   7.319  16.500 -0.2453  0.6597  0.9679
  168DOPC    C320382   3.173   7.703  16.571  0.0316 -0.1735 -0.8529
  168DOPC    HX20383   3.226   7.739  16.481 -1.9295  0.6812 -1.6988
  168DOPC    HY20384   3.134   7.795  16.619 -0.0897  0.4940 -2.1904
  168DOPC   O3120385   3.079   7.604  16.525  0.0956  0.2581 -0.2161
  168DOPC   C3120386   2.969   7.600  16.604 -0.4105 -0.1175 -0.4182
  168DOPC   O3220387   2.940   7.678  16.693  0.3210 -0.4433 -0.4932
  168DOPC   C3220388   2.870   7.492  16.561 -0.3293 -0.3016  0.3791
  168DOPC   H2X20389   2.923   7.396  16.574  0.6374 -0.3627 -3.0043
  168DOPC   H2Y20390   2.780   7.496  16.625 -0.3049 -0.4270  0.4204
  168DOPC   C2320391   3.254   7.276  16.406  0.0376  0.7696  0.4442
  168DOPC   H3R20392   3.150   7.304  16.435 -0.0834  1.4626 -0.6003
  168DOPC   H3S20393   3.264   7.174  16.363  1.1829  1.4199 -0.9340
  168DOPC   C2420394   3.294   7.377  16.289  0.1493 -0.2097  1.0454
  168DOPC   H4R20395   3.404   7.365  16.282  0.1496  0.4747 -0.4330
  168DOPC   H4S20396   3.272   7.481  16.321 -0.9352  0.0842 -0.5634
  168DOPC   C2520397   3.219   7.346  16.156  0.4190 -0.6210  0.2708
  168DOPC   H5R20398   3.118   7.392  16.151  0.6397 -0.1264  0.2938
  168DOPC   H5S20399   3.202   7.237  16.149 -1.6450 -0.3898  0.8323
  168DOPC   C2620400   3.311   7.384  16.027  0.8168 -0.3558  0.3909
  168DOPC   H6R20401   3.396   7.315  16.046 -1.2830 -2.4004  3.1695
  168DOPC   H6S20402   3.340   7.491  16.027 -0.7585  0.0971  0.0254
  168DOPC   C2720403   3.246   7.348  15.891 -0.6129  0.2534  0.5852
  168DOPC   H7R20404   3.150   7.400  15.870 -0.5849  1.1064  2.3331
  168DOPC   H7S20405   3.216   7.242  15.901  0.5102 -0.2431 -0.9451
  168DOPC   C2820406   3.346   7.354  15.775 -0.0957  0.3828  0.6965
  168DOPC   H8R20407   3.314   7.299  15.684  0.5076  0.3422  0.5017
  168DOPC   H8S20408   3.431   7.293  15.815 -0.7514 -0.7875  0.3474
  168DOPC   C2920409   3.383   7.494  15.746  0.4817  0.7478  0.3614
  168DOPC   H9R20410   3.323   7.572  15.796  0.7850  0.0946  1.7753
  168DOPC  C21020411   3.498   7.520  15.686 -0.5538  0.7630  1.2280
  168DOPC  H10R20412   3.530   7.625  15.679 -0.0924  0.5651  0.1725
  168DOPC  C21120413   3.603   7.422  15.636 -0.4084 -0.2230  0.7359
  168DOPC  H11R20414   3.680   7.466  15.569  0.9079 -2.0247  0.9818
  168DOPC  H11S20415   3.552   7.339  15.584 -3.0912 -0.3828  3.3212
  168DOPC  C21220416   3.695   7.376  15.750  0.2666  0.0183  0.6150
  168DOPC  H12R20417   3.650   7.322  15.836  2.1320  0.4708  1.9540
  168DOPC  H12S20418   3.742   7.471  15.783  0.2470  0.0482  0.5576
  168DOPC  C21320419   3.816   7.289  15.699 -0.2389  0.3346 -0.1383
  168DOPC  H13R20420   3.877   7.346  15.626  0.3341 -0.9140 -0.6657
  168DOPC  H13S20421   3.764   7.201  15.655  1.0879 -1.4395  1.6533
  168DOPC  C21420422   3.903   7.216  15.808 -0.5372 -0.2818 -0.2726
  168DOPC  H14R20423   3.847   7.155  15.882 -0.9175 -0.5952 -0.8140
  168DOPC  H14S20424   3.954   7.294  15.869 -1.6705  1.4361 -1.4209
  168DOPC  C21520425   4.019   7.137  15.732 -0.3355  0.1694 -0.5632
  168DOPC  H15R20426   4.103   7.118  15.802 -0.2984 -0.5072 -0.7830
  168DOPC  H15S20427   4.063   7.193  15.647 -0.7300 -1.2622 -1.7495
  168DOPC  C21620428   3.965   7.005  15.674  0.3109  0.0909 -0.1810
  168DOPC  H16R20429   3.902   7.032  15.586 -0.6772 -1.9741 -0.1870
  168DOPC  H16S20430   3.905   6.941  15.742  0.0192 -2.3803 -2.5724
  168DOPC  C21720431   4.077   6.911  15.641  0.0131  0.5073  0.1484
  168DOPC  H17R20432   4.026   6.836  15.577 -0.5018  0.6186  0.4225
  168DOPC  H17S20433   4.114   6.863  15.735 -0.9446  0.1563  0.3490
  168DOPC  C21820434   4.199   6.981  15.570 -0.1718  0.1997  0.0200
  168DOPC  H18R20435   4.276   7.017  15.641  0.7068  1.4073 -1.4955
  168DOPC  H18S20436   4.164   7.071  15.515  3.0320  0.7289 -1.3336
  168DOPC  H18T20437   4.254   6.916  15.499 -1.1111  1.9938 -2.4856
  168DOPC   C3320438   2.831   7.509  16.417 -0.5916  0.0409 -0.2829
  168DOPC   H3X20439   2.769   7.428  16.373 -0.2321  0.3780 -1.4440
  168DOPC   H3Y20440   2.923   7.503  16.354 -0.7166  3.9729 -1.1235
  168DOPC   C3420441   2.775   7.642  16.369 -0.7326 -0.7019 -0.0270
  168DOPC   H4X20442   2.852   7.721  16.383  0.8007 -2.3769  1.5635
  168DOPC   H4Y20443   2.698   7.679  16.440 -0.4937  0.5523 -0.4072
  168DOPC   C3520444   2.721   7.650  16.222  0.2947  0.3184  0.1076
  168DOPC   H5X20445   2.680   7.753  16.211  1.7585  0.9491  0.3699
  168DOPC   H5Y20446   2.636   7.581  16.205  0.9231 -0.3916 -0.2109
  168DOPC   C3620447   2.831   7.617  16.123 -0.5829  0.1181  0.2758
  168DOPC   H6X20448   2.921   7.677  16.148  1.2432 -1.8339 -1.2803
  168DOPC   H6Y20449   2.852   7.509  16.137  0.5595  0.2944  0.0512
  168DOPC   C3720450   2.783   7.655  15.977  0.6444 -0.0404 -0.1037
  168DOPC   H7X20451   2.675   7.635  15.968  0.6817 -0.0590 -0.5171
  168DOPC   H7Y20452   2.797   7.765  15.973 -1.5557  0.2567 -0.6125
  168DOPC   C3820453   2.858   7.593  15.864 -1.2539 -0.3857  0.0775
  168DOPC   H8X20454   2.844   7.483  15.873 -0.9559 -0.4992 -0.7650
  168DOPC   H8Y20455   2.961   7.626  15.891 -1.7182  0.3749  0.9676
  168DOPC   C3920456   2.814   7.641  15.728  0.8463  0.1164  0.1525
  168DOPC   H9X20457   2.736   7.719  15.727 -1.0383 -1.6734 -0.2706
  168DOPC  C31020458   2.845   7.582  15.612 -0.0013 -0.3423 -0.0210
  168DOPC  H10X20459   2.817   7.628  15.516 -0.6667 -2.7382 -1.0342
  168DOPC  C31120460   2.932   7.469  15.588 -0.1968  0.1375  0.0486
  168DOPC  H11X20461   2.907   7.391  15.663  0.2962  1.3373  1.5234
  168DOPC  H11Y20462   3.041   7.491  15.591 -0.6032  2.9143 -1.7259
  168DOPC  C31220463   2.900   7.405  15.444  0.8768 -0.1569  0.1982
  168DOPC  H12X20464   2.795   7.371  15.433  0.9245 -0.9457  1.8780
  168DOPC  H12Y20465   2.958   7.310  15.446 -0.0939 -0.7995 -0.9853
  168DOPC  C31320466   2.952   7.470  15.314 -0.2906 -0.1995 -0.6348
  168DOPC  H13X20467   2.908   7.567  15.283 -0.3132 -0.5029 -1.5673
  168DOPC  H13Y20468   3.058   7.498  15.336 -0.6415 -0.1628  1.2367
  168DOPC  C31420469   2.942   7.373  15.196  0.2539  0.5532 -0.0643
  168DOPC  H14X20470   2.983   7.271  15.213  0.4321  0.0398 -3.0058
  168DOPC  H14Y20471   2.835   7.347  15.178  0.2890 -0.4205  1.0056
  168DOPC  C31520472   3.001   7.430  15.068  0.2624  1.1994  0.1762
  168DOPC  H15X20473   3.103   7.466  15.091  0.4359  0.8454 -0.0305
  168DOPC  H15Y20474   2.935   7.514  15.039  0.8895  1.8274  0.5422
  168DOPC  C31620475   3.027   7.327  14.962  0.1832  0.3095 -0.4801
  168DOPC  H16X20476   3.105   7.255  14.996 -0.3457 -0.1769 -0.2929
  168DOPC  H16Y20477   2.941   7.257  14.952  0.3808 -0.0662  0.3960
  168DOPC  C31720478   3.074   7.391  14.828 -0.0637  0.0346  0.6760
  168DOPC  H17X20479   3.170   7.444  14.844 -1.2720  1.7506  2.6363
  168DOPC  H17Y20480   3.096   7.310  14.755  0.6003  0.9852 -0.2171
  168DOPC  C31820481   2.980   7.492  14.768  0.3865  0.4984  0.0192
  168DOPC  H18X20482   2.876   7.456  14.757  0.0918  1.0212  0.9579
  168DOPC  H18Y20483   2.968   7.583  14.830 -1.4991  0.5207 -0.3285
  168DOPC  H18Z20484   3.016   7.510  14.664 -1.3048 -1.8379 -1.0402
  169DOPC     N20485   1.319   0.750  17.108  0.0797 -0.0439 -0.2265
  169DOPC   C1220486   1.332   0.842  16.987 -0.5229 -1.0562  0.4871
  169DOPC  H12A20487   1.354   0.942  17.023  1.2004 -0.3789 -2.1027
  169DOPC  H12B20488   1.235   0.847  16.941 -0.4784 -0.5856  0.4325
  169DOPC   C1320489   1.282   0.616  17.051  0.3343  0.1987 -0.2291
  169DOPC  H13A20490   1.367   0.578  16.996  0.2809  0.0102 -0.1797
  169DOPC  H13B20491   1.266   0.541  17.127 -2.9666 -1.1153 -2.0243
  169DOPC  H13C20492   1.194   0.625  16.989 -0.2691  3.0742  0.8558
  169DOPC   C1420493   1.214   0.793  17.197  0.1090 -0.0933 -0.2321
  169DOPC  H14A20494   1.114   0.805  17.158 -0.3797  0.4023  1.1127
  169DOPC  H14B20495   1.193   0.719  17.273 -1.3402 -0.5358 -1.0041
  169DOPC  H14C20496   1.229   0.892  17.237 -1.4275  0.4624 -0.9268
  169DOPC   C1520497   1.452   0.737  17.178  0.6117 -0.2861 -0.3411
  169DOPC  H15A20498   1.469   0.821  17.243 -0.5344  0.3838 -0.8937
  169DOPC  H15B20499   1.530   0.738  17.104  1.2215  0.2577  0.2954
  169DOPC  H15C20500   1.468   0.645  17.234 -0.3473  0.6398  1.5548
  169DOPC   C1120501   1.433   0.812  16.878  0.7095 -0.6493  0.0382
  169DOPC  H11A20502   1.408   0.713  16.835 -3.5319  0.6245 -0.9023
  169DOPC  H11B20503   1.410   0.879  16.793 -0.2260 -1.8555 -0.6906
  169DOPC     P20504   1.641   0.969  16.930  0.4185 -0.3296 -0.0739
  169DOPC   O1320505   1.788   0.957  16.964 -0.0308  0.1546 -0.3876
  169DOPC   O1420506   1.560   1.062  17.011 -0.2118  0.3479 -0.1921
  169DOPC   O1220507   1.573   0.831  16.925  0.3549  0.5466  0.0876
  169DOPC   O1120508   1.635   1.010  16.780 -0.8381  0.8473 -0.2240
  169DOPC    C120509   1.742   1.087  16.725  0.9170 -0.0232  0.3556
  169DOPC    HA20510   1.832   1.027  16.698  0.3259  0.4238 -3.0115
  169DOPC    HB20511   1.762   1.175  16.789 -0.2248  0.0215  0.6653
  169DOPC    C220512   1.710   1.133  16.582 -0.1086 -0.6497 -0.5135
  169DOPC    HS20513   1.811   1.153  16.541 -0.5950 -0.5528 -1.7097
  169DOPC   O2120514   1.630   1.252  16.586  0.2088  0.0593 -0.0025
  169DOPC   C2120515   1.690   1.370  16.575  0.5174 -0.1187 -0.4306
  169DOPC   O2220516   1.811   1.385  16.593  0.1425 -0.2778  0.2307
  169DOPC   C2220517   1.602   1.495  16.535  0.6020  0.5313 -0.2923
  169DOPC   H2R20518   1.560   1.528  16.632 -0.5396 -3.0091  0.5738
  169DOPC   H2S20519   1.517   1.450  16.479  0.2903  0.2544  0.3889
  169DOPC    C320520   1.646   1.028  16.490  0.3882  0.0329  0.3217
  169DOPC    HX20521   1.550   0.995  16.535  1.1328 -1.9143  0.5760
  169DOPC    HY20522   1.708   0.936  16.490  0.1430 -0.1616 -1.1353
  169DOPC   O3120523   1.629   1.082  16.356 -0.0710 -0.4514 -0.4819
  169DOPC   C3120524   1.731   1.061  16.271 -0.3947  0.2202 -0.1654
  169DOPC   O3220525   1.837   1.006  16.300 -0.5019 -0.1608  0.1258
  169DOPC   C3220526   1.698   1.122  16.135  0.6901  0.3173 -0.0270
  169DOPC   H2X20527   1.604   1.076  16.097  0.6351 -0.8519  1.3955
  169DOPC   H2Y20528   1.677   1.230  16.143 -1.3756 -0.0988  0.7344
  169DOPC   C2320529   1.672   1.606  16.447  0.5551  0.2035 -0.5423
  169DOPC   H3R20530   1.760   1.637  16.507 -0.0448 -0.3959  0.7046
  169DOPC   H3S20531   1.594   1.684  16.457 -0.5704 -1.1206  2.2264
  169DOPC   C2420532   1.676   1.567  16.296  0.4905  0.1016 -0.2500
  169DOPC   H4R20533   1.577   1.523  16.274  1.4384 -1.5467 -1.4408
  169DOPC   H4S20534   1.751   1.486  16.282  1.9798  0.6933  3.1731
  169DOPC   C2520535   1.687   1.677  16.193  0.2432 -0.2863 -0.3701
  169DOPC   H5R20536   1.781   1.724  16.228  1.2110 -2.4231  0.0703
  169DOPC   H5S20537   1.609   1.756  16.199 -0.6999 -1.1455 -0.8709
  169DOPC   C2620538   1.699   1.634  16.046  0.0164  0.0139 -0.3875
  169DOPC   H6R20539   1.617   1.568  16.012  0.5391  1.6163 -5.5645
  169DOPC   H6S20540   1.793   1.579  16.029 -0.4988 -0.2739 -2.5659
  169DOPC   C2720541   1.689   1.734  15.938 -0.0337  0.3766 -0.1572
  169DOPC   H7R20542   1.768   1.812  15.949  0.7183 -0.3156 -0.5276
  169DOPC   H7S20543   1.591   1.786  15.947  0.1923  0.5848  1.3669
  169DOPC   C2820544   1.709   1.674  15.801 -0.6430  0.0111  0.5063
  169DOPC   H8R20545   1.675   1.751  15.729  0.1540 -0.3170 -0.2429
  169DOPC   H8S20546   1.633   1.595  15.782 -0.0032  0.0754 -2.9763
  169DOPC   C2920547   1.848   1.620  15.764 -0.0190  0.4216  0.3590
  169DOPC   H9R20548   1.933   1.658  15.824  0.9615 -3.1910  1.5020
  169DOPC  C21020549   1.872   1.538  15.662 -0.4393 -0.5520  0.3626
  169DOPC  H10R20550   1.973   1.499  15.643 -0.4291  0.1390 -1.1462
  169DOPC  C21120551   1.769   1.476  15.563  0.2863  0.4222 -0.2003
  169DOPC  H11R20552   1.666   1.485  15.606 -1.0608 -0.1580 -3.0433
  169DOPC  H11S20553   1.787   1.367  15.548  1.0952  0.1086  2.5311
  169DOPC  C21220554   1.780   1.551  15.429  0.2968  0.1292  0.1805
  169DOPC  H12R20555   1.766   1.660  15.443 -1.8218  0.0090 -0.6877
  169DOPC  H12S20556   1.690   1.516  15.374 -1.1578 -0.5879  2.8351
  169DOPC  C21320557   1.909   1.517  15.346 -0.3069  0.0335 -0.4234
  169DOPC  H13R20558   1.951   1.427  15.395 -0.2799  0.3649  0.1729
  169DOPC  H13S20559   1.978   1.603  15.355 -0.4946  0.1562 -0.1571
  169DOPC  C21420560   1.882   1.482  15.195  0.0327 -0.1088  0.0972
  169DOPC  H14R20561   1.839   1.555  15.123 -0.9127 -2.1558 -1.5194
  169DOPC  H14S20562   1.800   1.407  15.189 -0.2043  0.2053 -0.7415
  169DOPC  C21520563   2.007   1.431  15.115  0.3576 -0.0000  0.4114
  169DOPC  H15R20564   2.052   1.345  15.169  1.6435 -0.2386 -0.9586
  169DOPC  H15S20565   2.087   1.508  15.113 -0.7855  1.2036 -0.6237
  169DOPC  C21620566   1.990   1.367  14.982 -0.0628  0.2067  0.5757
  169DOPC  H16R20567   1.915   1.285  14.983 -1.2222  1.2137 -0.5747
  169DOPC  H16S20568   2.088   1.316  14.965 -0.6402 -0.9711  0.7148
  169DOPC  C21720569   1.949   1.465  14.877  0.1896 -0.7112  1.2010
  169DOPC  H17R20570   2.022   1.548  14.894  1.0626 -0.4909 -2.6741
  169DOPC  H17S20571   1.844   1.498  14.893 -0.3548 -1.0630 -1.2776
  169DOPC  C21820572   1.979   1.424  14.736 -0.2227  0.0293  0.9284
  169DOPC  H18R20573   1.906   1.343  14.716  3.0694 -2.7151 -0.9857
  169DOPC  H18S20574   2.080   1.377  14.739  0.2348  0.6970 -1.5209
  169DOPC  H18T20575   1.982   1.504  14.659 -1.5786 -1.7051 -1.0478
  169DOPC   C3320576   1.803   1.111  16.031  0.0917 -0.4117  0.1117
  169DOPC   H3X20577   1.810   1.006  15.997 -1.9642 -0.1595 -1.3110
  169DOPC   H3Y20578   1.901   1.140  16.075 -1.1053  0.7130  2.1973
  169DOPC   C3420579   1.772   1.196  15.907 -0.4879  0.3579 -0.7105
  169DOPC   H4X20580   1.775   1.301  15.942  3.1469  0.3072 -0.4884
  169DOPC   H4Y20581   1.670   1.183  15.864 -0.4494 -0.6079 -0.5457
  169DOPC   C3520582   1.884   1.190  15.805 -0.4081 -0.4087  0.4759
  169DOPC   H5X20583   1.980   1.199  15.860 -0.3309  4.8470  0.0659
  169DOPC   H5Y20584   1.881   1.276  15.734  0.6872 -0.0131  0.8869
  169DOPC   C3620585   1.894   1.065  15.736  0.3396  0.0966 -0.1815
  169DOPC   H6X20586   1.916   0.983  15.809  1.9178  0.8645  0.2558
  169DOPC   H6Y20587   1.801   1.043  15.680  1.1019 -0.2189 -1.3516
  169DOPC   C3720588   2.010   1.061  15.635 -0.1656 -0.2880  0.2558
  169DOPC   H7X20589   2.003   1.147  15.565 -0.4718 -0.3218  0.2435
  169DOPC   H7Y20590   2.105   1.060  15.692 -0.8986 -2.9510  1.5909
  169DOPC   C3820591   2.023   0.938  15.539 -0.2204  0.0326 -0.3238
  169DOPC   H8X20592   1.924   0.938  15.489 -1.5655  0.9071  2.1374
  169DOPC   H8Y20593   2.033   0.847  15.602  0.2097  1.7212  2.2281
  169DOPC   C3920594   2.147   0.950  15.452 -0.4575  0.4545  0.0456
  169DOPC   H9X20595   2.245   0.980  15.490  0.1683 -1.2605 -0.1324
  169DOPC  C31020596   2.160   0.920  15.319 -0.1649 -0.1529 -0.1409
  169DOPC  H10X20597   2.262   0.927  15.280 -0.1010 -0.2092  0.0146
  169DOPC  C31120598   2.060   0.873  15.222  0.0102  0.0999 -0.4796
  169DOPC  H11X20599   1.989   0.809  15.278  0.9809 -1.6550 -1.1671
  169DOPC  H11Y20600   2.104   0.806  15.145  0.2486  0.8162 -0.9796
  169DOPC  C31220601   1.980   0.995  15.158 -1.0196  0.5444  0.3544
  169DOPC  H12X20602   2.055   1.059  15.106 -0.7676 -0.0212  0.0053
  169DOPC  H12Y20603   1.922   1.044  15.239  1.9490  3.6245  0.8211
  169DOPC  C31320604   1.869   0.953  15.069 -0.6286 -0.2385  0.1063
  169DOPC  H13X20605   1.816   0.865  15.110 -1.3927  0.8941  1.6229
  169DOPC  H13Y20606   1.794   1.032  15.046  1.1841  1.1843 -1.1922
  169DOPC  C31420607   1.917   0.900  14.935 -0.2456 -0.3090 -0.0840
  169DOPC  H14X20608   1.985   0.816  14.960  0.3173  0.6314  1.7143
  169DOPC  H14Y20609   1.834   0.864  14.870 -0.1282  0.4259 -0.6631
  169DOPC  C31520610   2.006   0.998  14.856 -0.1289  0.5936  0.1348
  169DOPC  H15X20611   2.095   1.025  14.917 -0.2434 -0.0215  0.5911
  169DOPC  H15Y20612   1.944   1.088  14.838 -0.3615  0.2714 -0.7322
  169DOPC  C31620613   2.037   0.935  14.727  0.2232 -0.7807 -0.8603
  169DOPC  H16X20614   2.110   0.856  14.757  0.1736 -0.6404 -0.3703
  169DOPC  H16Y20615   1.943   0.890  14.689  0.1140 -2.5758  1.2894
  169DOPC  C31720616   2.103   1.037  14.627  0.4271  0.1097 -0.6240
  169DOPC  H17X20617   2.028   1.115  14.604  0.0706  0.1193  0.4997
  169DOPC  H17Y20618   2.190   1.088  14.673  1.7637 -0.1496 -2.7237
  169DOPC  C31820619   2.147   0.969  14.498 -0.1468 -0.7284 -0.3913
  169DOPC  H18X20620   2.220   0.888  14.519  0.7437 -0.2339 -1.4829
  169DOPC  H18Y20621   2.065   0.915  14.446 -2.0905  1.0234  0.6948
  169DOPC  H18Z20622   2.207   1.035  14.432 -0.5072  2.7818  2.4814
  170DOPC     N20623   0.803   7.110  17.322 -0.3217  0.1163  0.0759
  170DOPC   C1220624   0.842   7.199  17.205 -0.1869  0.1639 -0.9307
  170DOPC  H12A20625   0.942   7.176  17.172 -0.1155 -0.2228 -0.4696
  170DOPC  H12B20626   0.818   7.301  17.231 -0.9234 -0.6415  1.9546
  170DOPC   C1320627   0.904   7.136  17.430  0.1515 -0.3792 -0.4458
  170DOPC  H13A20628   0.904   7.242  17.452 -0.7124 -0.6394  0.9087
  170DOPC  H13B20629   0.880   7.092  17.525  1.5823  1.0802  0.6668
  170DOPC  H13C20630   1.004   7.102  17.408  0.0070 -1.7892  0.9239
  170DOPC   C1420631   0.830   6.962  17.285  0.2016 -0.0100 -0.1323
  170DOPC  H14A20632   0.925   6.946  17.236 -0.1947 -0.7942 -0.6791
  170DOPC  H14B20633   0.829   6.899  17.372 -2.2810  0.6763  0.3893
  170DOPC  H14C20634   0.758   6.926  17.213  0.3740  1.1803 -0.9314
  170DOPC   C1520635   0.665   7.133  17.366  0.2450 -0.3265 -0.0270
  170DOPC  H15A20636   0.645   7.236  17.392  1.0143 -0.3798  0.8361
  170DOPC  H15B20637   0.634   7.073  17.450  1.0816 -0.0953  0.4613
  170DOPC  H15C20638   0.589   7.115  17.291 -2.4869  1.7095  2.0175
  170DOPC   C1120639   0.753   7.172  17.087 -0.5079  0.9215  0.3326
  170DOPC  H11A20640   0.648   7.160  17.119 -0.1909  0.4216  1.2066
  170DOPC  H11B20641   0.751   7.253  17.011 -0.5768 -2.2226 -3.3932
  170DOPC     P20642   0.902   7.027  16.910 -0.2174  0.1350  0.0363
  170DOPC   O1320643   0.888   6.885  16.863 -0.2122  0.1879 -0.1645
  170DOPC   O1420644   1.031   7.070  16.960  0.1004 -0.0859  0.2188
  170DOPC   O1220645   0.791   7.051  17.017  0.4871 -0.0511  0.3877
  170DOPC   O1120646   0.860   7.126  16.798  0.2865  0.0226 -0.3076
  170DOPC    C120647   0.725   7.111  16.743  0.0303 -0.5710  0.7546
  170DOPC    HA20648   0.674   7.208  16.762  0.6444 -0.1933  0.5066
  170DOPC    HB20649   0.664   7.024  16.777 -1.1815  0.5898  1.6503
  170DOPC    C220650   0.736   7.101  16.582 -0.5232 -0.5837 -0.0183
  170DOPC    HS20651   0.633   7.096  16.541 -1.1167  0.0741  1.3287
  170DOPC   O2120652   0.812   6.988  16.545 -0.0413  0.3560  0.0935
  170DOPC   C2120653   0.755   6.869  16.570 -0.1298 -0.2905  0.7740
  170DOPC   O2220654   0.645   6.845  16.616 -0.1014 -0.1637 -0.0639
  170DOPC   C2220655   0.858   6.757  16.520  0.0325 -0.6925 -0.6157
  170DOPC   H2R20656   0.860   6.682  16.602  0.6637 -0.8547 -0.7735
  170DOPC   H2S20657   0.964   6.791  16.515 -0.2346  0.1674 -0.5995
  170DOPC    C320658   0.799   7.236  16.532  0.3186 -0.6463  0.5284
  170DOPC    HX20659   0.897   7.254  16.580 -0.1707 -0.0088  1.3143
  170DOPC    HY20660   0.732   7.314  16.575  1.0955 -0.9017  2.2520
  170DOPC   O3120661   0.814   7.256  16.386 -0.2693  0.6888  0.2712
  170DOPC   C3120662   0.707   7.291  16.314 -0.5298  0.1867  0.0826
  170DOPC   O3220663   0.595   7.297  16.360 -0.0901  0.0420 -0.5643
  170DOPC   C3220664   0.750   7.319  16.171 -0.0445  0.4819  1.1006
  170DOPC   H2X20665   0.794   7.421  16.159  1.5238 -0.3473 -0.6933
  170DOPC   H2Y20666   0.825   7.247  16.132  1.1454  2.2999 -0.1239
  170DOPC   C2320667   0.813   6.670  16.399  0.5043  0.0022  0.5044
  170DOPC   H3R20668   0.703   6.663  16.391  0.4717  0.7441  0.1668
  170DOPC   H3S20669   0.848   6.569  16.428 -0.7242 -0.4676  0.3653
  170DOPC   C2420670   0.879   6.726  16.275  0.0210 -0.4662  0.0874
  170DOPC   H4R20671   0.849   6.651  16.198 -0.3151  0.0548 -0.2955
  170DOPC   H4S20672   0.990   6.723  16.270  0.1024  1.9730 -2.9885
  170DOPC   C2520673   0.836   6.874  16.236 -0.4098  0.2200 -0.1518
  170DOPC   H5R20674   0.864   6.948  16.314  2.8570 -0.5023 -0.4913
  170DOPC   H5S20675   0.726   6.878  16.221 -0.6660 -3.3196 -0.1763
  170DOPC   C2620676   0.892   6.923  16.103  0.2804  0.5158  0.2555
  170DOPC   H6R20677   1.002   6.914  16.106  0.2622  0.1438 -0.0646
  170DOPC   H6S20678   0.871   7.029  16.079 -1.3383  0.1737  0.0200
  170DOPC   C2720679   0.825   6.847  15.985 -0.5886  0.7542  0.1467
  170DOPC   H7R20680   0.717   6.874  15.982 -0.1200  2.9079  0.7803
  170DOPC   H7S20681   0.839   6.738  15.995 -0.1057  0.5855 -1.8487
  170DOPC   C2820682   0.875   6.878  15.844 -0.2635 -0.5476  0.6781
  170DOPC   H8R20683   0.986   6.885  15.854 -0.0577  0.4471 -1.6812
  170DOPC   H8S20684   0.846   6.983  15.823  2.0655  0.4993  2.2255
  170DOPC   C2920685   0.831   6.792  15.729  0.0559  0.3681 -0.4761
  170DOPC   H9R20686   0.886   6.697  15.730 -0.4230  0.0945  0.1446
  170DOPC  C21020687   0.736   6.818  15.634  0.6839  0.8562  0.9498
  170DOPC  H10R20688   0.724   6.749  15.549 -0.6963  1.1382  0.8856
  170DOPC  C21120689   0.656   6.940  15.617  0.2789 -0.0800  0.2329
  170DOPC  H11R20690   0.620   6.966  15.719  1.7730 -2.6008  1.4699
  170DOPC  H11S20691   0.565   6.937  15.553  0.7354 -0.0758 -0.4251
  170DOPC  C21220692   0.727   7.068  15.562 -0.0964  0.0248  0.7096
  170DOPC  H12R20693   0.808   7.081  15.637  0.5473 -0.3362  0.0858
  170DOPC  H12S20694   0.655   7.153  15.570 -0.6474 -0.6072  3.4353
  170DOPC  C21320695   0.788   7.059  15.420 -0.5727 -0.1760  0.2798
  170DOPC  H13R20696   0.856   6.971  15.421  0.9830  0.9813  1.2744
  170DOPC  H13S20697   0.862   7.141  15.407 -1.1652  0.0213 -2.2565
  170DOPC  C21420698   0.685   7.055  15.305  0.3487  0.6806  0.6035
  170DOPC  H14R20699   0.619   7.143  15.310  1.0077  1.1888  0.5379
  170DOPC  H14S20700   0.620   6.968  15.329  0.2971  0.4719 -0.2460
  170DOPC  C21520701   0.757   7.042  15.161 -0.4574 -0.2271  0.9793
  170DOPC  H15R20702   0.688   6.989  15.092  0.0445  0.0729  0.2405
  170DOPC  H15S20703   0.844   6.973  15.175  0.1695  0.2776 -0.2464
  170DOPC  C21620704   0.814   7.181  15.106 -0.4254  0.6734 -0.0061
  170DOPC  H16R20705   0.862   7.244  15.183  1.2234 -0.9761  0.4114
  170DOPC  H16S20706   0.729   7.238  15.064 -1.2942 -0.7260 -0.2286
  170DOPC  C21720707   0.923   7.162  15.001 -0.5506  0.8122 -0.5000
  170DOPC  H17R20708   1.010   7.116  15.053 -1.0784  1.2584  0.8333
  170DOPC  H17S20709   0.953   7.255  14.948  0.2957  1.6852  1.4069
  170DOPC  C21820710   0.887   7.060  14.899  0.0775  0.4487  0.9194
  170DOPC  H18R20711   0.933   7.071  14.799  0.8450  0.0600  1.2172
  170DOPC  H18S20712   0.779   7.060  14.873  0.6198  1.6540 -1.5842
  170DOPC  H18T20713   0.913   6.959  14.938 -0.0879  0.2163  0.4317
  170DOPC   C3320714   0.634   7.314  16.077  0.3766 -0.6773 -0.1622
  170DOPC   H3X20715   0.551   7.379  16.112 -0.5063 -0.4562 -2.4621
  170DOPC   H3Y20716   0.588   7.213  16.067 -0.2459 -0.5929  1.5881
  170DOPC   C3420717   0.658   7.374  15.936 -0.4658 -1.2025  0.9273
  170DOPC   H4X20718   0.740   7.322  15.882  0.3043  0.5012  0.3877
  170DOPC   H4Y20719   0.676   7.483  15.941 -2.1521 -0.7586 -1.2846
  170DOPC   C3520720   0.527   7.371  15.846 -0.1236 -0.7367 -0.1573
  170DOPC   H5X20721   0.452   7.424  15.908  0.6043  0.0844  0.0420
  170DOPC   H5Y20722   0.491   7.269  15.823 -0.7193 -0.4749 -0.4060
  170DOPC   C3620723   0.539   7.448  15.716  0.5712 -0.5895  0.3096
  170DOPC   H6X20724   0.546   7.553  15.751 -1.5647 -0.2549 -0.1699
  170DOPC   H6Y20725   0.630   7.410  15.664 -0.1980 -1.8240 -0.1776
  170DOPC   C3720726   0.423   7.430  15.626  0.1260  0.2082 -0.5389
  170DOPC   H7X20727   0.417   7.319  15.614 -1.0149  0.2643 -0.5082
  170DOPC   H7Y20728   0.329   7.447  15.681  0.0394 -1.8584  0.0634
  170DOPC   C3820729   0.434   7.515  15.498  0.7616 -0.4425  0.1223
  170DOPC   H8X20730   0.528   7.484  15.448  0.0415 -0.6056 -1.1581
  170DOPC   H8Y20731   0.446   7.623  15.523  1.3976 -0.4141 -0.2784
  170DOPC   C3920732   0.324   7.496  15.394  0.8263  0.0826 -0.2208
  170DOPC   H9X20733   0.327   7.393  15.356 -2.8368 -0.7596  1.3748
  170DOPC  C31020734   0.230   7.573  15.350  0.3874 -0.2608  0.5812
  170DOPC  H10X20735   0.167   7.544  15.265 -0.2924 -2.8818  1.8575
  170DOPC  C31120736   0.208   7.712  15.401 -0.5481  0.4435 -0.3285
  170DOPC  H11X20737   0.274   7.738  15.486 -0.1145 -0.8697 -0.2416
  170DOPC  H11Y20738   0.105   7.727  15.439 -0.5338 -1.0457  0.3467
  170DOPC  C31220739   0.235   7.815  15.290  0.0514 -0.1043  0.2425
  170DOPC  H12X20740   0.338   7.815  15.247 -0.1487  0.9497 -0.2752
  170DOPC  H12Y20741   0.215   7.917  15.329  0.2237 -0.1691  0.5058
  170DOPC  C31320742   0.136   7.800  15.170 -0.1929 -0.6019  0.2144
  170DOPC  H13X20743   0.175   7.874  15.098  1.9794 -1.4811  0.4114
  170DOPC  H13Y20744   0.150   7.699  15.124 -0.4865 -0.0949 -1.0146
  170DOPC  C31420745  -0.011   7.830  15.209 -0.5640 -0.0076 -0.5835
  170DOPC  H14X20746  -0.046   7.770  15.296  0.6468 -0.5765 -0.4688
  170DOPC  H14Y20747  -0.010   7.935  15.245 -1.4969  0.1677 -1.0255
  170DOPC  C31520748  -0.104   7.822  15.082  0.3684  0.1702 -1.1093
  170DOPC  H15X20749  -0.113   7.720  15.040  0.7184  0.2824 -1.4616
  170DOPC  H15Y20750  -0.072   7.894  15.004 -1.0521  1.5065 -0.5151
  170DOPC  C31620751  -0.248   7.860  15.125 -0.0286  0.3577 -0.4650
  170DOPC  H16X20752  -0.309   7.818  15.042  0.3716 -1.1980 -0.0125
  170DOPC  H16Y20753  -0.279   7.812  15.221 -0.1486 -1.4172 -1.3488
  170DOPC  C31720754  -0.261   8.013  15.131  0.1014 -0.0804  0.5186
  170DOPC  H17X20755  -0.215   8.043  15.228 -1.4548  0.1685  1.2091
  170DOPC  H17Y20756  -0.200   8.063  15.053 -1.8446  4.4335  1.5781
  170DOPC  C31820757  -0.396   8.080  15.121  0.5947  0.7931  0.1238
  170DOPC  H18X20758  -0.448   8.089  15.219  0.6721 -0.8469  0.3433
  170DOPC  H18Y20759  -0.385   8.180  15.075  1.1380  0.3004 -0.8641
  170DOPC  H18Z20760  -0.458   8.016  15.055 -3.8749  2.4112  2.3359
  171DOPC     N20761   4.848   3.308  12.548  0.2700  0.4977 -0.2088
  171DOPC   C1220762   4.952   3.212  12.607 -0.2985 -0.1612 -0.9011
  171DOPC  H12A20763   5.012   3.180  12.523 -0.2046  1.7086 -1.5902
  171DOPC  H12B20764   4.904   3.125  12.648 -0.2457  0.5411  0.7400
  171DOPC   C1320765   4.916   3.409  12.458 -0.6516  0.1457 -0.5216
  171DOPC  H13A20766   4.959   3.353  12.377 -1.8650 -1.2421 -0.2534
  171DOPC  H13B20767   4.863   3.493  12.416 -1.0514  0.2711  0.2123
  171DOPC  H13C20768   4.996   3.465  12.504 -2.0639  2.7157 -0.9997
  171DOPC   C1420769   4.755   3.374  12.650 -0.3072 -0.1501 -1.1205
  171DOPC  H14A20770   4.744   3.299  12.728  1.1161 -0.8983 -1.5960
  171DOPC  H14B20771   4.801   3.453  12.708  0.4482 -1.2035 -0.2367
  171DOPC  H14C20772   4.654   3.384  12.613 -0.7259 -0.0657  0.0018
  171DOPC   C1520773   4.760   3.223  12.452  1.2014 -0.2022  0.2303
  171DOPC  H15A20774   4.690   3.288  12.403  1.7234  0.3442  0.1893
  171DOPC  H15B20775   4.696   3.156  12.507  0.2551 -0.5611 -1.2605
  171DOPC  H15C20776   4.828   3.177  12.381  4.3552  1.3092  2.0342
  171DOPC   C1120777   5.037   3.273  12.718  0.2987 -0.7690  0.0641
  171DOPC  H11A20778   5.135   3.224  12.735  0.8123  0.3694  0.4995
  171DOPC  H11B20779   5.061   3.373  12.676 -1.6841 -0.7012 -1.0338
  171DOPC     P20780   4.964   3.197  12.968 -0.4546  0.1831 -0.0709
  171DOPC   O1320781   5.087   3.121  12.972 -1.1550  0.9572  0.7413
  171DOPC   O1420782   4.842   3.115  12.970 -0.0079 -0.0828 -0.0022
  171DOPC   O1220783   4.967   3.294  12.840  0.2976  0.5355 -0.3713
  171DOPC   O1120784   4.972   3.296  13.091  0.3794  0.1889 -0.3994
  171DOPC    C120785   5.097   3.372  13.099 -0.2939  0.5140  0.4487
  171DOPC    HA20786   5.089   3.471  13.048 -2.2494 -1.2908 -3.1543
  171DOPC    HB20787   5.177   3.322  13.040  0.4186  0.6794  1.2560
  171DOPC    C220788   5.144   3.397  13.240  0.0560  0.6397 -0.4814
  171DOPC    HS20789   5.218   3.480  13.234  0.2587  0.3754 -2.9039
  171DOPC   O2120790   5.200   3.275  13.297  0.0650  0.4270  0.1613
  171DOPC   C2120791   5.320   3.251  13.245  0.8209 -0.2542  0.0681
  171DOPC   O2220792   5.386   3.322  13.167  0.1573 -0.1560 -0.0390
  171DOPC   C2220793   5.357   3.112  13.275 -0.2487  0.9091 -0.2386
  171DOPC   H2R20794   5.268   3.048  13.265  0.0653  0.5526 -0.8156
  171DOPC   H2S20795   5.373   3.102  13.384 -0.4525 -0.5756 -0.3252
  171DOPC    C320796   5.028   3.436  13.328  0.6565 -0.1867 -0.1345
  171DOPC    HX20797   4.949   3.359  13.319 -0.8391  1.2007  0.5401
  171DOPC    HY20798   4.976   3.525  13.285  0.3950 -0.4032 -0.2702
  171DOPC   O3120799   5.061   3.467  13.464 -0.0622 -0.5306 -0.5402
  171DOPC   C3120800   5.040   3.358  13.551 -1.1489 -0.4937 -0.2387
  171DOPC   O3220801   5.004   3.250  13.515 -0.5281  0.4310 -0.1339
  171DOPC   C3220802   5.094   3.388  13.686 -0.2228 -0.1341  0.0163
  171DOPC   H2X20803   5.158   3.478  13.677 -0.2332 -0.2184 -0.9901
  171DOPC   H2Y20804   5.007   3.416  13.749  1.0981  0.9422  1.4333
  171DOPC   C2320805   5.476   3.041  13.206  0.6805  0.3737  0.4193
  171DOPC   H3R20806   5.492   3.070  13.100 -0.0218  0.8502  0.4428
  171DOPC   H3S20807   5.465   2.930  13.206  0.5476  0.3862  0.9768
  171DOPC   C2420808   5.615   3.066  13.270 -0.3670  0.1305 -0.1013
  171DOPC   H4R20809   5.608   3.162  13.325 -0.7667  0.5237 -0.8258
  171DOPC   H4S20810   5.680   3.077  13.180 -4.0131 -1.8189 -3.3264
  171DOPC   C2520811   5.672   2.955  13.359 -0.5704  0.1349 -0.3502
  171DOPC   H5R20812   5.670   2.856  13.309 -0.5983 -0.9581  1.7054
  171DOPC   H5S20813   5.598   2.936  13.440  0.3012 -0.0869  0.4053
  171DOPC   C2620814   5.801   2.997  13.425 -0.7061  0.3060  0.3065
  171DOPC   H6R20815   5.793   3.084  13.494 -0.1439  0.4749  0.1694
  171DOPC   H6S20816   5.874   3.024  13.345 -0.0414  0.3177  0.9017
  171DOPC   C2720817   5.857   2.875  13.502 -0.2870 -0.5088 -0.1528
  171DOPC   H7R20818   5.854   2.781  13.443 -0.3638 -1.1231  0.8050
  171DOPC   H7S20819   5.778   2.855  13.577  1.0291  0.7748  1.6739
  171DOPC   C2820820   5.997   2.902  13.576 -0.0758 -0.2154 -0.2239
  171DOPC   H8R20821   5.987   2.971  13.663  0.5884  0.6918 -0.8552
  171DOPC   H8S20822   6.060   2.958  13.504  2.0331 -1.1410  0.8214
  171DOPC   C2920823   6.062   2.765  13.617 -0.4924  0.0747 -0.5741
  171DOPC   H9R20824   6.031   2.675  13.563 -2.1102 -0.3704  1.0023
  171DOPC  C21020825   6.159   2.758  13.714  0.9731 -0.1703  0.8068
  171DOPC  H10R20826   6.192   2.658  13.745 -0.7336 -1.2715 -0.7434
  171DOPC  C21120827   6.208   2.876  13.787  0.3763  0.3372  0.1650
  171DOPC  H11R20828   6.175   2.886  13.892  1.4930 -1.6368  0.7510
  171DOPC  H11S20829   6.177   2.969  13.733  1.8906  0.5614 -0.3753
  171DOPC  C21220830   6.365   2.876  13.789  0.4058 -0.6361 -0.4307
  171DOPC  H12R20831   6.391   2.981  13.815 -1.6766  0.3427 -2.0277
  171DOPC  H12S20832   6.404   2.844  13.689  2.3379  0.2172 -0.0024
  171DOPC  C21320833   6.419   2.779  13.897 -0.4114 -0.5627 -0.2031
  171DOPC  H13R20834   6.396   2.677  13.860  0.9297 -0.8522 -0.2659
  171DOPC  H13S20835   6.364   2.800  13.992  0.4805  0.5658  0.0936
  171DOPC  C21420836   6.567   2.797  13.925  0.6076 -0.3132  0.0313
  171DOPC  H14R20837   6.551   2.894  13.978 -0.9498  0.9313 -2.5121
  171DOPC  H14S20838   6.625   2.814  13.831  1.0506 -0.0921  0.3401
  171DOPC  C21520839   6.627   2.688  14.016  0.3506  0.6777  0.0881
  171DOPC  H15R20840   6.723   2.721  14.059 -0.6609 -0.3170  3.3640
  171DOPC  H15S20841   6.646   2.604  13.945 -0.8381 -0.5429  1.1763
  171DOPC  C21620842   6.533   2.641  14.120 -0.2857 -0.3067  0.3731
  171DOPC  H16R20843   6.438   2.603  14.077 -0.5223 -0.3607  0.9286
  171DOPC  H16S20844   6.510   2.720  14.195  1.6464  0.8394 -0.1686
  171DOPC  C21720845   6.586   2.513  14.187 -0.7288 -0.0333 -0.3406
  171DOPC  H17R20846   6.677   2.530  14.248 -2.4135  2.5239  1.6829
  171DOPC  H17S20847   6.591   2.433  14.110 -1.3010  0.1960 -0.6178
  171DOPC  C21820848   6.476   2.468  14.282  0.0756  0.1365  0.3048
  171DOPC  H18R20849   6.379   2.436  14.239  0.0530 -1.4942  1.4637
  171DOPC  H18S20850   6.459   2.540  14.365  2.0867  1.0052  0.0227
  171DOPC  H18T20851   6.504   2.372  14.330 -2.0671 -1.5773 -1.6595
  171DOPC   C3320852   5.153   3.257  13.743  0.5357  0.0432 -0.2098
  171DOPC   H3X20853   5.080   3.174  13.750 -0.5642  1.0308  0.3205
  171DOPC   H3Y20854   5.183   3.288  13.845  0.4889 -1.1457  0.1749
  171DOPC   C3420855   5.275   3.220  13.665 -0.8847  0.1698  0.2386
  171DOPC   H4X20856   5.333   3.311  13.637  0.6959 -0.8588  0.0066
  171DOPC   H4Y20857   5.247   3.163  13.575  0.7975  2.0833 -1.6118
  171DOPC   C3520858   5.375   3.127  13.743  0.2335  0.6058  0.5011
  171DOPC   H5X20859   5.332   3.024  13.750 -1.4638  1.3711  2.3091
  171DOPC   H5Y20860   5.363   3.162  13.848 -0.9564 -1.3861  1.1041
  171DOPC   C3620861   5.515   3.136  13.685  0.1998  1.0683 -0.0475
  171DOPC   H6X20862   5.517   3.089  13.584  0.5238  1.8472 -0.4109
  171DOPC   H6Y20863   5.541   3.243  13.670 -0.5339  1.3761  0.7604
  171DOPC   C3720864   5.613   3.065  13.771 -0.4157 -0.2212 -0.8458
  171DOPC   H7X20865   5.579   2.963  13.799 -0.2680  0.5330  2.4799
  171DOPC   H7Y20866   5.709   3.063  13.715  0.6662  0.4284  0.8955
  171DOPC   C3820867   5.644   3.134  13.906 -0.1213 -0.8548 -0.0084
  171DOPC   H8X20868   5.546   3.151  13.956 -0.9297  0.6086 -1.9600
  171DOPC   H8Y20869   5.682   3.234  13.876  0.3129 -0.8432  0.5492
  171DOPC   C3920870   5.750   3.055  13.979  0.3119 -0.2747 -0.4036
  171DOPC   H9X20871   5.824   2.999  13.921 -2.1951 -2.5106 -1.6964
  171DOPC  C31020872   5.745   3.047  14.114 -0.0835 -0.5876  0.5275
  171DOPC  H10X20873   5.830   2.990  14.155  0.9157 -0.8084 -1.7430
  171DOPC  C31120874   5.651   3.116  14.205  0.5703 -0.9459 -0.3337
  171DOPC  H11X20875   5.582   3.039  14.247  0.8303 -0.6044  0.7468
  171DOPC  H11Y20876   5.601   3.202  14.155  3.2204  0.2970 -1.0375
  171DOPC  C31220877   5.728   3.177  14.324  1.3330  0.1230  0.3913
  171DOPC  H12X20878   5.667   3.267  14.350  1.1543 -0.2970  1.4924
  171DOPC  H12Y20879   5.814   3.231  14.279 -0.5478  0.0916 -3.6279
  171DOPC  C31320880   5.748   3.085  14.439 -0.1980  0.4402 -0.4147
  171DOPC  H13X20881   5.648   3.064  14.482  0.4671  0.5226  1.2527
  171DOPC  H13Y20882   5.783   2.987  14.398  1.3757  0.6582  0.3312
  171DOPC  C31420883   5.849   3.146  14.541 -0.3168 -0.1000 -0.0693
  171DOPC  H14X20884   5.864   3.089  14.635 -3.1287 -3.4190 -1.4185
  171DOPC  H14Y20885   5.952   3.148  14.499 -0.2723 -3.1713 -0.3331
  171DOPC  C31520886   5.811   3.289  14.581 -0.0893  0.5184 -0.4789
  171DOPC  H15X20887   5.710   3.283  14.628  1.0129 -0.4974  1.8768
  171DOPC  H15Y20888   5.793   3.358  14.496 -0.8659 -1.9417 -2.4379
  171DOPC  C31620889   5.910   3.338  14.681  0.0338  0.2067 -0.7516
  171DOPC  H16X20890   5.920   3.281  14.776  0.1511 -1.7071 -1.8625
  171DOPC  H16Y20891   6.008   3.335  14.630  0.8449  1.6611  0.6278
  171DOPC  C31720892   5.890   3.487  14.717 -0.4467 -0.1213 -0.8862
  171DOPC  H17X20893   5.987   3.534  14.746  0.0914 -1.6084 -0.1667
  171DOPC  H17Y20894   5.855   3.555  14.636 -1.7469  1.6307  1.0485
  171DOPC  C31820895   5.794   3.493  14.839  0.1559  0.1938  0.2270
  171DOPC  H18X20896   5.762   3.595  14.871 -1.3390 -0.0835 -0.3128
  171DOPC  H18Y20897   5.709   3.424  14.823 -0.2079  0.4841  0.8635
  171DOPC  H18Z20898   5.849   3.446  14.923 -0.5675  0.1538  0.6859
  172DOPC     N20899   4.611   5.006  12.815  0.3800  0.2054 -0.0009
  172DOPC   C1220900   4.674   5.009  12.953 -0.6940 -0.0249  0.0244
  172DOPC  H12A20901   4.733   5.100  12.956 -1.5356  0.5103  1.7021
  172DOPC  H12B20902   4.738   4.922  12.947 -0.8861 -0.1015 -1.5896
  172DOPC   C1320903   4.494   5.109  12.799  0.1879  0.4437 -0.2194
  172DOPC  H13A20904   4.450   5.105  12.701  0.3656  0.3867 -0.2981
  172DOPC  H13B20905   4.415   5.079  12.866 -0.3691  1.6219 -0.3200
  172DOPC  H13C20906   4.533   5.207  12.822  1.2340 -0.1670  0.7186
  172DOPC   C1420907   4.576   4.855  12.794 -0.5567 -1.1071 -0.6473
  172DOPC  H14A20908   4.523   4.827  12.705 -0.1916 -2.9517 -0.3218
  172DOPC  H14B20909   4.664   4.793  12.792  0.6236  0.3060  1.8099
  172DOPC  H14C20910   4.515   4.823  12.878 -0.0828 -0.7868 -0.1779
  172DOPC   C1520911   4.715   5.047  12.722  0.1257 -0.3612  0.0954
  172DOPC  H15A20912   4.805   5.000  12.760  0.7900  0.8440  0.0789
  172DOPC  H15B20913   4.743   5.151  12.729 -0.4093 -0.2185  0.1434
  172DOPC  H15C20914   4.703   5.001  12.625  2.2612 -0.4145 -0.1972
  172DOPC   C1120915   4.592   4.991  13.073  0.3826  0.0215 -0.7008
  172DOPC  H11A20916   4.636   5.025  13.169 -0.0365  0.1182 -0.5402
  172DOPC  H11B20917   4.499   5.052  13.065  0.1560 -0.3054 -0.5729
  172DOPC     P20918   4.648   4.746  13.131 -0.1009  0.2525 -0.1627
  172DOPC   O1320919   4.792   4.785  13.096 -0.3274 -0.4868 -0.1497
  172DOPC   O1420920   4.603   4.615  13.084 -0.2551 -0.3431 -0.0261
  172DOPC   O1220921   4.551   4.861  13.085  0.1190  0.0456  0.1305
  172DOPC   O1120922   4.638   4.742  13.291  0.2270  0.0424  0.2204
  172DOPC    C120923   4.523   4.794  13.358  0.0915 -0.1346  0.6279
  172DOPC    HA20924   4.488   4.894  13.325 -0.2084 -0.2605  0.5611
  172DOPC    HB20925   4.550   4.814  13.464 -2.5405 -0.8096  1.5165
  172DOPC    C220926   4.411   4.688  13.362 -0.3242 -0.0466 -0.6302
  172DOPC    HS20927   4.386   4.655  13.259 -0.2019 -1.7813 -0.1397
  172DOPC   O2120928   4.296   4.753  13.429  0.3382  0.9318 -0.1923
  172DOPC   C2120929   4.175   4.698  13.409  0.8067  0.0306 -0.8787
  172DOPC   O2220930   4.151   4.617  13.321 -0.0753  0.3400  0.4393
  172DOPC   C2220931   4.070   4.750  13.504  0.0759  0.0210  0.8174
  172DOPC   H2R20932   3.976   4.701  13.471 -0.3227  1.8326 -0.9062
  172DOPC   H2S20933   4.048   4.859  13.500  2.3436  0.4834 -0.1914
  172DOPC    C320934   4.461   4.554  13.427 -0.1776  0.0522 -0.5252
  172DOPC    HX20935   4.558   4.530  13.379  1.3233 -0.7480  2.6198
  172DOPC    HY20936   4.390   4.472  13.403 -2.5045  1.9726 -0.5772
  172DOPC   O3120937   4.465   4.568  13.567 -0.2154  0.5329  0.4735
  172DOPC   C3120938   4.546   4.479  13.626 -0.5309 -0.2121  0.2143
  172DOPC   O3220939   4.608   4.396  13.572  0.1147 -0.0526 -0.2711
  172DOPC   C3220940   4.563   4.529  13.772 -0.2698 -0.0169  0.4547
  172DOPC   H2X20941   4.671   4.547  13.790 -0.1749  1.2998 -1.2149
  172DOPC   H2Y20942   4.518   4.631  13.774 -0.7328 -0.2212  1.2724
  172DOPC   C2320943   4.101   4.704  13.653 -0.2867  0.2675  0.0252
  172DOPC   H3R20944   4.190   4.764  13.680 -1.1535  1.3277  0.6215
  172DOPC   H3S20945   4.127   4.596  13.659 -0.0164  0.3182 -0.1953
  172DOPC   C2420946   3.977   4.734  13.736  0.5104 -0.4611 -0.8173
  172DOPC   H4R20947   4.015   4.703  13.836  1.8037  0.9984 -0.8217
  172DOPC   H4S20948   3.894   4.668  13.701 -0.3993  0.1755  0.0647
  172DOPC   C2520949   3.940   4.884  13.734  0.3706  0.0036 -0.9694
  172DOPC   H5R20950   3.876   4.919  13.651 -1.4267  0.3267  0.4775
  172DOPC   H5S20951   4.028   4.951  13.723  0.9262 -0.3417  1.0079
  172DOPC   C2620952   3.869   4.915  13.867  0.8031  0.1940 -0.0468
  172DOPC   H6R20953   3.934   4.892  13.954 -2.6494  1.1780  3.0236
  172DOPC   H6S20954   3.773   4.859  13.872  1.3633 -0.8457 -0.5800
  172DOPC   C2720955   3.833   5.067  13.887 -0.1004  0.4794 -0.5987
  172DOPC   H7R20956   3.793   5.103  13.789 -0.9517 -1.7238 -1.1096
  172DOPC   H7S20957   3.939   5.094  13.904  0.6305 -0.8450 -2.6579
  172DOPC   C2820958   3.737   5.090  14.002 -0.4488 -0.4731 -0.0768
  172DOPC   H8R20959   3.778   5.046  14.095 -0.0093 -0.8136 -0.4295
  172DOPC   H8S20960   3.646   5.032  13.975  0.7383 -1.9527 -1.0304
  172DOPC   C2920961   3.710   5.239  14.042  0.5598  0.1250  0.6108
  172DOPC   H9R20962   3.798   5.301  14.069  0.4567  2.0624 -2.8983
  172DOPC  C21020963   3.589   5.293  14.039  0.6901 -0.6500 -0.1035
  172DOPC  H10R20964   3.581   5.400  14.064 -0.9265 -0.6319 -0.6111
  172DOPC  C21120965   3.456   5.229  13.996 -0.0861  0.7421  0.8701
  172DOPC  H11R20966   3.459   5.146  13.922  1.0515 -0.1858  1.9043
  172DOPC  H11S20967   3.396   5.308  13.948  1.0595 -0.0175 -1.9969
  172DOPC  C21220968   3.395   5.175  14.127  0.0507  0.1428 -0.3369
  172DOPC  H12R20969   3.457   5.099  14.178  0.9410  0.2934 -1.1599
  172DOPC  H12S20970   3.305   5.118  14.098 -0.1976 -0.1642  0.9973
  172DOPC  C21320971   3.353   5.287  14.230  0.6596 -0.1540 -0.2259
  172DOPC  H13R20972   3.274   5.350  14.184 -0.6396 -0.1924  1.7952
  172DOPC  H13S20973   3.436   5.355  14.256  1.9738 -2.1819  1.2540
  172DOPC  C21420974   3.296   5.228  14.356  0.6479  0.3345 -0.1240
  172DOPC  H14R20975   3.380   5.175  14.406  4.1144  3.6911 -1.8182
  172DOPC  H14S20976   3.208   5.169  14.324  0.1649  0.6207  0.6513
  172DOPC  C21520977   3.247   5.333  14.459 -0.2880 -0.2696 -0.2166
  172DOPC  H15R20978   3.160   5.392  14.424  0.4665  0.4130 -0.9739
  172DOPC  H15S20979   3.335   5.401  14.462  0.3569 -1.0896  0.3347
  172DOPC  C21620980   3.229   5.280  14.601 -0.2322  0.3884  0.8598
  172DOPC  H16R20981   3.221   5.362  14.675  1.2341 -0.1874  1.6936
  172DOPC  H16S20982   3.320   5.221  14.625  0.0570  0.5892  0.2666
  172DOPC  C21720983   3.100   5.190  14.610 -0.4036 -0.2979  0.1001
  172DOPC  H17R20984   3.112   5.123  14.522  1.2243 -0.5455  0.4769
  172DOPC  H17S20985   3.016   5.261  14.590  1.4128  1.7580 -0.6581
  172DOPC  C21820986   3.085   5.111  14.734 -0.0693  0.7245  0.8245
  172DOPC  H18R20987   2.983   5.069  14.746  0.8136 -1.2254  2.0881
  172DOPC  H18S20988   3.121   5.170  14.822 -1.2532  1.5002  0.8079
  172DOPC  H18T20989   3.147   5.019  14.738  0.0404  0.8216  1.5688
  172DOPC   C3320990   4.498   4.434  13.877 -0.4141 -0.2539  0.3283
  172DOPC   H3X20991   4.539   4.332  13.861 -0.7427 -0.6114  1.6379
  172DOPC   H3Y20992   4.387   4.437  13.875 -0.4139 -0.3423  0.1367
  172DOPC   C3420993   4.544   4.472  14.018  0.1173 -0.0827 -0.5801
  172DOPC   H4X20994   4.546   4.582  14.032 -1.3915 -0.2052  0.8179
  172DOPC   H4Y20995   4.647   4.437  14.043 -0.5355 -1.6917  0.0053
  172DOPC   C3520996   4.462   4.414  14.131 -0.3988 -0.2694  0.1568
  172DOPC   H5X20997   4.451   4.304  14.123 -0.8749 -0.2431  0.4184
  172DOPC   H5Y20998   4.362   4.461  14.132  0.9087  2.7463 -0.0726
  172DOPC   C3620999   4.518   4.456  14.267  0.4670  0.4404  0.3952
  172DOPC   H6X21000   4.613   4.400  14.271 -1.7259 -3.7258 -0.0103
  172DOPC   H6Y21001   4.532   4.565  14.257  1.0232  0.3873  0.5811
  172DOPC   C3721002   4.430   4.401  14.380 -0.1291  0.7201 -0.1691
  172DOPC   H7X21003   4.326   4.426  14.352 -0.0307  4.3173  2.0221
  172DOPC   H7Y21004   4.447   4.292  14.370 -3.2289  0.2804 -1.7922
  172DOPC   C3821005   4.458   4.464  14.517  0.2952 -0.6005  0.4530
  172DOPC   H8X21006   4.368   4.464  14.582  0.1580  0.1432  0.2754
  172DOPC   H8Y21007   4.472   4.573  14.499  0.4927 -0.6647  0.2025
  172DOPC   C3921008   4.583   4.422  14.585 -0.1195  0.5441 -0.2870
  172DOPC   H9X21009   4.679   4.431  14.532  1.7661  0.5136  2.8691
  172DOPC  C31021010   4.593   4.380  14.711  0.6846  0.5160  0.3658
  172DOPC  H10X21011   4.681   4.326  14.748 -0.0115  0.5966  2.2355
  172DOPC  C31121012   4.474   4.368  14.808  0.3010  1.0625  0.6258
  172DOPC  H11X21013   4.431   4.265  14.805  1.7756  0.4394 -2.4142
  172DOPC  H11Y21014   4.389   4.437  14.792 -1.7039 -0.3902  3.8218
  172DOPC  C31221015   4.519   4.380  14.957  0.0260 -0.3572  0.3519
  172DOPC  H12X21016   4.556   4.483  14.973  1.6498 -0.8717  0.0267
  172DOPC  H12Y21017   4.607   4.314  14.973  0.5046 -0.1296 -1.2025
  172DOPC  C31321018   4.410   4.340  15.059  0.2966  0.4136  0.0744
  172DOPC  H13X21019   4.374   4.241  15.025  0.3861  0.3690  0.1078
  172DOPC  H13Y21020   4.457   4.336  15.159  0.0603 -1.5475  0.1449
  172DOPC  C31421021   4.290   4.435  15.055 -0.9374 -0.0554 -0.4507
  172DOPC  H14X21022   4.335   4.536  15.049 -0.7505 -0.1626 -0.9361
  172DOPC  H14Y21023   4.228   4.421  14.963  0.1540  1.6827 -1.5066
  172DOPC  C31521024   4.197   4.447  15.175  0.4379  0.4927 -0.3116
  172DOPC  H15X21025   4.112   4.515  15.154 -0.3613 -0.2057  0.5928
  172DOPC  H15Y21026   4.252   4.501  15.254 -0.9595  1.1570  0.2235
  172DOPC  C31621027   4.148   4.307  15.231 -0.2301 -0.0372  0.1505
  172DOPC  H16X21028   4.089   4.257  15.151 -2.0298  1.3664  0.5333
  172DOPC  H16Y21029   4.232   4.244  15.269  0.5235  0.5612 -0.4793
  172DOPC  C31721030   4.058   4.334  15.353  0.1260 -0.5013  0.2021
  172DOPC  H17X21031   4.108   4.399  15.427  0.4688  0.3428 -0.7446
  172DOPC  H17Y21032   3.968   4.388  15.318 -0.2286  0.3738  2.2998
  172DOPC  C31821033   4.011   4.206  15.430  0.0922 -0.7582 -0.3621
  172DOPC  H18X21034   3.927   4.157  15.376 -1.5588  3.3391 -1.8971
  172DOPC  H18Y21035   4.099   4.146  15.460  0.8196 -0.5581 -1.9574
  172DOPC  H18Z21036   3.960   4.234  15.524  0.8460 -1.2663  0.2136
  173DOPC     N21037   4.173   2.788  13.023  1.0267  0.2691 -0.4463
  173DOPC   C1221038   4.227   2.718  13.149  0.3775  0.0752  0.1383
  173DOPC  H12A21039   4.318   2.763  13.184 -0.2488  1.0088  0.6068
  173DOPC  H12B21040   4.266   2.621  13.125  2.6132  0.4877  1.8195
  173DOPC   C1321041   4.079   2.695  12.947  0.7853 -0.1236  0.3531
  173DOPC  H13A21042   4.133   2.610  12.908 -0.4792 -0.6811 -0.2561
  173DOPC  H13B21043   4.003   2.663  13.018 -0.6792  1.6659 -0.3325
  173DOPC  H13C21044   4.045   2.749  12.860 -0.6820 -0.6454  0.5578
  173DOPC   C1421045   4.283   2.820  12.932 -1.1174 -0.6260  0.1191
  173DOPC  H14A21046   4.348   2.736  12.911  0.3324  0.0373  1.8120
  173DOPC  H14B21047   4.246   2.875  12.847  0.6685  0.7842  0.2025
  173DOPC  H14C21048   4.347   2.897  12.970 -0.9317 -0.5034 -0.4275
  173DOPC   C1521049   4.099   2.916  13.052 -0.5879  0.5037 -0.6353
  173DOPC  H15A21050   4.013   2.902  13.116  0.1911 -1.2094  0.0877
  173DOPC  H15B21051   4.058   2.969  12.967  0.5621  2.7825  0.1441
  173DOPC  H15C21052   4.167   2.984  13.101  1.1500 -0.5643 -1.4499
  173DOPC   C1121053   4.123   2.687  13.258  0.1134  0.0347 -0.1973
  173DOPC  H11A21054   4.176   2.627  13.335  1.1145 -0.6333 -1.3712
  173DOPC  H11B21055   4.098   2.790  13.292  2.4556  1.2890 -1.9993
  173DOPC     P21056   3.875   2.634  13.283  0.0803 -0.2692  0.5471
  173DOPC   O1321057   3.773   2.541  13.229  0.4156 -0.2064 -0.1023
  173DOPC   O1421058   3.850   2.779  13.276  0.2749 -0.5049  0.4675
  173DOPC   O1221059   4.015   2.611  13.213 -0.5881 -0.2512  0.1330
  173DOPC   O1121060   3.923   2.602  13.429  0.5485  0.3010 -0.4389
  173DOPC    C121061   3.910   2.464  13.471  0.3683 -0.4643 -0.2904
  173DOPC    HA21062   3.977   2.403  13.406  1.2603  1.4931 -1.2933
  173DOPC    HB21063   3.805   2.431  13.457  0.0443  0.4016  0.0686
  173DOPC    C221064   3.930   2.435  13.622  0.1844 -0.9885 -0.6052
  173DOPC    HS21065   3.883   2.338  13.652 -2.3624 -0.1220 -1.4643
  173DOPC   O2121066   3.869   2.544  13.705  0.1028 -0.6316  0.0461
  173DOPC   C2121067   3.741   2.572  13.701  0.1173 -0.3881 -1.0870
  173DOPC   O2221068   3.654   2.504  13.647  0.1736 -0.1825 -0.0032
  173DOPC   C2221069   3.716   2.701  13.768 -0.6611 -0.0522 -0.1562
  173DOPC   H2R21070   3.659   2.763  13.696 -0.7933  0.2795  0.2318
  173DOPC   H2S21071   3.811   2.756  13.787 -0.6107 -0.2779  0.2657
  173DOPC    C321072   4.080   2.429  13.662 -0.6722 -0.3339 -0.4080
  173DOPC    HX21073   4.135   2.514  13.616 -0.5508 -0.4318 -0.4414
  173DOPC    HY21074   4.134   2.349  13.609  0.2732  0.8706 -1.3261
  173DOPC   O3121075   4.106   2.415  13.800  0.3411  0.2047 -0.2481
  173DOPC   C3121076   4.125   2.525  13.868 -0.0943 -0.8385  0.2728
  173DOPC   O3221077   4.111   2.643  13.824  0.1412 -0.0532 -0.0086
  173DOPC   C3221078   4.198   2.498  13.992  0.4319  0.2702 -0.2187
  173DOPC   H2X21079   4.138   2.426  14.052  0.4466 -1.4613 -2.1925
  173DOPC   H2Y21080   4.286   2.432  13.977 -0.3547 -0.8720  0.0072
  173DOPC   C2321081   3.641   2.693  13.901 -0.0293  0.1379 -0.0747
  173DOPC   H3R21082   3.562   2.615  13.901  0.0564  0.0184 -1.4387
  173DOPC   H3S21083   3.605   2.794  13.928 -0.6110  0.4805 -1.9484
  173DOPC   C2421084   3.738   2.653  14.016 -0.0315  0.4890 -0.2102
  173DOPC   H4R21085   3.699   2.690  14.114 -1.2259  0.8717 -0.8145
  173DOPC   H4S21086   3.832   2.712  14.007  1.9866 -1.6719  3.5647
  173DOPC   C2521087   3.771   2.496  14.021  0.0055 -0.3307  0.0323
  173DOPC   H5R21088   3.824   2.469  13.927 -0.0477 -2.6053  0.5931
  173DOPC   H5S21089   3.680   2.433  14.014 -0.4940  0.4637 -0.9001
  173DOPC   C2621090   3.853   2.437  14.145 -0.1375  0.6585 -0.7026
  173DOPC   H6R21091   3.930   2.511  14.174  0.2969  0.6826 -1.8739
  173DOPC   H6S21092   3.900   2.342  14.114 -1.8748 -1.1148  1.6662
  173DOPC   C2721093   3.751   2.408  14.266  0.4127  0.1314 -0.8102
  173DOPC   H7R21094   3.689   2.499  14.279 -0.9882 -0.3980 -3.1622
  173DOPC   H7S21095   3.806   2.391  14.360 -0.3338 -0.5978 -0.5015
  173DOPC   C2821096   3.659   2.280  14.243 -0.4133  0.0875  0.1270
  173DOPC   H8R21097   3.731   2.195  14.244  2.8901  2.6905  1.1335
  173DOPC   H8S21098   3.632   2.285  14.136 -0.6566 -1.2732  0.1057
  173DOPC   C2921099   3.536   2.260  14.335 -0.9571  0.0829  1.6061
  173DOPC   H9R21100   3.466   2.341  14.311  0.4898  0.6458 -1.1059
  173DOPC  C21021101   3.513   2.164  14.425  0.3087  0.1215  0.7969
  173DOPC  H10R21102   3.424   2.181  14.487 -0.1577 -0.3487  0.2633
  173DOPC  C21121103   3.609   2.052  14.461  0.3409 -0.5427  0.3974
  173DOPC  H11R21104   3.630   2.072  14.569  0.7382  0.2248  0.1824
  173DOPC  H11S21105   3.704   2.066  14.406 -1.4411 -0.1124 -2.7913
  173DOPC  C21221106   3.576   1.902  14.431  0.4336 -0.7502 -0.5829
  173DOPC  H12R21107   3.670   1.846  14.452  1.1102 -0.3584 -2.3161
  173DOPC  H12S21108   3.548   1.893  14.324 -0.9080 -0.8837 -0.2380
  173DOPC  C21321109   3.463   1.846  14.519 -0.1103  0.2817  0.1525
  173DOPC  H13R21110   3.434   1.749  14.474  0.9354  1.0900 -2.4126
  173DOPC  H13S21111   3.372   1.909  14.511  1.4156  3.1882  3.0480
  173DOPC  C21421112   3.481   1.849  14.674  0.8440  0.2336 -0.3983
  173DOPC  H14R21113   3.389   1.823  14.729  2.4843  1.1962  3.1076
  173DOPC  H14S21114   3.505   1.955  14.697 -1.8785  0.8509 -0.1010
  173DOPC  C21521115   3.587   1.749  14.723  0.1223 -0.3406  0.0071
  173DOPC  H15R21116   3.684   1.780  14.678 -0.9953  2.9983 -0.4354
  173DOPC  H15S21117   3.556   1.645  14.699 -1.0747  0.1121 -0.5401
  173DOPC  C21621118   3.611   1.771  14.876 -0.0450 -0.5707 -0.0291
  173DOPC  H16R21119   3.529   1.713  14.924 -0.8916  0.8760  0.3172
  173DOPC  H16S21120   3.595   1.874  14.912 -0.7541 -0.2871 -1.1149
  173DOPC  C21721121   3.743   1.708  14.936  0.1668  0.3084 -0.1557
  173DOPC  H17R21122   3.739   1.727  15.046  1.2603 -1.8800  0.3043
  173DOPC  H17S21123   3.834   1.759  14.898  0.8701  1.8756  3.1962
  173DOPC  C21821124   3.752   1.562  14.898 -0.5251  0.3390  0.1661
  173DOPC  H18R21125   3.855   1.528  14.921 -0.8267 -0.4044  0.4278
  173DOPC  H18S21126   3.738   1.551  14.788 -2.3039  0.1172  0.3958
  173DOPC  H18T21127   3.669   1.506  14.945  0.7737 -1.1758  0.7322
  173DOPC   C3321128   4.214   2.614  14.092 -0.3496 -0.6383  0.4205
  173DOPC   H3X21129   4.116   2.632  14.141 -1.7589 -0.8202 -2.1665
  173DOPC   H3Y21130   4.229   2.710  14.037 -2.9694 -0.5585 -0.2835
  173DOPC   C3421131   4.316   2.595  14.198 -0.6016  0.0654 -0.5936
  173DOPC   H4X21132   4.311   2.686  14.262 -0.4749 -0.4794  0.2162
  173DOPC   H4Y21133   4.417   2.590  14.155 -0.8970 -0.9664 -1.1939
  173DOPC   C3521134   4.297   2.485  14.300 -0.0137  0.2608 -0.2609
  173DOPC   H5X21135   4.331   2.388  14.260  0.4614  0.5826 -0.6516
  173DOPC   H5Y21136   4.192   2.483  14.337  0.2239 -0.0100  0.4095
  173DOPC   C3621137   4.392   2.510  14.418 -0.5907  0.2294 -0.6762
  173DOPC   H6X21138   4.497   2.502  14.382 -1.0251 -1.4682 -1.6654
  173DOPC   H6Y21139   4.390   2.611  14.465  2.4308 -0.7522  1.9075
  173DOPC   C3721140   4.372   2.408  14.539 -0.0510 -0.7715  0.2656
  173DOPC   H7X21141   4.424   2.447  14.629  2.4509 -1.0475 -0.9654
  173DOPC   H7Y21142   4.263   2.396  14.558 -0.9179 -1.4909 -4.1070
  173DOPC   C3821143   4.426   2.261  14.506 -0.1966  0.9860  0.0158
  173DOPC   H8X21144   4.359   2.222  14.427 -1.3936 -0.5204  1.6781
  173DOPC   H8Y21145   4.416   2.200  14.599  1.5784  1.1246  0.3218
  173DOPC   C3921146   4.566   2.269  14.462 -0.2979  0.4119  0.1970
  173DOPC   H9X21147   4.635   2.300  14.541 -1.3560  2.4122  0.4212
  173DOPC  C31021148   4.614   2.228  14.342 -0.9320 -0.4166 -0.6429
  173DOPC  H10X21149   4.721   2.250  14.323 -0.7009 -0.7740  0.2388
  173DOPC  C31121150   4.532   2.178  14.224 -0.0562 -0.3805  0.3201
  173DOPC  H11X21151   4.432   2.225  14.217  0.8567  1.4848 -0.9414
  173DOPC  H11Y21152   4.519   2.069  14.240  2.3269 -0.8361 -0.4530
  173DOPC  C31221153   4.616   2.193  14.095 -0.4866 -0.7919  0.4353
  173DOPC  H12X21154   4.567   2.140  14.010 -0.5677 -0.7606  0.4626
  173DOPC  H12Y21155   4.708   2.136  14.118  0.2652 -0.5999 -1.8864
  173DOPC  C31321156   4.652   2.344  14.064  0.7794 -0.3914 -0.2736
  173DOPC  H13X21157   4.558   2.402  14.052  0.1094 -1.4037 -0.0378
  173DOPC  H13Y21158   4.718   2.381  14.145  0.2389 -1.1315  0.5159
  173DOPC  C31421159   4.727   2.354  13.922 -0.3125  0.1785  0.2546
  173DOPC  H14X21160   4.691   2.282  13.845  0.9302 -1.2226  0.9339
  173DOPC  H14Y21161   4.696   2.454  13.885 -1.9066 -0.4693 -0.2561
  173DOPC  C31521162   4.877   2.356  13.948 -0.7696 -0.2981 -0.4798
  173DOPC  H15X21163   4.912   2.253  13.971 -0.7640 -0.5633 -1.5913
  173DOPC  H15Y21164   4.904   2.432  14.024  0.6454  0.5623 -1.7915
  173DOPC  C31621165   4.942   2.398  13.819  0.0824 -0.6428  0.1354
  173DOPC  H16X21166   4.888   2.346  13.736 -0.8607 -0.4518  0.6218
  173DOPC  H16Y21167   4.927   2.507  13.808 -0.1320 -0.4719  1.8580
  173DOPC  C31721168   5.091   2.376  13.816  0.5095  0.4334 -0.0431
  173DOPC  H17X21169   5.112   2.269  13.798  1.5819  0.7822 -0.9795
  173DOPC  H17Y21170   5.122   2.424  13.720 -1.9547  2.3054 -0.0019
  173DOPC  C31821171   5.171   2.425  13.936 -0.0711 -0.1652  0.4977
  173DOPC  H18X21172   5.281   2.418  13.921 -0.0501  0.1061  0.5188
  173DOPC  H18Y21173   5.140   2.530  13.954 -0.6375 -0.3053  0.3851
  173DOPC  H18Z21174   5.135   2.362  14.020 -0.2645 -0.6879  0.0346
  174DOPC     N21175   6.363   1.661  12.676  0.2671 -0.2257  0.5041
  174DOPC   C1221176   6.439   1.716  12.795 -0.5132  0.1633  0.4031
  174DOPC  H12A21177   6.409   1.818  12.814 -0.9035 -0.2432  2.2262
  174DOPC  H12B21178   6.544   1.717  12.769  0.1115 -0.5781  2.6484
  174DOPC   C1321179   6.408   1.521  12.648  0.5005  0.0530  0.4714
  174DOPC  H13A21180   6.353   1.471  12.570 -0.1819 -0.1308  1.0478
  174DOPC  H13B21181   6.511   1.522  12.616  0.0101 -0.1992 -1.2003
  174DOPC  H13C21182   6.387   1.469  12.741 -0.1087  1.1305  0.9533
  174DOPC   C1421183   6.378   1.738  12.548  0.4643 -1.1148 -0.4625
  174DOPC  H14A21184   6.335   1.683  12.465 -1.5368  1.0506 -0.9708
  174DOPC  H14B21185   6.322   1.830  12.554  0.1075 -1.3614 -0.0065
  174DOPC  H14C21186   6.481   1.762  12.528  0.3393 -0.2198 -0.0697
  174DOPC   C1521187   6.221   1.655  12.710  0.2696  0.1389  0.3122
  174DOPC  H15A21188   6.152   1.631  12.630  0.9928 -1.2936  0.0734
  174DOPC  H15B21189   6.191   1.750  12.752  2.2876  2.1212 -2.3608
  174DOPC  H15C21190   6.204   1.584  12.790 -0.8791 -0.6916 -0.6254
  174DOPC   C1121191   6.439   1.638  12.931  0.4306  0.2868  0.0571
  174DOPC  H11A21192   6.480   1.537  12.907 -2.3598 -0.9326 -0.0279
  174DOPC  H11B21193   6.509   1.686  13.003  0.3406  0.9132 -0.2687
  174DOPC     P21194   6.225   1.733  13.063  0.2406  0.2380 -0.4144
  174DOPC   O1321195   6.099   1.670  13.105  0.4862 -0.2144  0.2182
  174DOPC   O1421196   6.238   1.850  12.976  0.0006  0.3945 -0.6041
  174DOPC   O1221197   6.307   1.623  12.989  0.1021  0.8254  0.2750
  174DOPC   O1121198   6.321   1.749  13.186  0.4219 -0.4193  0.1839
  174DOPC    C121199   6.327   1.654  13.295  0.7795  0.5479  0.0734
  174DOPC    HA21200   6.426   1.648  13.345 -0.2753 -0.5493  2.1469
  174DOPC    HB21201   6.290   1.554  13.265 -2.7032  1.3504  1.2390
  174DOPC    C221202   6.227   1.696  13.412 -1.1119  0.6344 -0.4220
  174DOPC    HS21203   6.124   1.707  13.371 -0.9645  1.7979 -0.4908
  174DOPC   O2121204   6.282   1.810  13.475  0.7045 -0.0354  0.9365
  174DOPC   C2121205   6.256   1.929  13.433 -0.4959  0.2423 -0.5283
  174DOPC   O2221206   6.166   1.958  13.357 -0.0963  0.2336  0.4875
  174DOPC   C2221207   6.350   2.022  13.504  0.4825  0.6191  0.5799
  174DOPC   H2R21208   6.403   2.080  13.426 -2.1551  0.2906 -1.5893
  174DOPC   H2S21209   6.426   1.969  13.565  1.1315 -0.1721 -0.8652
  174DOPC    C321210   6.209   1.576  13.510  0.0935 -0.2690  0.0656
  174DOPC    HX21211   6.169   1.495  13.446 -0.0301  0.6819 -1.0955
  174DOPC    HY21212   6.130   1.594  13.586  1.0947  1.0784  0.8240
  174DOPC   O3121213   6.341   1.543  13.575 -0.1976  0.2876 -0.3162
  174DOPC   C3121214   6.388   1.627  13.673  0.3640  0.5322  0.4330
  174DOPC   O3221215   6.317   1.703  13.733  0.6660  0.1730 -0.6231
  174DOPC   C3221216   6.535   1.627  13.679  0.2514  0.1073 -0.9389
  174DOPC   H2X21217   6.573   1.527  13.649  2.0937  0.2390  0.7935
  174DOPC   H2Y21218   6.570   1.702  13.605  0.6842  1.6875  0.8033
  174DOPC   C2321219   6.262   2.106  13.600  0.4954 -0.0181  0.3023
  174DOPC   H3R21220   6.195   2.038  13.657 -0.5515 -0.7528 -1.6684
  174DOPC   H3S21221   6.204   2.170  13.529 -1.8367 -1.1605  1.0978
  174DOPC   C2421222   6.329   2.194  13.703  0.2493  0.2553 -0.1057
  174DOPC   H4R21223   6.269   2.285  13.728 -0.0574  0.0657 -0.1499
  174DOPC   H4S21224   6.421   2.234  13.657  0.9010 -0.5059  0.5051
  174DOPC   C2521225   6.360   2.111  13.827 -0.5463  0.3504  0.6726
  174DOPC   H5R21226   6.420   2.029  13.780  0.3874  2.0896 -1.3310
  174DOPC   H5S21227   6.273   2.061  13.875 -0.6020  0.6941  0.9292
  174DOPC   C2621228   6.456   2.173  13.920 -0.6104 -0.6806  0.1816
  174DOPC   H6R21229   6.393   2.238  13.984 -0.0642  0.2461 -0.1970
  174DOPC   H6S21230   6.535   2.237  13.875 -1.0446 -0.1754  0.1291
  174DOPC   C2721231   6.538   2.075  14.001  0.2778  0.2116 -0.0198
  174DOPC   H7R21232   6.619   2.034  13.938  0.2145  0.6709 -0.4100
  174DOPC   H7S21233   6.477   1.987  14.031 -0.2315  0.7239  0.4624
  174DOPC   C2821234   6.612   2.133  14.117  0.4078  0.7765  0.5838
  174DOPC   H8R21235   6.531   2.166  14.186 -1.0978 -0.5060 -0.5147
  174DOPC   H8S21236   6.676   2.214  14.076  0.4076  0.9319  0.8841
  174DOPC   C2921237   6.697   2.035  14.191 -0.3218 -0.5913 -0.2725
  174DOPC   H9R21238   6.781   2.003  14.128  0.0617  1.5540 -0.9016
  174DOPC  C21021239   6.694   1.992  14.318 -0.9490  0.2884 -0.2219
  174DOPC  H10R21240   6.773   1.920  14.347 -2.3989 -1.0510  0.5300
  174DOPC  C21121241   6.598   2.039  14.427 -0.0530 -0.0509 -0.0803
  174DOPC  H11R21242   6.498   1.992  14.419 -0.0854  0.0745 -0.4570
  174DOPC  H11S21243   6.583   2.149  14.421  1.6826  0.4389  2.6998
  174DOPC  C21221244   6.649   1.999  14.569  0.4406 -0.2730 -0.0296
  174DOPC  H12R21245   6.655   1.888  14.565  2.4249 -0.1870 -0.0143
  174DOPC  H12S21246   6.574   2.036  14.643  2.0253  1.2321  0.8796
  174DOPC  C21321247   6.776   2.071  14.609 -0.2597  0.2694  0.7436
  174DOPC  H13R21248   6.746   2.177  14.624 -4.2570 -0.6637  0.5226
  174DOPC  H13S21249   6.837   2.064  14.517 -1.4562 -0.9199 -0.0010
  174DOPC  C21421250   6.838   2.014  14.740  0.2714  0.0442  0.6144
  174DOPC  H14R21251   6.823   1.904  14.745  1.1699 -0.0424  1.5854
  174DOPC  H14S21252   6.772   2.062  14.816  1.1251  1.0620  0.7310
  174DOPC  C21521253   6.988   2.051  14.759  0.9625  0.4342  0.2739
  174DOPC  H15R21254   6.995   2.161  14.771 -2.0435  0.7952 -0.5258
  174DOPC  H15S21255   7.047   2.015  14.672 -1.4628  0.4023 -1.4415
  174DOPC  C21621256   7.041   1.990  14.889 -0.2221  0.0995 -0.1720
  174DOPC  H16R21257   7.151   1.976  14.882 -0.3807 -0.5949 -1.9295
  174DOPC  H16S21258   7.009   1.886  14.910  0.6747 -0.2268 -0.3943
  174DOPC  C21721259   7.023   2.074  15.017 -0.2258 -0.2132  0.0052
  174DOPC  H17R21260   7.079   2.026  15.101 -0.7440 -0.6702  0.0976
  174DOPC  H17S21261   6.915   2.062  15.037 -0.1328  0.0297  0.6625
  174DOPC  C21821262   7.069   2.222  15.007 -0.0246 -0.6173  0.2156
  174DOPC  H18R21263   7.037   2.279  14.917  0.4160 -1.7283 -0.6669
  174DOPC  H18S21264   7.180   2.224  15.004 -0.0233 -0.7507  0.1861
  174DOPC  H18T21265   7.031   2.274  15.098  2.9581  1.4679  0.4110
  174DOPC   C3321266   6.594   1.676  13.814  0.4650 -0.2902 -0.5077
  174DOPC   H3X21267   6.545   1.768  13.851  0.3188  0.5133 -2.5803
  174DOPC   H3Y21268   6.705   1.679  13.804  0.4937 -0.3318 -0.2009
  174DOPC   C3421269   6.569   1.556  13.911 -0.2599 -0.4817 -0.1373
  174DOPC   H4X21270   6.607   1.460  13.870  0.1570 -0.1956 -0.4234
  174DOPC   H4Y21271   6.460   1.538  13.928  0.1858 -1.2850  2.2511
  174DOPC   C3521272   6.644   1.588  14.047 -0.2546 -0.0775  0.1979
  174DOPC   H5X21273   6.614   1.688  14.084 -0.6614  1.0237 -2.8120
  174DOPC   H5Y21274   6.750   1.590  14.014 -0.1838  0.4274  0.4445
  174DOPC   C3621275   6.630   1.472  14.149  0.0144 -0.3064 -0.2343
  174DOPC   H6X21276   6.526   1.463  14.186 -0.0560  1.5121  0.1133
  174DOPC   H6Y21277   6.656   1.380  14.092  1.2698  0.7508 -1.4654
  174DOPC   C3721278   6.722   1.494  14.270  0.1580  0.6074 -0.1246
  174DOPC   H7X21279   6.825   1.510  14.231 -0.2282  3.2329 -0.2523
  174DOPC   H7Y21280   6.687   1.585  14.324 -1.1961  0.2554 -0.3794
  174DOPC   C3821281   6.713   1.373  14.362 -0.0821  0.4207 -0.5221
  174DOPC   H8X21282   6.752   1.291  14.297  0.5994  0.8073 -0.6103
  174DOPC   H8Y21283   6.607   1.356  14.392 -0.0677  0.0763 -0.6580
  174DOPC   C3921284   6.808   1.381  14.483  0.1171  0.0870 -0.3742
  174DOPC   H9X21285   6.904   1.427  14.457  0.4509  0.1147  0.8707
  174DOPC  C31021286   6.791   1.335  14.613 -0.0355 -0.5265  0.3899
  174DOPC  H10X21287   6.882   1.337  14.674  1.0094  1.1197 -1.0987
  174DOPC  C31121288   6.676   1.264  14.667  0.3928 -0.0206  0.2361
  174DOPC  H11X21289   6.615   1.221  14.585 -0.5671  2.3155 -0.3494
  174DOPC  H11Y21290   6.621   1.341  14.725  1.4936  1.4488 -0.5955
  174DOPC  C31221291   6.693   1.134  14.761 -0.3340 -0.2673  0.6138
  174DOPC  H12X21292   6.743   1.057  14.698 -0.3526  0.3275 -0.1379
  174DOPC  H12Y21293   6.592   1.096  14.787 -0.9853  0.6444 -0.5047
  174DOPC  C31321294   6.764   1.163  14.890  0.1223  0.2254  0.4471
  174DOPC  H13X21295   6.874   1.162  14.875  0.4691 -3.8448  2.0831
  174DOPC  H13Y21296   6.738   1.263  14.932  0.3576 -0.0000  1.1419
  174DOPC  C31421297   6.729   1.063  15.002 -0.3029  0.3619  0.8905
  174DOPC  H14X21298   6.736   1.117  15.099 -0.6104  1.8683  0.1126
  174DOPC  H14Y21299   6.630   1.017  14.980  0.7226 -2.0612  1.0644
  174DOPC  C31521300   6.833   0.954  15.008  0.0002  0.0834  0.4498
  174DOPC  H15X21301   6.938   0.985  15.027 -0.0239  0.0337  0.6747
  174DOPC  H15Y21302   6.833   0.896  14.914 -2.3107 -0.4708  0.7320
  174DOPC  C31621303   6.795   0.847  15.110 -0.2733  0.3641  0.0042
  174DOPC  H16X21304   6.701   0.797  15.081  0.7121 -0.7559 -1.3852
  174DOPC  H16Y21305   6.879   0.776  15.122 -0.5597  0.2850  1.8230
  174DOPC  C31721306   6.780   0.891  15.261 -0.1086 -0.2427  0.4933
  174DOPC  H17X21307   6.883   0.893  15.300  0.9006 -2.6686 -1.7660
  174DOPC  H17Y21308   6.732   0.991  15.253  0.8165  0.1612 -0.1619
  174DOPC  C31821309   6.681   0.800  15.342 -0.2539 -0.6887 -0.1849
  174DOPC  H18X21310   6.665   0.850  15.440 -1.2437 -0.7413 -0.3155
  174DOPC  H18Y21311   6.583   0.794  15.290 -0.8982  2.4418  0.4263
  174DOPC  H18Z21312   6.726   0.702  15.367 -2.2281 -1.2367  1.3793
  175DOPC     N21313   4.271   5.636  12.840 -0.6167  0.3471 -0.5746
  175DOPC   C1221314   4.315   5.588  12.983  0.9006  0.4266  0.5505
  175DOPC  H12A21315   4.310   5.480  12.984  0.7368  0.4312  0.4207
  175DOPC  H12B21316   4.239   5.624  13.051 -0.2093 -0.1415 -0.3542
  175DOPC   C1321317   4.372   5.606  12.745 -0.6672 -0.0113 -0.2909
  175DOPC  H13A21318   4.451   5.678  12.761 -0.1470 -0.4585 -0.7787
  175DOPC  H13B21319   4.413   5.507  12.756 -0.9938 -0.1377 -0.2015
  175DOPC  H13C21320   4.333   5.614  12.644 -1.8036 -1.8155 -0.0262
  175DOPC   C1421321   4.251   5.780  12.838  0.0288 -0.3638 -0.0332
  175DOPC  H14A21322   4.348   5.828  12.841  0.7397 -1.6705 -0.8927
  175DOPC  H14B21323   4.197   5.812  12.751  1.1725  0.0297 -0.6193
  175DOPC  H14C21324   4.199   5.812  12.927  1.1101  0.1400  0.4458
  175DOPC   C1521325   4.143   5.568  12.797  0.5126 -0.2013  0.1767
  175DOPC  H15A21326   4.164   5.463  12.813  2.0635  0.4057  2.5102
  175DOPC  H15B21327   4.114   5.595  12.696 -2.5589 -1.1511  0.7103
  175DOPC  H15C21328   4.064   5.587  12.868  0.1741 -1.9362  0.3165
  175DOPC   C1121329   4.449   5.625  13.037  0.7044  0.0753 -0.0949
  175DOPC  H11A21330   4.469   5.574  13.134  3.3350  0.7905 -0.1886
  175DOPC  H11B21331   4.524   5.590  12.963 -1.4886  0.7295 -2.7718
  175DOPC     P21332   4.580   5.854  13.001  0.3489 -0.0500 -0.0427
  175DOPC   O1321333   4.566   5.986  13.060  0.5240  0.0281 -0.1531
  175DOPC   O1421334   4.575   5.850  12.850  0.6137 -0.5673  0.4136
  175DOPC   O1221335   4.461   5.765  13.050 -0.0676  0.1747 -0.5590
  175DOPC   O1121336   4.711   5.777  13.052 -0.2590  0.7918  0.2249
  175DOPC    C121337   4.805   5.839  13.141 -0.2975  0.2643 -0.2456
  175DOPC    HA21338   4.785   5.948  13.149  1.6869  0.7271 -0.9851
  175DOPC    HB21339   4.905   5.818  13.097 -0.7046  0.4167 -1.2704
  175DOPC    C221340   4.801   5.768  13.284  0.6352 -0.1190  0.9394
  175DOPC    HS21341   4.850   5.834  13.359  0.1943  3.4277 -1.6138
  175DOPC   O2121342   4.865   5.641  13.269  0.2395  0.6766 -0.4224
  175DOPC   C2121343   5.002   5.641  13.274  0.2415 -0.3954 -0.2456
  175DOPC   O2221344   5.069   5.744  13.276  0.6414  0.0490 -0.0510
  175DOPC   C2221345   5.059   5.504  13.273  0.0682  0.0991  0.0443
  175DOPC   H2R21346   5.167   5.518  13.252  0.1430 -1.2754 -0.5513
  175DOPC   H2S21347   5.020   5.436  13.194  1.4547  0.1081 -0.6748
  175DOPC    C321348   4.652   5.753  13.329  0.0581  0.5061 -0.8881
  175DOPC    HX21349   4.590   5.687  13.264 -1.2297  0.9993 -0.2057
  175DOPC    HY21350   4.607   5.854  13.323  0.8881  1.0549  1.0821
  175DOPC   O3121351   4.652   5.718  13.470 -0.0777 -0.4636 -0.8060
  175DOPC   C3121352   4.665   5.589  13.495  0.4489 -0.1812 -0.4596
  175DOPC   O3221353   4.673   5.498  13.412  0.4951 -0.2419 -0.0780
  175DOPC   C3221354   4.671   5.566  13.644  0.0013  0.0669  0.8375
  175DOPC   H2X21355   4.707   5.462  13.656 -0.1944  0.0501  1.3041
  175DOPC   H2Y21356   4.751   5.629  13.688 -0.6325  0.2842  1.7073
  175DOPC   C2321357   5.037   5.441  13.409  0.3749  0.2525 -0.2079
  175DOPC   H3R21358   4.948   5.375  13.415  0.3985  0.3336  1.2574
  175DOPC   H3S21359   5.022   5.519  13.487 -3.0308  0.9734 -1.3993
  175DOPC   C2421360   5.153   5.346  13.440  0.4342 -0.3948 -0.3722
  175DOPC   H4R21361   5.250   5.401  13.432  0.6428 -0.9490 -2.1088
  175DOPC   H4S21362   5.167   5.272  13.358 -1.2086  0.1527 -1.1951
  175DOPC   C2521363   5.147   5.289  13.583  0.4257 -0.1964  0.5504
  175DOPC   H5R21364   5.233   5.222  13.602  2.1943  1.1828 -1.9815
  175DOPC   H5S21365   5.050   5.235  13.593  0.3816 -0.2498 -0.1158
  175DOPC   C2621366   5.156   5.398  13.690  0.5438 -0.5042 -0.0573
  175DOPC   H6R21367   5.062   5.457  13.690  1.0515  0.3464 -1.5215
  175DOPC   H6S21368   5.240   5.466  13.666  0.7335 -0.2859  1.1669
  175DOPC   C2721369   5.178   5.349  13.834  0.0217 -1.1133 -0.1186
  175DOPC   H7R21370   5.172   5.439  13.898 -3.5165  1.5900 -3.7293
  175DOPC   H7S21371   5.276   5.298  13.833  1.1546  0.9753 -0.9781
  175DOPC   C2821372   5.060   5.260  13.879 -0.3169 -0.0019 -0.2853
  175DOPC   H8R21373   5.039   5.167  13.822  0.2954  0.5213 -1.4002
  175DOPC   H8S21374   4.966   5.318  13.860 -2.1042 -1.6993  2.6804
  175DOPC   C2921375   5.081   5.225  14.024 -0.0548 -0.5837 -0.3885
  175DOPC   H9R21376   5.174   5.174  14.052  1.1527  0.4849 -2.2416
  175DOPC  C21021377   4.985   5.261  14.114  0.0599 -0.4317 -0.3320
  175DOPC  H10R21378   4.998   5.231  14.219 -0.1503  2.5144  0.6351
  175DOPC  C21121379   4.854   5.328  14.096 -0.3882  0.4252  0.1940
  175DOPC  H11R21380   4.818   5.325  13.991 -0.4416  1.4765  0.1716
  175DOPC  H11S21381   4.857   5.434  14.127  0.1229 -0.0575  1.9227
  175DOPC  C21221382   4.746   5.260  14.176 -0.1884  0.6323  0.8948
  175DOPC  H12R21383   4.730   5.155  14.143 -0.3482  1.5753 -2.4204
  175DOPC  H12S21384   4.653   5.313  14.147 -0.0009 -0.3775 -1.8171
  175DOPC  C21321385   4.755   5.272  14.332 -0.1066  0.0278  0.6238
  175DOPC  H13R21386   4.758   5.378  14.367 -0.6874  0.0442  0.6456
  175DOPC  H13S21387   4.842   5.214  14.369  1.1320  0.7059 -1.0870
  175DOPC  C21421388   4.622   5.228  14.397  0.2926 -0.0979  0.5279
  175DOPC  H14R21389   4.619   5.119  14.375 -0.6184 -0.4398  2.1421
  175DOPC  H14S21390   4.536   5.275  14.344 -0.7849 -2.9358 -0.4601
  175DOPC  C21521391   4.620   5.242  14.551  0.0235 -0.1672 -0.4015
  175DOPC  H15R21392   4.635   5.349  14.577  0.7098 -0.9515  2.9054
  175DOPC  H15S21393   4.697   5.180  14.601  1.4777  2.3290  0.6928
  175DOPC  C21621394   4.486   5.208  14.610 -0.1173 -0.6054 -0.3971
  175DOPC  H16R21395   4.414   5.277  14.561  0.5361 -1.5385 -2.8113
  175DOPC  H16S21396   4.477   5.228  14.719  3.0371  0.7743 -0.2869
  175DOPC  C21721397   4.425   5.072  14.578  0.9529 -0.4644  0.2966
  175DOPC  H17R21398   4.401   5.058  14.471  0.0455 -2.0194  0.6656
  175DOPC  H17S21399   4.332   5.088  14.635  1.2385  0.8471  0.4319
  175DOPC  C21821400   4.496   4.960  14.650  0.0869 -0.0437  0.0346
  175DOPC  H18R21401   4.606   4.967  14.632  0.2971  2.5393  1.8205
  175DOPC  H18S21402   4.456   4.863  14.612  0.3760  0.3480 -1.3182
  175DOPC  H18T21403   4.484   4.963  14.761  1.1573 -1.5337  0.2335
  175DOPC   C3321404   4.539   5.575  13.730  0.3099  0.1059 -0.3203
  175DOPC   H3X21405   4.463   5.521  13.669  0.0074 -0.1781  0.2961
  175DOPC   H3Y21406   4.494   5.674  13.752 -1.9496 -0.9011 -0.1465
  175DOPC   C3421407   4.550   5.504  13.868 -0.3034 -0.0915 -0.1241
  175DOPC   H4X21408   4.583   5.399  13.855 -0.8406 -0.3425  0.4953
  175DOPC   H4Y21409   4.457   5.493  13.928  1.4868  0.6938  2.9763
  175DOPC   C3521410   4.642   5.570  13.970 -0.1391  0.2824 -0.3061
  175DOPC   H5X21411   4.734   5.607  13.921 -0.8730  0.8258 -1.3357
  175DOPC   H5Y21412   4.671   5.490  14.041  0.6613 -0.5475 -1.5208
  175DOPC   C3621413   4.578   5.686  14.045 -0.4164 -0.4721  0.0026
  175DOPC   H6X21414   4.616   5.775  13.991  1.0986 -0.2813  1.2825
  175DOPC   H6Y21415   4.468   5.685  14.035 -0.4634 -0.7100  0.4849
  175DOPC   C3721416   4.612   5.688  14.195  0.1156  0.3365  0.3430
  175DOPC   H7X21417   4.584   5.589  14.237 -0.1860  0.6086  0.7919
  175DOPC   H7Y21418   4.723   5.690  14.208  0.2074 -1.0479 -0.1062
  175DOPC   C3821419   4.552   5.817  14.260 -0.2989  0.0850  0.2107
  175DOPC   H8X21420   4.447   5.785  14.275  0.0476 -1.6981 -0.8637
  175DOPC   H8Y21421   4.556   5.898  14.184  0.2549 -0.8465 -0.7876
  175DOPC   C3921422   4.615   5.857  14.390 -0.2435  0.5315  0.4164
  175DOPC   H9X21423   4.712   5.905  14.370 -0.5198  0.2093 -2.0158
  175DOPC  C31021424   4.595   5.799  14.507 -0.3393  0.0499 -0.2641
  175DOPC  H10X21425   4.663   5.840  14.583  0.2295  2.7360 -2.0833
  175DOPC  C31121426   4.502   5.679  14.538  0.2542  0.5520  0.2213
  175DOPC  H11X21427   4.558   5.592  14.578 -0.4253 -1.2799 -2.4990
  175DOPC  H11Y21428   4.446   5.642  14.449 -2.5155 -0.7154  2.3672
  175DOPC  C31221429   4.391   5.702  14.644  0.1101 -0.5725 -0.0448
  175DOPC  H12X21430   4.324   5.614  14.643 -1.2789  0.4464 -1.5920
  175DOPC  H12Y21431   4.333   5.793  14.617 -0.8840 -1.4289 -0.8757
  175DOPC  C31321432   4.432   5.723  14.788  0.0823  0.0859 -0.2586
  175DOPC  H13X21433   4.499   5.641  14.823 -2.2839 -2.4995 -1.4004
  175DOPC  H13Y21434   4.494   5.815  14.789 -3.6624  2.8421 -1.3693
  175DOPC  C31421435   4.305   5.738  14.871  0.2862  0.4907  0.2496
  175DOPC  H14X21436   4.248   5.827  14.835  0.8942 -0.1503 -2.5865
  175DOPC  H14Y21437   4.231   5.656  14.861  0.8210  0.1505 -1.1752
  175DOPC  C31521438   4.328   5.752  15.022 -0.0583 -0.4557  0.1557
  175DOPC  H15X21439   4.365   5.658  15.069  0.1837 -0.8387 -0.7811
  175DOPC  H15Y21440   4.232   5.749  15.078  0.2259 -1.2615  0.6323
  175DOPC  C31621441   4.417   5.868  15.061 -0.5491 -0.7774 -0.3620
  175DOPC  H16X21442   4.515   5.858  15.009 -1.2487 -0.3550 -1.8293
  175DOPC  H16Y21443   4.370   5.959  15.017  0.1520  0.2080  0.8728
  175DOPC  C31721444   4.436   5.892  15.213 -0.2829 -0.1638 -0.1005
  175DOPC  H17X21445   4.343   5.942  15.245 -0.5728 -1.1376  0.6339
  175DOPC  H17Y21446   4.426   5.794  15.265  0.6954 -0.3553 -0.2465
  175DOPC  C31821447   4.564   5.960  15.255 -0.2243  0.5820 -1.0077
  175DOPC  H18X21448   4.655   5.909  15.218 -0.6847 -1.2486  0.2347
  175DOPC  H18Y21449   4.565   6.067  15.226  0.0469  0.6014 -0.9265
  175DOPC  H18Z21450   4.574   5.953  15.365 -3.6855 -2.9519 -0.6712
  176DOPC     N21451   4.800   1.541  12.795  0.4583 -0.0072  0.3339
  176DOPC   C1221452   4.729   1.509  12.925 -0.0218 -0.3595 -0.2337
  176DOPC  H12A21453   4.647   1.442  12.905 -0.6856  0.4606 -0.2824
  176DOPC  H12B21454   4.687   1.602  12.960 -0.0687 -0.5629  0.2556
  176DOPC   C1321455   4.851   1.424  12.718  0.0005  0.5952 -0.0515
  176DOPC  H13A21456   4.784   1.341  12.703  1.8568 -0.5116 -3.2267
  176DOPC  H13B21457   4.884   1.458  12.621 -2.3617  2.2897 -0.3681
  176DOPC  H13C21458   4.935   1.379  12.768 -0.7042  0.9436  1.4949
  176DOPC   C1421459   4.905   1.647  12.804  0.4096 -0.2573 -0.4458
  176DOPC  H14A21460   4.950   1.669  12.709 -0.1508 -0.2158 -0.7075
  176DOPC  H14B21461   4.865   1.736  12.852  2.3123 -0.0325  0.8547
  176DOPC  H14C21462   4.978   1.604  12.870 -1.2894 -0.6966  1.2527
  176DOPC   C1521463   4.705   1.600  12.697  0.5809 -0.9170 -0.3085
  176DOPC  H15A21464   4.634   1.671  12.738  2.1372  0.8169 -0.4720
  176DOPC  H15B21465   4.639   1.525  12.656 -0.3754  0.2055 -0.8947
  176DOPC  H15C21466   4.749   1.652  12.613  0.1372 -0.9277 -0.5510
  176DOPC   C1121467   4.798   1.438  13.046  0.6440 -0.3127  0.3586
  176DOPC  H11A21468   4.880   1.495  13.094 -0.0152  0.7608  0.2395
  176DOPC  H11B21469   4.729   1.434  13.133  1.4878  2.6473  1.2738
  176DOPC     P21470   4.807   1.183  13.068  0.3946 -0.0647  0.4345
  176DOPC   O1321471   4.914   1.081  13.036  0.2723  0.0378  0.3927
  176DOPC   O1421472   4.668   1.139  13.036  0.8859 -0.3663 -0.4193
  176DOPC   O1221473   4.855   1.318  13.002 -0.0112  0.3579  0.1788
  176DOPC   O1121474   4.824   1.215  13.221 -0.0858 -0.5983 -0.1949
  176DOPC    C121475   4.839   1.114  13.321  0.4304  0.3244 -0.6484
  176DOPC    HA21476   4.947   1.086  13.329 -0.5316 -3.6381  0.6730
  176DOPC    HB21477   4.783   1.021  13.295  1.4869 -0.4737 -0.1753
  176DOPC    C221478   4.798   1.160  13.460 -0.4431  0.1636 -0.2781
  176DOPC    HS21479   4.864   1.246  13.483  0.9192 -0.5510 -1.4093
  176DOPC   O2121480   4.832   1.055  13.555  0.6191  0.2776  0.1016
  176DOPC   C2121481   4.856   1.098  13.675  0.3100  0.0808 -0.3218
  176DOPC   O2221482   4.841   1.211  13.718  0.2027 -0.4394 -0.0198
  176DOPC   C2221483   4.912   0.985  13.758 -0.5462  0.1934 -0.4988
  176DOPC   H2R21484   5.010   0.967  13.709 -0.4960  0.3170 -0.4448
  176DOPC   H2S21485   4.844   0.900  13.737 -0.7230  0.0742  0.5275
  176DOPC    C321486   4.649   1.207  13.463 -0.2454  0.0002 -0.2603
  176DOPC    HX21487   4.601   1.110  13.438 -0.4432 -0.1338  0.6124
  176DOPC    HY21488   4.628   1.281  13.383 -1.4765  0.3161  0.3412
  176DOPC   O3121489   4.607   1.256  13.590 -0.1386  0.0833 -0.1515
  176DOPC   C3121490   4.654   1.381  13.619  1.2420  0.1001  0.0345
  176DOPC   O3221491   4.707   1.462  13.540  0.4679  0.0448  0.2576
  176DOPC   C3221492   4.608   1.411  13.765 -0.0344 -0.1712  0.0959
  176DOPC   H2X21493   4.506   1.456  13.764  0.2800  0.7508  2.4858
  176DOPC   H2Y21494   4.614   1.319  13.826  0.1832  0.2719  0.7499
  176DOPC   C2321495   4.929   1.027  13.903 -0.0098  0.2387 -0.3114
  176DOPC   H3R21496   4.972   1.129  13.917 -2.4114  1.3893 -0.7424
  176DOPC   H3S21497   4.990   0.953  13.958  1.1791  1.2233 -0.2709
  176DOPC   C2421498   4.788   1.023  13.961  0.2022 -1.0022 -0.0305
  176DOPC   H4R21499   4.752   0.918  13.967 -1.9343 -0.5627 -2.8644
  176DOPC   H4S21500   4.725   1.090  13.898  2.2073  2.5680  1.4420
  176DOPC   C2521501   4.770   1.072  14.104  0.0644  0.2849 -0.2438
  176DOPC   H5R21502   4.660   1.076  14.121  0.0833 -1.0140  0.3543
  176DOPC   H5S21503   4.803   1.178  14.104 -0.9704  0.6245 -0.5658
  176DOPC   C2621504   4.830   0.994  14.222 -1.1715 -0.3687 -0.2509
  176DOPC   H6R21505   4.940   1.008  14.224 -1.4295  2.0692  1.8361
  176DOPC   H6S21506   4.808   0.886  14.210 -1.6787 -0.2688 -0.2319
  176DOPC   C2721507   4.776   1.028  14.358 -0.1996  0.2112 -0.5676
  176DOPC   H7R21508   4.667   1.009  14.352 -0.1737 -0.1599 -0.0016
  176DOPC   H7S21509   4.786   1.138  14.365 -1.8051  0.3383  0.4263
  176DOPC   C2821510   4.850   0.949  14.470 -0.1525 -0.0752 -0.2152
  176DOPC   H8R21511   4.960   0.964  14.467 -0.3436  3.1475  2.7735
  176DOPC   H8S21512   4.817   0.843  14.462  0.1373 -0.1687 -0.1796
  176DOPC   C2921513   4.818   1.010  14.601 -0.2651  0.2707 -0.6720
  176DOPC   H9R21514   4.865   1.109  14.615  0.3084 -0.2434  1.4936
  176DOPC  C21021515   4.729   0.967  14.693 -0.0439 -0.1033  0.3334
  176DOPC  H10R21516   4.704   1.028  14.781 -1.4137 -2.5464  1.7786
  176DOPC  C21121517   4.645   0.843  14.675 -0.3185  0.0563 -0.3239
  176DOPC  H11R21518   4.678   0.773  14.595  0.4550 -0.4274  0.4012
  176DOPC  H11S21519   4.542   0.881  14.658  0.4052  2.8591  0.9686
  176DOPC  C21221520   4.647   0.765  14.813  0.1406  0.3057 -0.7401
  176DOPC  H12R21521   4.599   0.835  14.885 -1.7165 -0.3183 -1.3158
  176DOPC  H12S21522   4.750   0.733  14.839  0.0907 -0.2298 -1.1830
  176DOPC  C21321523   4.564   0.628  14.798  0.3885 -0.1655  0.6670
  176DOPC  H13R21524   4.634   0.561  14.745 -0.3954 -1.1779  0.8835
  176DOPC  H13S21525   4.472   0.650  14.739 -0.2033 -1.4067  1.1057
  176DOPC  C21421526   4.546   0.554  14.936 -0.0885 -0.0036 -0.0803
  176DOPC  H14R21527   4.482   0.617  15.001  0.7443 -0.6178  1.3718
  176DOPC  H14S21528   4.642   0.541  14.989  0.5818  2.3747 -0.5950
  176DOPC  C21521529   4.482   0.412  14.923  0.4169 -0.2648  0.2582
  176DOPC  H15R21530   4.531   0.354  14.842  1.3078 -0.3199  0.8177
  176DOPC  H15S21531   4.383   0.447  14.887  0.6700 -0.2524 -0.4509
  176DOPC  C21621532   4.455   0.328  15.048 -0.0374  0.1140  0.2739
  176DOPC  H16R21533   4.392   0.238  15.038  2.3265 -1.5322 -0.8367
  176DOPC  H16S21534   4.399   0.385  15.125 -1.9023 -1.4019  0.0987
  176DOPC  C21721535   4.588   0.286  15.113  0.4712  0.4585 -0.8390
  176DOPC  H17R21536   4.652   0.369  15.150  1.3193  0.3941 -2.0986
  176DOPC  H17S21537   4.646   0.235  15.034  0.2089  1.5412 -1.7536
  176DOPC  C21821538   4.569   0.184  15.220  0.5002  0.3860  0.2355
  176DOPC  H18R21539   4.669   0.144  15.248 -0.0436  0.0845  1.8428
  176DOPC  H18S21540   4.517   0.094  15.180  2.2671 -0.3264 -0.5775
  176DOPC  H18T21541   4.508   0.228  15.302 -0.5438  1.7514 -1.1955
  176DOPC   C3321542   4.697   1.517  13.826 -0.1178 -0.3694 -0.3196
  176DOPC   H3X21543   4.682   1.617  13.779  0.0431  0.5401  1.4533
  176DOPC   H3Y21544   4.803   1.494  13.801  0.7088  2.2629  0.3854
  176DOPC   C3421545   4.676   1.536  13.975  0.1083 -0.5754  1.3075
  176DOPC   H4X21546   4.713   1.445  14.025 -0.9199 -2.2579 -0.8068
  176DOPC   H4Y21547   4.566   1.547  13.988  0.2163 -0.7680  2.4518
  176DOPC   C3521548   4.739   1.661  14.025  0.3735  0.2573 -0.2064
  176DOPC   H5X21549   4.718   1.751  13.963 -0.2090  0.3112  0.0612
  176DOPC   H5Y21550   4.850   1.656  14.025  0.3832  0.3736  0.1798
  176DOPC   C3621551   4.692   1.688  14.167 -0.1413 -0.4949  0.5789
  176DOPC   H6X21552   4.582   1.675  14.175 -0.6468 -0.1907 -3.7327
  176DOPC   H6Y21553   4.746   1.614  14.231  1.7793  0.7059  0.4207
  176DOPC   C3721554   4.726   1.831  14.215 -0.0910  0.5905  0.0295
  176DOPC   H7X21555   4.837   1.826  14.212 -0.1497 -0.7371 -0.7157
  176DOPC   H7Y21556   4.688   1.902  14.138 -1.4071 -1.4084 -1.2805
  176DOPC   C3821557   4.658   1.857  14.344 -0.2169  0.3093 -0.3542
  176DOPC   H8X21558   4.548   1.837  14.347  0.0582 -1.2182  0.6106
  176DOPC   H8Y21559   4.667   1.967  14.356  1.6964  0.1598 -0.2121
  176DOPC   C3921560   4.729   1.781  14.459  0.3466  0.6324  0.0268
  176DOPC   H9X21561   4.837   1.768  14.449  0.3255  1.4101 -1.3555
  176DOPC  C31021562   4.675   1.726  14.570  0.4200 -0.7687  0.0617
  176DOPC  H10X21563   4.740   1.681  14.646 -0.3389  0.0608  1.2404
  176DOPC  C31121564   4.530   1.730  14.622 -0.4765 -0.0335  0.5494
  176DOPC  H11X21565   4.460   1.738  14.537  0.9337  1.5890 -0.5467
  176DOPC  H11Y21566   4.520   1.821  14.685 -0.1406 -0.6280  1.4871
  176DOPC  C31221567   4.501   1.615  14.712  0.2920  0.6827  0.1591
  176DOPC  H12X21568   4.597   1.606  14.768  0.5983 -1.1516 -0.5910
  176DOPC  H12Y21569   4.496   1.523  14.650  1.3599  0.5752  0.2200
  176DOPC  C31321570   4.387   1.640  14.811 -0.1694 -0.1145 -0.1039
  176DOPC  H13X21571   4.365   1.542  14.857  0.4664 -0.0130  0.4264
  176DOPC  H13Y21572   4.435   1.703  14.888  0.4891 -0.6003 -0.1127
  176DOPC  C31421573   4.256   1.695  14.764  0.6604  0.4615 -0.2410
  176DOPC  H14X21574   4.193   1.717  14.853  0.6809 -3.3559  0.9013
  176DOPC  H14Y21575   4.268   1.782  14.697  0.2360 -0.4322 -1.5057
  176DOPC  C31521576   4.177   1.594  14.674  0.0993  0.4932  0.3804
  176DOPC  H15X21577   4.184   1.488  14.704  2.0370  0.3022 -0.5922
  176DOPC  H15Y21578   4.242   1.594  14.584 -0.8838  0.5136 -0.3449
  176DOPC  C31621579   4.037   1.628  14.653  0.9601  0.1741 -0.0874
  176DOPC  H16X21580   4.001   1.647  14.756  2.2518  4.2180 -0.1803
  176DOPC  H16Y21581   4.031   1.722  14.593 -0.8109  0.3838  0.3815
  176DOPC  C31721582   3.946   1.525  14.581 -0.0167  0.0025  0.5328
  176DOPC  H17X21583   3.844   1.569  14.578 -1.3064 -2.7920 -2.1717
  176DOPC  H17Y21584   3.987   1.500  14.481 -0.9369  1.4128 -0.2169
  176DOPC  C31821585   3.944   1.384  14.649  0.6105 -0.0669 -0.3141
  176DOPC  H18X21586   3.873   1.315  14.600 -1.3328  1.0841  0.7249
  176DOPC  H18Y21587   4.049   1.349  14.652  1.3155  1.7494  3.4996
  176DOPC  H18Z21588   3.912   1.390  14.756 -0.3769 -1.2478 -0.5206
  177DOPC     N21589   0.066   4.794  13.076 -0.4477  0.2325  0.0031
  177DOPC   C1221590   0.064   4.848  13.217 -0.2765  0.1775  0.6983
  177DOPC  H12A21591  -0.004   4.931  13.204 -1.0757 -0.8200 -2.0740
  177DOPC  H12B21592   0.162   4.876  13.250  0.4762 -1.2303 -0.2405
  177DOPC   C1321593   0.145   4.902  13.000  0.2065 -0.0480 -0.0759
  177DOPC  H13A21594   0.075   4.979  12.972  1.3678  0.8626 -0.5507
  177DOPC  H13B21595   0.228   4.936  13.061 -0.5948  0.3513  0.8179
  177DOPC  H13C21596   0.182   4.854  12.911  1.2472  0.2080  0.2008
  177DOPC   C1421597  -0.068   4.769  13.014 -0.2791  0.6772  0.3496
  177DOPC  H14A21598  -0.136   4.852  13.019 -0.6875  0.2711  1.9669
  177DOPC  H14B21599  -0.062   4.723  12.916  0.7082 -0.4825  0.9288
  177DOPC  H14C21600  -0.122   4.698  13.074 -0.1607 -1.0559 -1.4885
  177DOPC   C1521601   0.139   4.660  13.074  0.3832 -0.5738 -0.3800
  177DOPC  H15A21602   0.246   4.669  13.085  0.5137 -1.3091 -1.0113
  177DOPC  H15B21603   0.113   4.600  12.988 -2.4726  2.1009 -1.5901
  177DOPC  H15C21604   0.115   4.599  13.160 -2.4844 -0.6325 -1.1189
  177DOPC   C1121605   0.000   4.750  13.320 -0.2193  0.1196  0.5784
  177DOPC  H11A21606   0.071   4.665  13.313  2.6020  2.4115 -0.8181
  177DOPC  H11B21607   0.004   4.806  13.416  0.4000  0.3923  0.4007
  177DOPC     P21608  -0.263   4.780  13.320 -0.1232  0.4040 -0.0058
  177DOPC   O1321609  -0.386   4.699  13.294 -0.5792 -0.1857  0.1202
  177DOPC   O1421610  -0.260   4.903  13.237  0.3575  0.2406  0.0511
  177DOPC   O1221611  -0.131   4.703  13.287 -0.0953 -0.3236 -0.3386
  177DOPC   O1121612  -0.251   4.823  13.477  0.5778 -0.0966 -0.1111
  177DOPC    C121613  -0.359   4.880  13.545  0.0256 -0.4447 -0.1120
  177DOPC    HA21614  -0.408   4.954  13.478  0.9364  0.7404  0.4716
  177DOPC    HB21615  -0.323   4.946  13.627 -1.9421  0.3432  0.1677
  177DOPC    C221616  -0.460   4.782  13.605  0.5140 -0.2049  0.3649
  177DOPC    HS21617  -0.508   4.741  13.513  2.9072 -0.2264 -0.9779
  177DOPC   O2121618  -0.550   4.864  13.686 -0.1174 -0.5056 -0.4932
  177DOPC   C2121619  -0.677   4.815  13.694 -0.0673  0.5465  0.1475
  177DOPC   O2221620  -0.713   4.710  13.642  0.0697  0.2019  0.3151
  177DOPC   C2221621  -0.772   4.914  13.768  0.0149  0.2015  0.0866
  177DOPC   H2R21622  -0.845   4.955  13.694 -1.4849 -0.7695  0.9731
  177DOPC   H2S21623  -0.721   5.002  13.813 -1.1325  1.2878 -0.6385
  177DOPC    C321624  -0.389   4.659  13.672 -0.0026  0.5251 -0.0229
  177DOPC    HX21625  -0.335   4.692  13.763 -0.6784  0.4996  0.3974
  177DOPC    HY21626  -0.323   4.616  13.595 -3.0492 -2.0601 -1.4281
  177DOPC   O3121627  -0.489   4.555  13.697  0.1276  0.0995  0.1751
  177DOPC   C3121628  -0.437   4.443  13.740  0.6676 -0.3077 -0.4033
  177DOPC   O3221629  -0.318   4.426  13.759  0.3154 -1.0056  0.3623
  177DOPC   C3221630  -0.549   4.346  13.776  0.0136 -0.5993 -0.0463
  177DOPC   H2X21631  -0.646   4.396  13.756  0.2442 -0.7006 -1.5136
  177DOPC   H2Y21632  -0.527   4.269  13.699  0.7533  0.0909 -0.5393
  177DOPC   C2321633  -0.848   4.839  13.877 -0.2161  0.1257  0.2926
  177DOPC   H3R21634  -0.881   4.742  13.833 -0.9572  0.8701 -0.8640
  177DOPC   H3S21635  -0.939   4.893  13.910 -0.3477 -0.7645  1.4281
  177DOPC   C2421636  -0.754   4.804  13.997  0.9590  0.2857  0.1448
  177DOPC   H4R21637  -0.733   4.904  14.039 -0.5328  0.3917  0.6965
  177DOPC   H4S21638  -0.663   4.747  13.968  1.6073  1.8192 -0.9344
  177DOPC   C2521639  -0.828   4.711  14.099 -0.5333  0.2324 -0.2852
  177DOPC   H5R21640  -0.761   4.697  14.186 -0.0557 -0.1393 -0.7055
  177DOPC   H5S21641  -0.848   4.610  14.058 -0.6000  0.1675 -0.0907
  177DOPC   C2621642  -0.958   4.777  14.144 -0.0014 -0.8622 -0.6297
  177DOPC   H6R21643  -0.999   4.716  14.227 -0.0239 -0.3090 -0.2285
  177DOPC   H6S21644  -1.036   4.772  14.064 -1.4151 -2.8386  0.7899
  177DOPC   C2721645  -0.948   4.927  14.196 -0.5389 -0.4115  0.4297
  177DOPC   H7R21646  -0.910   4.989  14.112 -0.9115  0.8369  1.1591
  177DOPC   H7S21647  -0.863   4.930  14.267 -1.3778 -0.0644  1.4502
  177DOPC   C2821648  -1.069   4.990  14.261 -0.6172  0.6330 -0.0600
  177DOPC   H8R21649  -1.031   5.063  14.336  2.4817 -0.5482 -0.3529
  177DOPC   H8S21650  -1.122   4.908  14.316  1.1742 -0.5744 -0.0548
  177DOPC   C2921651  -1.168   5.052  14.168 -0.2105 -0.5658  0.5673
  177DOPC   H9R21652  -1.226   4.988  14.100 -0.2809  0.3739 -0.2822
  177DOPC  C21021653  -1.201   5.183  14.160  0.6658 -0.5353  0.3944
  177DOPC  H10R21654  -1.290   5.214  14.103  1.4797 -0.8759 -1.1174
  177DOPC  C21121655  -1.147   5.301  14.240 -0.1500  0.1753 -0.0653
  177DOPC  H11R21656  -1.168   5.403  14.201  0.2785  1.3279  2.5125
  177DOPC  H11S21657  -1.039   5.288  14.262 -0.4539  0.4569  1.7590
  177DOPC  C21221658  -1.215   5.317  14.376  0.1479 -0.5351  0.2150
  177DOPC  H12R21659  -1.195   5.224  14.434  1.2827 -0.5099 -0.1089
  177DOPC  H12S21660  -1.325   5.325  14.359  0.2692 -1.3961 -1.1444
  177DOPC  C21321661  -1.179   5.450  14.458 -0.8160 -0.4905  0.1986
  177DOPC  H13R21662  -1.204   5.548  14.412  1.8797  0.1305 -0.1153
  177DOPC  H13S21663  -1.068   5.456  14.459 -0.8858  2.3960  0.9083
  177DOPC  C21421664  -1.219   5.452  14.607 -0.8243 -0.3874 -0.0890
  177DOPC  H14R21665  -1.189   5.553  14.644 -2.1848 -0.1640  0.4858
  177DOPC  H14S21666  -1.167   5.371  14.662 -0.7084 -1.7683 -2.1379
  177DOPC  C21521667  -1.371   5.436  14.635  0.8584 -0.1214  0.9699
  177DOPC  H15R21668  -1.376   5.446  14.746  0.8904  0.0222  0.9585
  177DOPC  H15S21669  -1.422   5.342  14.606 -0.8981  1.3565 -1.0110
  177DOPC  C21621670  -1.455   5.547  14.571 -0.1302 -0.1575 -0.2151
  177DOPC  H16R21671  -1.431   5.552  14.463  5.0901 -0.0146  0.7343
  177DOPC  H16S21672  -1.421   5.643  14.615 -1.7309 -0.0468  0.8826
  177DOPC  C21721673  -1.609   5.531  14.603  0.2881 -0.1729  0.5099
  177DOPC  H17R21674  -1.616   5.529  14.713  1.6122 -0.9602  0.6028
  177DOPC  H17S21675  -1.638   5.430  14.569  1.0496 -1.0896  2.4590
  177DOPC  C21821676  -1.698   5.641  14.543 -0.1014  0.1039 -0.4755
  177DOPC  H18R21677  -1.785   5.660  14.609  1.1765 -2.1635  2.0745
  177DOPC  H18S21678  -1.730   5.605  14.442  2.6105  1.3605 -1.8971
  177DOPC  H18T21679  -1.644   5.737  14.528  0.7350 -0.2852 -0.0023
  177DOPC   C3321680  -0.549   4.290  13.919  0.4325  0.7279  0.4965
  177DOPC   H3X21681  -0.453   4.241  13.944 -0.5338 -0.7375  1.4852
  177DOPC   H3Y21682  -0.629   4.213  13.920  1.1232 -0.1034 -1.8375
  177DOPC   C3421683  -0.574   4.400  14.023  0.3494 -0.3118  0.4177
  177DOPC   H4X21684  -0.666   4.461  14.009  0.8755  0.3972 -0.0425
  177DOPC   H4Y21685  -0.485   4.467  14.030  2.2741 -2.0853 -3.6279
  177DOPC   C3521686  -0.581   4.335  14.161  0.1744  0.0890 -0.2225
  177DOPC   H5X21687  -0.498   4.261  14.162 -0.9135 -1.2054 -1.3319
  177DOPC   H5Y21688  -0.673   4.274  14.170  0.0004  0.4006  0.1272
  177DOPC   C3621689  -0.585   4.431  14.284 -0.0109  0.3441  0.5536
  177DOPC   H6X21690  -0.547   4.526  14.240 -0.3616 -0.7096 -2.2749
  177DOPC   H6Y21691  -0.693   4.444  14.309 -0.7202 -1.3036 -1.3557
  177DOPC   C3721692  -0.493   4.390  14.397 -0.3931 -0.2454 -0.5091
  177DOPC   H7X21693  -0.395   4.362  14.354 -0.0264  2.5065 -1.6921
  177DOPC   H7Y21694  -0.461   4.476  14.461 -1.0756  1.1611 -1.9754
  177DOPC   C3821695  -0.541   4.276  14.487  0.4190 -0.4836  0.0377
  177DOPC   H8X21696  -0.452   4.248  14.548  0.7855 -1.6642 -0.9999
  177DOPC   H8Y21697  -0.569   4.180  14.441 -0.6354 -1.6825  2.9561
  177DOPC   C3921698  -0.635   4.330  14.592 -0.3193 -0.1597  0.2331
  177DOPC   H9X21699  -0.595   4.355  14.691 -1.1460  1.1698  0.2651
  177DOPC  C31021700  -0.767   4.337  14.590  0.0347 -0.1593 -0.0034
  177DOPC  H10X21701  -0.817   4.388  14.674  0.0931 -1.0444  0.5776
  177DOPC  C31121702  -0.849   4.284  14.475 -0.7078  0.3493 -0.2731
  177DOPC  H11X21703  -0.790   4.249  14.388 -0.4053 -0.2632  0.1699
  177DOPC  H11Y21704  -0.919   4.363  14.439 -0.0328  0.8593 -0.4867
  177DOPC  C31221705  -0.921   4.164  14.537  0.4877 -0.6526  0.4857
  177DOPC  H12X21706  -0.855   4.084  14.575  1.1706 -0.5566 -0.4759
  177DOPC  H12Y21707  -0.973   4.124  14.447  1.0894 -3.7963  1.4170
  177DOPC  C31321708  -1.028   4.193  14.637 -0.5819 -0.9372 -0.1298
  177DOPC  H13X21709  -1.005   4.253  14.727  1.8675 -0.6524 -0.8686
  177DOPC  H13Y21710  -1.109   4.245  14.582 -1.4832 -3.1296 -0.9900
  177DOPC  C31421711  -1.100   4.071  14.689  0.1846 -0.0782 -0.2928
  177DOPC  H14X21712  -1.144   4.009  14.608 -1.1083  0.7127 -0.2191
  177DOPC  H14Y21713  -1.026   4.013  14.748 -0.2962 -1.5209 -1.0671
  177DOPC  C31521714  -1.209   4.113  14.791 -0.0585  0.3009 -0.7279
  177DOPC  H15X21715  -1.296   4.048  14.766  0.2974 -0.0639 -1.0162
  177DOPC  H15Y21716  -1.233   4.221  14.776 -0.4962  0.3438  0.1826
  177DOPC  C31621717  -1.188   4.066  14.940 -0.6220  0.0243 -0.0027
  177DOPC  H16X21718  -1.108   3.990  14.952  0.2646  0.5894 -1.8826
  177DOPC  H16Y21719  -1.158   4.158  14.995 -0.4492 -0.1674  0.2238
  177DOPC  C31721720  -1.317   4.027  15.011  1.2463 -0.0733 -0.1777
  177DOPC  H17X21721  -1.356   3.934  14.964  0.3158 -0.7830  1.8679
  177DOPC  H17Y21722  -1.283   4.005  15.115  0.1628  0.7811  0.3764
  177DOPC  C31821723  -1.412   4.152  15.014 -0.1730  0.6326  0.0291
  177DOPC  H18X21724  -1.514   4.123  15.046 -0.8701  1.4873 -1.3112
  177DOPC  H18Y21725  -1.365   4.220  15.088 -2.0001  2.6758 -0.6070
  177DOPC  H18Z21726  -1.409   4.191  14.910 -1.0762 -0.4409 -0.4173
  178DOPC     N21727   3.638   6.128  13.055 -0.0985 -0.1195 -0.4637
  178DOPC   C1221728   3.587   5.995  13.114  0.2677  0.3277 -0.3039
  178DOPC  H12A21729   3.659   5.918  13.090 -2.6366 -2.1592 -1.6423
  178DOPC  H12B21730   3.499   5.981  13.053 -0.3058  4.6444 -0.7716
  178DOPC   C1321731   3.774   6.150  13.107  0.7335 -0.5200 -0.4146
  178DOPC  H13A21732   3.762   6.189  13.207 -0.7792  0.8951 -1.0961
  178DOPC  H13B21733   3.844   6.068  13.113  1.7180  0.0073 -3.0998
  178DOPC  H13C21734   3.827   6.228  13.053  0.7144  0.1934  0.5542
  178DOPC   C1421735   3.548   6.245  13.075  0.2304  0.2099  0.0703
  178DOPC  H14A21736   3.590   6.328  13.020 -2.6404  0.5163 -1.9184
  178DOPC  H14B21737   3.455   6.215  13.027  1.4829 -2.4663 -0.8802
  178DOPC  H14C21738   3.530   6.265  13.180 -0.1488 -3.5737  0.8678
  178DOPC   C1521739   3.658   6.113  12.908  0.1575 -0.4885  0.4134
  178DOPC  H15A21740   3.679   6.207  12.859 -1.2281 -0.7839 -0.8148
  178DOPC  H15B21741   3.573   6.076  12.852  0.8966 -1.5378 -0.0715
  178DOPC  H15C21742   3.740   6.042  12.895 -0.9972 -1.9240  0.6807
  178DOPC   C1121743   3.553   5.986  13.263 -0.8536 -0.3004  0.2171
  178DOPC  H11A21744   3.544   5.878  13.285 -0.0692 -0.3981  0.0865
  178DOPC  H11B21745   3.641   6.030  13.315  0.2107 -0.4963 -1.3384
  178DOPC     P21746   3.301   6.017  13.299 -0.0472 -0.0006 -0.1028
  178DOPC   O1321747   3.262   5.961  13.170 -0.4358  0.2878 -0.0935
  178DOPC   O1421748   3.215   6.128  13.355 -0.6007  0.3861  0.0750
  178DOPC   O1221749   3.447   6.075  13.293  0.0216 -1.1706 -0.0628
  178DOPC   O1121750   3.307   5.897  13.404  0.3951 -0.0981  0.2442
  178DOPC    C121751   3.394   5.896  13.518  0.4661  0.2769 -0.3037
  178DOPC    HA21752   3.470   5.977  13.523  0.4957  0.1710  2.2709
  178DOPC    HB21753   3.442   5.797  13.525 -1.3017 -0.5970  0.0514
  178DOPC    C221754   3.319   5.902  13.656 -0.1346 -0.1002  0.1135
  178DOPC    HS21755   3.395   5.886  13.735 -0.7476 -0.7338  0.5832
  178DOPC   O2121756   3.215   5.800  13.657 -0.0410  0.0762 -0.1146
  178DOPC   C2121757   3.238   5.679  13.680 -0.5522 -0.4782 -0.5450
  178DOPC   O2221758   3.347   5.620  13.676  1.0022  0.1490  0.1315
  178DOPC   C2221759   3.104   5.607  13.705  0.0815  0.0128  1.3973
  178DOPC   H2R21760   3.093   5.548  13.611 -0.1581  1.2911  0.5908
  178DOPC   H2S21761   3.025   5.683  13.684  1.2339  0.6444 -1.0194
  178DOPC    C321762   3.265   6.045  13.685  0.7044  0.6999 -0.5476
  178DOPC    HX21763   3.208   6.046  13.780 -1.8669 -1.1109 -1.9298
  178DOPC    HY21764   3.186   6.061  13.609 -1.7735  1.0168  1.9244
  178DOPC   O3121765   3.369   6.144  13.678 -0.1244  0.4727  0.1768
  178DOPC   C3121766   3.429   6.163  13.790 -0.7882  0.0046  0.6046
  178DOPC   O3221767   3.413   6.107  13.894 -0.4031  0.3782 -0.2220
  178DOPC   C3221768   3.528   6.280  13.770 -0.9714 -0.2190 -0.2388
  178DOPC   H2X21769   3.549   6.292  13.662 -2.6382  2.3800 -0.3461
  178DOPC   H2Y21770   3.476   6.367  13.816  0.0107 -0.0420  0.5807
  178DOPC   C2321771   3.096   5.522  13.825 -0.3474 -0.1170  0.7536
  178DOPC   H3R21772   3.156   5.428  13.825  0.3909  0.2844  2.8927
  178DOPC   H3S21773   2.988   5.498  13.826 -0.5571  0.7970  0.9483
  178DOPC   C2421774   3.134   5.605  13.949  0.0787  0.4890 -1.2727
  178DOPC   H4R21775   3.094   5.706  13.924 -0.7666  0.6917  0.7399
  178DOPC   H4S21776   3.245   5.611  13.956 -0.0621  1.0679  1.4399
  178DOPC   C2521777   3.073   5.541  14.080  0.0687 -0.0931  0.6677
  178DOPC   H5R21778   3.095   5.432  14.081 -0.8587 -0.3071  3.0158
  178DOPC   H5S21779   2.966   5.568  14.086  0.0396  0.0086 -0.2225
  178DOPC   C2621780   3.136   5.600  14.206  0.3377  0.4416  0.1326
  178DOPC   H6R21781   3.244   5.621  14.193  0.2605  1.4899  1.0748
  178DOPC   H6S21782   3.137   5.517  14.280 -0.9945 -2.6744 -3.0555
  178DOPC   C2721783   3.070   5.717  14.281 -0.3503  0.1982  0.6419
  178DOPC   H7R21784   3.140   5.738  14.365 -0.9970  2.2411  0.7311
  178DOPC   H7S21785   2.976   5.681  14.328 -0.3668 -0.3479  0.1958
  178DOPC   C2821786   3.049   5.848  14.189 -0.0330  0.3046  0.3320
  178DOPC   H8R21787   2.995   5.930  14.241  2.2009  1.7324  0.5301
  178DOPC   H8S21788   2.976   5.816  14.112  1.3863 -0.6373 -0.6535
  178DOPC   C2921789   3.169   5.900  14.125  0.0790  0.2613 -0.3666
  178DOPC   H9R21790   3.209   5.847  14.038  0.2254 -1.1507  0.5286
  178DOPC  C21021791   3.233   6.014  14.157  0.6318 -0.2168 -0.2936
  178DOPC  H10R21792   3.333   6.024  14.112  0.8612 -1.2086 -0.0298
  178DOPC  C21121793   3.201   6.114  14.273 -0.2329  0.2558 -0.4754
  178DOPC  H11R21794   3.254   6.082  14.365  0.3261  0.0735 -0.8497
  178DOPC  H11S21795   3.093   6.114  14.296 -0.6665  2.4758 -2.2158
  178DOPC  C21221796   3.277   6.250  14.258 -1.2455 -0.3109  0.6714
  178DOPC  H12R21797   3.251   6.325  14.337 -1.2200  1.7062 -1.1392
  178DOPC  H12S21798   3.248   6.291  14.159 -0.7712 -2.4878 -0.4285
  178DOPC  C21321799   3.431   6.230  14.273  0.1751 -0.0542  0.5064
  178DOPC  H13R21800   3.467   6.168  14.188  1.7418  1.9274 -0.3426
  178DOPC  H13S21801   3.450   6.179  14.370 -2.1259 -1.3881  0.3242
  178DOPC  C21421802   3.511   6.359  14.264  0.1146  0.0148  0.9533
  178DOPC  H14R21803   3.482   6.428  14.346  1.4313  2.2230 -0.3458
  178DOPC  H14S21804   3.484   6.409  14.168 -0.3449 -0.1524  0.9920
  178DOPC  C21521805   3.664   6.339  14.258  0.4547  0.1104  0.2224
  178DOPC  H15R21806   3.677   6.264  14.178 -2.4214  1.0420 -1.2710
  178DOPC  H15S21807   3.682   6.291  14.356  1.2340  0.6996  0.3792
  178DOPC  C21621808   3.753   6.458  14.252  0.1603 -0.5714  0.0999
  178DOPC  H16R21809   3.720   6.530  14.330  0.9141  0.8771 -0.8551
  178DOPC  H16S21810   3.734   6.512  14.157 -0.8492  1.3252  1.3243
  178DOPC  C21721811   3.900   6.433  14.297  0.5059 -0.1982 -0.6456
  178DOPC  H17R21812   3.954   6.422  14.200  0.1461 -1.2045 -0.7403
  178DOPC  H17S21813   3.909   6.340  14.358 -1.6775  0.3458  0.5976
  178DOPC  C21821814   3.951   6.543  14.385  0.5350 -0.0537  0.4973
  178DOPC  H18R21815   3.924   6.635  14.330  0.6900 -1.1324 -1.4960
  178DOPC  H18S21816   4.061   6.538  14.400  0.3273 -0.1498  2.1534
  178DOPC  H18T21817   3.891   6.537  14.479 -2.5743  0.2503 -1.3244
  178DOPC   C3321818   3.656   6.255  13.848  0.2201 -0.1983  0.1341
  178DOPC   H3X21819   3.646   6.237  13.957  1.0893  1.2265  0.4882
  178DOPC   H3Y21820   3.719   6.346  13.840  0.5886 -0.2482  2.0461
  178DOPC   C3421821   3.738   6.136  13.793  0.6892 -0.1985  0.0436
  178DOPC   H4X21822   3.777   6.181  13.699  1.7150  1.4799  1.2197
  178DOPC   H4Y21823   3.680   6.042  13.779 -1.5135  1.3431 -1.8420
  178DOPC   C3521824   3.858   6.103  13.884  0.0988 -0.3060 -0.0758
  178DOPC   H5X21825   3.819   6.062  13.980 -0.1948 -0.8138 -0.4078
  178DOPC   H5Y21826   3.898   6.202  13.913  0.4557 -0.2400 -0.7895
  178DOPC   C3621827   3.957   6.015  13.824 -0.5076  0.3882  0.5728
  178DOPC   H6X21828   3.910   5.924  13.781 -2.1944  0.0112  3.0089
  178DOPC   H6Y21829   3.987   6.068  13.731  0.8677  0.5107  1.0552
  178DOPC   C3721830   4.085   5.998  13.904 -0.1796 -0.7823  0.1739
  178DOPC   H7X21831   4.149   6.088  13.896  0.2542 -0.9609  1.3345
  178DOPC   H7Y21832   4.064   5.988  14.013 -3.3748 -1.3891 -0.3905
  178DOPC   C3821833   4.160   5.867  13.859  0.5560 -0.3106 -0.0702
  178DOPC   H8X21834   4.258   5.887  13.908  0.2378 -1.0117  0.8837
  178DOPC   H8Y21835   4.182   5.867  13.750  0.3970 -0.5600 -0.1025
  178DOPC   C3921836   4.102   5.735  13.906  0.4313  0.0415  0.6731
  178DOPC   H9X21837   4.050   5.675  13.831  0.6851  0.4141  0.1949
  178DOPC  C31021838   4.115   5.688  14.036  0.4621 -0.5239  0.8397
  178DOPC  H10X21839   4.055   5.598  14.053  1.3419 -1.4145 -0.5641
  178DOPC  C31121840   4.193   5.761  14.139 -0.0154  0.2538 -0.3934
  178DOPC  H11X21841   4.219   5.867  14.119 -1.1031  0.2474 -2.0348
  178DOPC  H11Y21842   4.286   5.703  14.160 -0.0431  0.0545 -0.7968
  178DOPC  C31221843   4.124   5.770  14.280  0.4916 -0.3251  0.5414
  178DOPC  H12X21844   4.030   5.829  14.270 -0.4221 -1.4435  2.0232
  178DOPC  H12Y21845   4.187   5.818  14.358  0.4832 -0.7347  0.8080
  178DOPC  C31321846   4.073   5.629  14.331  0.6495  0.6467  0.1056
  178DOPC  H13X21847   3.987   5.596  14.268  1.9721  0.1847 -1.5272
  178DOPC  H13Y21848   4.157   5.558  14.326  1.7498  1.5300  3.6253
  178DOPC  C31421849   4.021   5.629  14.480 -0.2833  0.3175  0.1887
  178DOPC  H14X21850   4.105   5.654  14.548 -0.7999 -0.2384  1.0501
  178DOPC  H14Y21851   3.939   5.704  14.488 -0.9906 -0.3687 -0.4214
  178DOPC  C31521852   3.942   5.503  14.524  0.4377 -0.2151 -0.1362
  178DOPC  H15X21853   3.873   5.470  14.443 -0.7670  1.0197  0.3490
  178DOPC  H15Y21854   3.889   5.522  14.620 -0.6519 -0.2905 -0.7064
  178DOPC  C31621855   4.034   5.375  14.545  0.4942 -0.0071 -0.1637
  178DOPC  H16X21856   4.088   5.357  14.449  0.4916  3.9870 -1.1043
  178DOPC  H16Y21857   4.105   5.405  14.625  0.4539  1.1448 -0.5313
  178DOPC  C31721858   3.961   5.248  14.578  0.0172 -0.7744 -0.0871
  178DOPC  H17X21859   3.862   5.281  14.617  0.1415 -0.8075  0.2608
  178DOPC  H17Y21860   3.932   5.193  14.486 -1.9524  0.1333 -0.0790
  178DOPC  C31821861   4.018   5.152  14.685  0.4372 -0.4754  0.6642
  178DOPC  H18X21862   4.022   5.212  14.778  2.6242 -0.9268  0.9182
  178DOPC  H18Y21863   3.950   5.065  14.697  0.5924 -0.9253 -1.2775
  178DOPC  H18Z21864   4.122   5.121  14.662  0.0277  0.5443 -3.3020
  179DOPC     N21865   7.179   3.939  12.842  0.4704  0.2038  0.5580
  179DOPC   C1221866   7.182   3.841  12.960  0.3638 -0.3084  0.9656
  179DOPC  H12A21867   7.267   3.867  13.021 -0.2979  2.7962  0.7364
  179DOPC  H12B21868   7.207   3.740  12.931  1.0825 -0.0409  0.6263
  179DOPC   C1321869   7.311   3.936  12.775 -0.0338 -0.6207 -0.4937
  179DOPC  H13A21870   7.328   3.838  12.731 -1.5216 -0.3500 -1.7663
  179DOPC  H13B21871   7.309   4.000  12.688  2.4248 -0.4430 -0.4756
  179DOPC  H13C21872   7.377   3.964  12.855 -2.4115  2.9691  0.4307
  179DOPC   C1421873   7.160   4.077  12.900 -0.4769 -0.5150  0.6067
  179DOPC  H14A21874   7.254   4.116  12.936 -0.2702 -1.1057  0.7217
  179DOPC  H14B21875   7.119   4.146  12.827 -0.3836 -1.3720 -0.2764
  179DOPC  H14C21876   7.092   4.065  12.983 -1.4386  0.5474  0.0076
  179DOPC   C1521877   7.075   3.904  12.747 -0.6648  0.8071 -0.3621
  179DOPC  H15A21878   7.074   3.802  12.712 -3.5022  0.5162  0.3005
  179DOPC  H15B21879   7.077   3.972  12.662 -1.8080 -1.5379 -2.4044
  179DOPC  H15C21880   6.975   3.919  12.785 -1.4038 -1.7973 -1.0477
  179DOPC   C1121881   7.059   3.823  13.056  0.2834 -0.1359 -0.5448
  179DOPC  H11A21882   6.970   3.787  13.000 -0.2719  0.9984 -0.4320
  179DOPC  H11B21883   7.095   3.746  13.128  0.6306  0.8692  0.3924
  179DOPC     P21884   7.119   3.988  13.253  0.2980 -0.0430 -0.0412
  179DOPC   O1321885   7.035   4.075  13.343  0.2992 -0.1608 -0.0683
  179DOPC   O1421886   7.254   4.041  13.219  0.3241  0.1103 -0.0664
  179DOPC   O1221887   7.031   3.947  13.121 -0.1381  0.1795  0.4889
  179DOPC   O1121888   7.136   3.850  13.329 -0.3986 -0.2205  1.1721
  179DOPC    C121889   7.038   3.790  13.409  0.0592 -0.2708 -0.0407
  179DOPC    HA21890   7.038   3.680  13.391 -1.0510 -0.0017 -2.0208
  179DOPC    HB21891   6.938   3.828  13.378 -1.1982 -3.2951 -0.0278
  179DOPC    C221892   7.058   3.828  13.554  0.7107  0.6543 -0.0336
  179DOPC    HS21893   7.049   3.939  13.559 -2.2250  0.5167 -0.2354
  179DOPC   O2121894   7.184   3.778  13.602 -0.3941  0.6737  0.5851
  179DOPC   C2121895   7.262   3.861  13.656 -0.6562 -0.2599  0.4426
  179DOPC   O2221896   7.238   3.979  13.677 -0.4533  0.0281  0.3105
  179DOPC   C2221897   7.399   3.811  13.694  0.8165  0.0190  0.3839
  179DOPC   H2R21898   7.414   3.707  13.658 -0.4169 -0.1963  0.4448
  179DOPC   H2S21899   7.403   3.810  13.805  0.9554  0.8468  0.3962
  179DOPC    C321900   6.950   3.768  13.642  0.0591  0.4189 -0.5581
  179DOPC    HX21901   6.941   3.659  13.623 -0.1802  0.0491  1.4155
  179DOPC    HY21902   6.854   3.817  13.615  1.2392  2.1992 -1.7812
  179DOPC   O3121903   6.973   3.792  13.781  0.2484  0.1502  0.3087
  179DOPC   C3121904   6.947   3.903  13.829  0.0524  0.1177 -0.4301
  179DOPC   O3221905   6.889   3.998  13.778  0.1767 -0.0558  1.3935
  179DOPC   C3221906   6.995   3.907  13.979 -0.6214  0.7529 -0.3898
  179DOPC   H2X21907   6.992   3.805  14.021 -0.3252  0.0165 -2.0807
  179DOPC   H2Y21908   7.103   3.936  13.973 -0.6663  1.2718  1.0246
  179DOPC   C2321909   7.509   3.901  13.640 -0.0795  0.0522  0.2478
  179DOPC   H3R21910   7.607   3.852  13.660 -0.1332 -0.2209 -0.1464
  179DOPC   H3S21911   7.507   4.005  13.679  1.5365  1.2918 -2.6216
  179DOPC   C2421912   7.512   3.929  13.483 -0.1289 -0.4333 -0.5535
  179DOPC   H4R21913   7.416   3.977  13.454  0.7448  1.5315 -0.2810
  179DOPC   H4S21914   7.527   3.826  13.443 -0.7801 -1.7127  2.2047
  179DOPC   C2521915   7.630   4.020  13.446 -0.2172 -0.0176 -0.0353
  179DOPC   H5R21916   7.652   4.009  13.338 -2.2628 -0.2127 -0.4647
  179DOPC   H5S21917   7.721   3.993  13.505  1.6762  5.1275 -0.1367
  179DOPC   C2621918   7.611   4.171  13.476 -0.0332  0.2036  0.1283
  179DOPC   H6R21919   7.583   4.194  13.581 -1.6791  0.9623 -0.4388
  179DOPC   H6S21920   7.521   4.198  13.416 -0.2719  0.9716  0.8251
  179DOPC   C2721921   7.739   4.239  13.432  0.0293 -0.4126  0.2470
  179DOPC   H7R21922   7.774   4.209  13.331  0.9036  0.0515  0.4057
  179DOPC   H7S21923   7.811   4.199  13.507 -2.0576 -2.5832  1.2538
  179DOPC   C2821924   7.735   4.392  13.440  0.0450  1.2414  0.8003
  179DOPC   H8R21925   7.700   4.447  13.350  0.3455  0.4970  0.2108
  179DOPC   H8S21926   7.843   4.412  13.457  0.9875 -2.3557 -0.0065
  179DOPC   C2921927   7.654   4.434  13.556 -0.0014  0.5352  0.2188
  179DOPC   H9R21928   7.551   4.400  13.539  0.7755 -1.2761 -1.2162
  179DOPC  C21021929   7.679   4.514  13.667 -0.1423 -0.0536 -0.0682
  179DOPC  H10R21930   7.609   4.520  13.751  0.5248 -2.4124  0.7270
  179DOPC  C21121931   7.815   4.581  13.695 -0.3879 -0.2382 -0.1937
  179DOPC  H11R21932   7.864   4.617  13.602  1.0201  0.6747  0.8720
  179DOPC  H11S21933   7.890   4.520  13.748  0.2855  0.0927 -0.7491
  179DOPC  C21221934   7.803   4.715  13.770  0.0621  0.1183  0.4023
  179DOPC  H12R21935   7.715   4.720  13.838 -0.8114  1.8249 -0.7914
  179DOPC  H12S21936   7.786   4.794  13.694  0.5407 -0.1523  0.0064
  179DOPC  C21321937   7.924   4.760  13.843 -0.1251 -0.2926 -0.2688
  179DOPC  H13R21938   7.962   4.687  13.917 -0.8817 -0.3970  0.0228
  179DOPC  H13S21939   7.888   4.843  13.907  1.2334  0.2709 -0.1881
  179DOPC  C21421940   8.032   4.811  13.747 -0.2942  0.1274 -0.3341
  179DOPC  H14R21941   8.004   4.905  13.696 -0.0537  1.7535  2.3419
  179DOPC  H14S21942   8.034   4.739  13.662  1.0039  0.1216 -0.3192
  179DOPC  C21521943   8.164   4.837  13.817 -0.8312 -0.1352 -0.3027
  179DOPC  H15R21944   8.190   4.755  13.887 -0.9414  0.6503  0.6637
  179DOPC  H15S21945   8.157   4.927  13.881 -1.8411 -1.3357  1.3303
  179DOPC  C21621946   8.289   4.858  13.727 -0.5170 -0.0553 -0.0865
  179DOPC  H16R21947   8.270   4.946  13.663 -0.1024  1.3017  1.5935
  179DOPC  H16S21948   8.306   4.765  13.668  0.6673 -1.1685  1.8596
  179DOPC  C21721949   8.421   4.888  13.810  0.9156  0.5676 -0.6063
  179DOPC  H17R21950   8.502   4.883  13.734  0.5419  0.5842 -1.0105
  179DOPC  H17S21951   8.440   4.797  13.870 -1.4115  0.7709  0.5322
  179DOPC  C21821952   8.431   5.019  13.882 -0.3273 -0.6387 -0.1234
  179DOPC  H18R21953   8.455   5.096  13.805  1.1417 -0.5156  0.4200
  179DOPC  H18S21954   8.518   5.029  13.951  0.7504 -1.7996 -1.2545
  179DOPC  H18T21955   8.342   5.054  13.939  0.8790 -0.2499  1.6188
  179DOPC   C3321956   6.905   3.991  14.068 -0.4045 -0.7155  0.2312
  179DOPC   H3X21957   6.796   3.974  14.056 -0.4578  0.2178 -0.8049
  179DOPC   H3Y21958   6.919   4.097  14.035 -2.1359 -0.2167  0.9829
  179DOPC   C3421959   6.946   3.991  14.214  0.2219  0.2198  0.0305
  179DOPC   H4X21960   6.881   4.057  14.276 -0.7217 -0.5963 -0.0511
  179DOPC   H4Y21961   7.049   4.031  14.211 -0.0676  0.9396 -0.7728
  179DOPC   C3521962   6.957   3.863  14.294 -0.1928  0.0908  0.1377
  179DOPC   H5X21963   7.042   3.795  14.272  0.2388 -0.2635  2.5967
  179DOPC   H5Y21964   6.865   3.802  14.279  1.0972 -2.1922  1.1046
  179DOPC   C3621965   6.983   3.880  14.442  0.0332 -0.4005 -0.4366
  179DOPC   H6X21966   7.066   3.952  14.458 -1.1638  0.9084  0.0862
  179DOPC   H6Y21967   6.891   3.904  14.499  1.5288 -1.9341  2.9511
  179DOPC   C3721968   7.023   3.744  14.504  0.9358  0.3314  0.1650
  179DOPC   H7X21969   6.946   3.668  14.477 -1.0784  2.3727 -0.1126
  179DOPC   H7Y21970   7.118   3.710  14.456  0.1229  0.8487 -1.8967
  179DOPC   C3821971   7.037   3.743  14.655  0.0846 -0.0921  0.2707
  179DOPC   H8X21972   6.938   3.772  14.695  0.1234 -1.2400  1.2362
  179DOPC   H8Y21973   7.102   3.827  14.689 -1.5671  1.1836  0.4203
  179DOPC   C3921974   7.081   3.618  14.720 -0.3029 -0.6475 -0.8103
  179DOPC   H9X21975   7.188   3.594  14.715 -0.1859 -0.6427  0.9313
  179DOPC  C31021976   6.998   3.525  14.780 -0.3875 -0.6561 -0.4113
  179DOPC  H10X21977   7.044   3.436  14.826 -1.5192 -0.9545  0.1864
  179DOPC  C31121978   6.847   3.548  14.794  0.1981 -0.0371  0.1029
  179DOPC  H11X21979   6.789   3.549  14.699  3.4460 -1.0764 -2.0401
  179DOPC  H11Y21980   6.837   3.651  14.833  0.1226  0.2757 -0.7313
  179DOPC  C31221981   6.776   3.447  14.895  0.9388  0.1923  0.0987
  179DOPC  H12X21982   6.672   3.481  14.914  0.8412 -0.5698  1.0003
  179DOPC  H12Y21983   6.827   3.447  14.993 -0.5941  0.1883  0.9247
  179DOPC  C31321984   6.783   3.296  14.850  0.1469  0.3862  0.0763
  179DOPC  H13X21985   6.761   3.286  14.741 -2.1728 -2.0873  0.6865
  179DOPC  H13Y21986   6.888   3.263  14.866  0.0320 -0.1914 -0.3649
  179DOPC  C31421987   6.695   3.193  14.918  0.1590 -0.4931  0.6477
  179DOPC  H14X21988   6.690   3.203  15.029  0.8647 -2.9057  0.9595
  179DOPC  H14Y21989   6.593   3.190  14.874 -0.2911  0.5672  1.5674
  179DOPC  C31521990   6.746   3.050  14.885  0.3487  0.2907 -0.3334
  179DOPC  H15X21991   6.747   3.034  14.775  0.2062  1.7115 -0.5497
  179DOPC  H15Y21992   6.667   2.976  14.912  0.8805 -0.2024 -0.0973
  179DOPC  C31621993   6.879   3.004  14.940 -0.2337  0.1320  0.0921
  179DOPC  H16X21994   6.882   2.893  14.931 -1.5026 -0.0235  1.3835
  179DOPC  H16Y21995   6.959   3.041  14.872  1.3962  0.6937  2.2303
  179DOPC  C31721996   6.905   3.050  15.088  0.0477  0.1644  0.2843
  179DOPC  H17X21997   6.907   3.161  15.094 -2.8291  0.2784  0.3934
  179DOPC  H17Y21998   6.820   3.019  15.152 -0.9811  2.0155 -0.1253
  179DOPC  C31821999   7.038   2.985  15.132 -0.0910  0.0122  0.0766
  179DOPC  H18X22000   7.020   2.876  15.127 -0.7701  0.1492 -0.7549
  179DOPC  H18Y22001   7.128   3.009  15.070 -0.1920 -0.3658 -0.2158
  179DOPC  H18Z22002   7.065   3.015  15.235  3.0709  1.4087 -0.9857
  180DOPC     N22003   0.544   2.072  12.830 -0.2116 -0.1869 -0.5682
  180DOPC   C1222004   0.516   2.051  12.980  0.3438  0.0756 -0.0826
  180DOPC  H12A22005   0.593   2.092  13.043 -0.9238 -0.9211  2.2358
  180DOPC  H12B22006   0.511   1.948  13.010 -2.6394  0.6351  1.8578
  180DOPC   C1322007   0.441   2.004  12.747 -0.0972 -0.5153  0.2966
  180DOPC  H13A22008   0.450   2.037  12.645  1.1616 -3.6272 -0.7373
  180DOPC  H13B22009   0.456   1.897  12.749 -2.0497 -0.9324 -2.4425
  180DOPC  H13C22010   0.338   2.020  12.776 -0.1826  1.8125 -1.1334
  180DOPC   C1422011   0.675   2.013  12.795  0.2420  0.2220  0.2906
  180DOPC  H14A22012   0.692   2.018  12.689  0.1271  1.0561  0.3006
  180DOPC  H14B22013   0.757   2.054  12.852 -1.5763  2.8197  1.2369
  180DOPC  H14C22014   0.671   1.906  12.806  1.9470  0.1430  0.2867
  180DOPC   C1522015   0.549   2.213  12.798 -0.1323 -0.5924  0.6892
  180DOPC  H15A22016   0.614   2.264  12.867 -1.3066 -1.6606  2.6724
  180DOPC  H15B22017   0.455   2.265  12.807 -0.6366 -1.2774 -0.2831
  180DOPC  H15C22018   0.580   2.228  12.695  0.1061 -1.8944  0.5563
  180DOPC   C1122019   0.387   2.116  13.034  0.1323  0.1506 -0.0066
  180DOPC  H11A22020   0.306   2.094  12.962 -0.5756  0.9517  0.5265
  180DOPC  H11B22021   0.346   2.062  13.121  0.7080  1.8209  1.3532
  180DOPC     P22022   0.475   2.319  13.178 -0.4489  0.6622  0.2925
  180DOPC   O1322023   0.482   2.464  13.164 -0.3658  0.3337  0.0763
  180DOPC   O1422024   0.606   2.247  13.191 -0.5054  0.2005  0.7965
  180DOPC   O1222025   0.398   2.258  13.054  0.0342  0.0997  0.4759
  180DOPC   O1122026   0.377   2.287  13.309 -0.4449  0.2951 -0.3030
  180DOPC    C122027   0.240   2.323  13.325  0.5455  0.0486  0.6059
  180DOPC    HA22028   0.189   2.255  13.396 -2.9101  1.5497 -0.2397
  180DOPC    HB22029   0.186   2.301  13.230  1.4345 -1.0199  0.3302
  180DOPC    C222030   0.220   2.473  13.359  0.5473  0.2105  0.6904
  180DOPC    HS22031   0.267   2.527  13.274 -0.1978 -2.0847 -1.2916
  180DOPC   O2122032   0.270   2.499  13.491  0.5600 -0.3059 -0.1639
  180DOPC   C2122033   0.348   2.599  13.494 -0.8000 -0.7402  0.2969
  180DOPC   O2222034   0.377   2.680  13.408  0.7727 -0.7330 -0.4057
  180DOPC   C2222035   0.410   2.611  13.641  0.4593  0.3194 -0.5709
  180DOPC   H2R22036   0.368   2.530  13.703 -0.0655  0.4217 -0.7883
  180DOPC   H2S22037   0.364   2.709  13.666  0.3878  0.1006  0.1721
  180DOPC    C322038   0.069   2.502  13.373 -0.2941  0.1922  0.1596
  180DOPC    HX22039   0.029   2.433  13.451  2.0118 -0.2329  1.0482
  180DOPC    HY22040   0.030   2.464  13.276  1.3302 -2.4801  0.4520
  180DOPC   O3122041   0.038   2.641  13.407  0.5731 -0.3279  0.6821
  180DOPC   C3122042  -0.013   2.705  13.291 -0.2611 -0.5792  0.2832
  180DOPC   O3222043   0.013   2.663  13.180  0.1972 -0.2295  0.7121
  180DOPC   C3222044  -0.097   2.829  13.325  0.3082  0.2616  0.1888
  180DOPC   H2X22045  -0.069   2.905  13.249 -0.4440 -0.4301 -0.8113
  180DOPC   H2Y22046  -0.206   2.808  13.325  0.5962 -1.4873 -0.8781
  180DOPC   C2322047   0.563   2.612  13.652 -0.1907 -0.0942 -0.4459
  180DOPC   H3R22048   0.615   2.676  13.578 -1.9618  0.2273 -1.4613
  180DOPC   H3S22049   0.597   2.508  13.631 -0.6648 -0.0128 -1.7124
  180DOPC   C2422050   0.603   2.649  13.800 -0.3610 -0.2127 -0.0496
  180DOPC   H4R22051   0.563   2.752  13.810 -1.2778 -0.7443  2.4655
  180DOPC   H4S22052   0.714   2.658  13.808 -0.3755 -0.9044  1.2407
  180DOPC   C2522053   0.539   2.569  13.906 -0.1170  0.1556 -0.0730
  180DOPC   H5R22054   0.520   2.463  13.879  0.8748  0.2743 -1.3084
  180DOPC   H5S22055   0.440   2.612  13.933 -1.1223 -1.4338 -1.0285
  180DOPC   C2622056   0.628   2.576  14.037  0.0990  0.7268 -0.5988
  180DOPC   H6R22057   0.643   2.685  14.055 -2.6562  1.2205 -0.8500
  180DOPC   H6S22058   0.721   2.522  14.011  1.2722  2.9301 -1.2280
  180DOPC   C2722059   0.567   2.515  14.154  0.1660 -0.0133 -0.5690
  180DOPC   H7R22060   0.551   2.405  14.149 -3.0919  0.3525 -0.1095
  180DOPC   H7S22061   0.473   2.573  14.166  0.2461  0.3599 -1.6418
  180DOPC   C2822062   0.651   2.551  14.283 -0.0802  0.7535 -0.7101
  180DOPC   H8R22063   0.667   2.661  14.285 -0.1860  0.7700  1.1906
  180DOPC   H8S22064   0.751   2.504  14.271 -0.8149 -0.6703 -1.6333
  180DOPC   C2922065   0.597   2.487  14.407 -0.5186 -0.1089 -0.1704
  180DOPC   H9R22066   0.598   2.377  14.406  1.7211 -0.1443 -1.8391
  180DOPC  C21022067   0.543   2.550  14.512 -0.3348  0.2037 -0.1669
  180DOPC  H10R22068   0.506   2.487  14.594 -1.5511  1.9950  0.7310
  180DOPC  C21122069   0.526   2.701  14.527 -0.4050  0.6917 -0.2554
  180DOPC  H11R22070   0.596   2.756  14.461 -0.0149 -1.4913 -1.7783
  180DOPC  H11S22071   0.543   2.732  14.632 -0.3366 -1.1823  0.3165
  180DOPC  C21222072   0.380   2.751  14.502 -0.0606 -0.0884 -0.0320
  180DOPC  H12R22073   0.388   2.860  14.522 -1.3082  0.6180 -2.8867
  180DOPC  H12S22074   0.303   2.707  14.568  0.5697  0.6769  1.2379
  180DOPC  C21322075   0.332   2.736  14.353 -0.1033  0.0237 -1.1459
  180DOPC  H13R22076   0.314   2.629  14.327 -0.1603 -0.4681  0.7115
  180DOPC  H13S22077   0.410   2.785  14.292  0.3039  1.4764  0.4596
  180DOPC  C21422078   0.208   2.818  14.323  0.9817 -0.2064 -0.5475
  180DOPC  H14R22079   0.203   2.839  14.214 -1.9695  0.2122 -0.4233
  180DOPC  H14S22080   0.214   2.915  14.377  0.6269 -0.7310  0.4633
  180DOPC  C21522081   0.077   2.748  14.371  0.7774 -0.4997  0.5663
  180DOPC  H15R22082   0.071   2.762  14.481 -1.5891 -1.0855  0.5607
  180DOPC  H15S22083   0.078   2.641  14.344  1.8832 -0.3193 -0.1850
  180DOPC  C21622084  -0.054   2.805  14.318 -0.5342  0.3732 -0.0034
  180DOPC  H16R22085  -0.066   2.782  14.210  1.9609  1.1783 -0.5183
  180DOPC  H16S22086  -0.066   2.915  14.332  0.5216  0.5051 -0.1297
  180DOPC  C21722087  -0.181   2.755  14.388  0.9960  0.7713  0.5126
  180DOPC  H17R22088  -0.193   2.654  14.345 -1.8257  2.2193 -2.5537
  180DOPC  H17S22089  -0.266   2.812  14.344 -0.9422 -0.7465  2.1128
  180DOPC  C21822090  -0.193   2.756  14.538 -0.1388  0.3801 -0.4292
  180DOPC  H18R22091  -0.161   2.852  14.582  3.5192 -0.4905 -0.9128
  180DOPC  H18S22092  -0.132   2.678  14.588 -1.7165 -0.7669 -0.2076
  180DOPC  H18T22093  -0.298   2.742  14.573  0.5767  0.3052  1.8306
  180DOPC   C3322094  -0.069   2.885  13.472 -0.1560  0.1105  0.2630
  180DOPC   H3X22095   0.041   2.894  13.484 -0.0794  0.2588 -0.5187
  180DOPC   H3Y22096  -0.106   2.807  13.543  1.6135 -1.5767 -0.5642
  180DOPC   C3422097  -0.139   3.019  13.497 -0.4254 -0.0327 -1.1003
  180DOPC   H4X22098  -0.249   3.006  13.508 -0.5804  1.4907 -0.6506
  180DOPC   H4Y22099  -0.106   3.073  13.406 -0.2731  1.0901 -0.4006
  180DOPC   C3522100  -0.088   3.100  13.618  0.1549 -0.2826 -0.3318
  180DOPC   H5X22101  -0.119   3.206  13.621 -0.7766 -0.5708  0.8918
  180DOPC   H5Y22102   0.023   3.103  13.605  0.2793  0.8102  0.8389
  180DOPC   C3622103  -0.124   3.039  13.753  0.4381 -0.0193 -0.1418
  180DOPC   H6X22104  -0.231   3.031  13.782  1.0721  1.8612  3.1888
  180DOPC   H6Y22105  -0.084   2.935  13.754  2.6927  0.8061  0.2927
  180DOPC   C3722106  -0.050   3.107  13.875 -0.0424 -0.1053 -0.0443
  180DOPC   H7X22107   0.057   3.080  13.876 -0.2622 -1.0801  1.9344
  180DOPC   H7Y22108  -0.068   3.217  13.879  1.1397  0.2106 -1.9419
  180DOPC   C3822109  -0.099   3.040  14.000  0.5007  0.3635 -0.3193
  180DOPC   H8X22110  -0.018   3.054  14.074 -0.8288  0.3568  1.2042
  180DOPC   H8Y22111  -0.122   2.932  13.985 -1.3692  0.3779  1.7998
  180DOPC   C3922112  -0.223   3.087  14.069 -0.6242  0.3761  0.1864
  180DOPC   H9X22113  -0.217   3.189  14.111 -1.8319  1.1803 -1.5039
  180DOPC  C31022114  -0.347   3.030  14.070  0.2862  0.3116  0.1127
  180DOPC  H10X22115  -0.429   3.100  14.090  0.7959  1.6958 -2.1902
  180DOPC  C31122116  -0.388   2.905  14.004  0.1073  0.4930 -0.5319
  180DOPC  H11X22117  -0.299   2.842  13.983 -0.8361 -0.5556 -1.4916
  180DOPC  H11Y22118  -0.447   2.926  13.913 -0.1061 -0.8669 -0.7196
  180DOPC  C31222119  -0.485   2.819  14.100  0.0360 -0.2597  1.1687
  180DOPC  H12X22120  -0.443   2.809  14.202 -0.1295 -0.5013  1.2138
  180DOPC  H12Y22121  -0.504   2.717  14.062 -0.7787  0.1580  0.4293
  180DOPC  C31322122  -0.620   2.891  14.115  0.5236  0.3420 -0.0095
  180DOPC  H13X22123  -0.595   2.994  14.149  2.1101  0.3704 -1.1102
  180DOPC  H13Y22124  -0.664   2.904  14.014  1.1378 -1.1668 -0.4949
  180DOPC  C31422125  -0.717   2.805  14.210 -0.2279 -0.2355  0.7127
  180DOPC  H14X22126  -0.754   2.715  14.158  0.5099 -0.4933  0.6223
  180DOPC  H14Y22127  -0.662   2.771  14.300  2.4316  1.5870 -0.0930
  180DOPC  C31522128  -0.840   2.885  14.255  0.5796 -0.1800 -0.4892
  180DOPC  H15X22129  -0.920   2.888  14.178  0.2664  0.1797 -0.1524
  180DOPC  H15Y22130  -0.804   2.987  14.280 -0.8430 -0.1806  1.7474
  180DOPC  C31622131  -0.908   2.834  14.383 -0.0091  0.5103  0.3379
  180DOPC  H16X22132  -0.926   2.725  14.371 -2.5235  0.7341  1.2799
  180DOPC  H16Y22133  -0.849   2.845  14.476  0.0436  0.6212  0.2908
  180DOPC  C31722134  -1.036   2.911  14.418 -0.0525  0.3837 -0.3806
  180DOPC  H17X22135  -1.009   3.014  14.450 -0.9724  0.6899 -0.5494
  180DOPC  H17Y22136  -1.098   2.913  14.326  0.4400 -0.9377 -0.7632
  180DOPC  C31822137  -1.114   2.845  14.534  0.1839  0.6908 -0.1292
  180DOPC  H18X22138  -1.048   2.848  14.623  2.8104 -1.0339 -1.9094
  180DOPC  H18Y22139  -1.210   2.901  14.546 -0.2310  0.0691 -0.5163
  180DOPC  H18Z22140  -1.152   2.743  14.512  0.3769 -0.0294  2.4678
  181DOPC     N22141   1.906   2.757  12.842 -0.1052 -0.1470 -0.0657
  181DOPC   C1222142   1.862   2.786  12.980  0.6772 -0.7116  0.5896
  181DOPC  H12A22143   1.865   2.894  12.986 -0.1793 -0.6335 -0.1952
  181DOPC  H12B22144   1.928   2.741  13.053  0.1289 -1.3806  0.6836
  181DOPC   C1322145   1.822   2.820  12.741 -0.2314 -0.1046  0.1344
  181DOPC  H13A22146   1.850   2.790  12.641 -0.6896 -2.3848  0.6430
  181DOPC  H13B22147   1.720   2.785  12.751  0.0240 -0.8149  0.2295
  181DOPC  H13C22148   1.832   2.928  12.744  0.5244 -0.1524 -0.5876
  181DOPC   C1422149   1.915   2.609  12.812 -0.2406 -0.6275 -0.3117
  181DOPC  H14A22150   1.935   2.602  12.707  0.9009  0.6720 -0.2192
  181DOPC  H14B22151   1.999   2.560  12.860 -0.6647 -0.4873  0.5923
  181DOPC  H14C22152   1.822   2.564  12.845 -0.1640 -0.1354  0.6229
  181DOPC   C1522153   2.040   2.819  12.838 -0.7225 -0.3207 -0.5278
  181DOPC  H15A22154   2.094   2.796  12.747  0.7774  0.8308  0.0320
  181DOPC  H15B22155   2.106   2.801  12.922 -1.5017  0.3130  0.2445
  181DOPC  H15C22156   2.038   2.927  12.843  1.2893 -0.2993  1.1697
  181DOPC   C1122157   1.723   2.737  13.013  0.1937  0.3809  0.5004
  181DOPC  H11A22158   1.679   2.779  13.105  0.9933  0.9127  0.6558
  181DOPC  H11B22159   1.643   2.764  12.941 -0.4829 -0.1195  1.0458
  181DOPC     P22160   1.793   2.521  13.138 -0.1112  0.4237  0.0140
  181DOPC   O1322161   1.936   2.544  13.123  0.3978  0.3610  0.0395
  181DOPC   O1422162   1.748   2.381  13.136 -0.4606  0.6740  0.1325
  181DOPC   O1222163   1.721   2.592  13.018  0.0789  0.8292 -0.2324
  181DOPC   O1122164   1.732   2.589  13.272 -0.2641 -0.4949  0.2560
  181DOPC    C122165   1.625   2.541  13.347  0.3728 -0.0207 -0.3477
  181DOPC    HA22166   1.561   2.470  13.289 -0.4382 -1.1814  1.8499
  181DOPC    HB22167   1.551   2.615  13.383 -0.8600 -1.7365  0.8159
  181DOPC    C222168   1.673   2.462  13.469 -0.4039  0.6416  0.6474
  181DOPC    HS22169   1.734   2.381  13.425 -1.3180  0.9587 -1.3231
  181DOPC   O2122170   1.558   2.414  13.535 -0.0264  0.0176 -0.5725
  181DOPC   C2122171   1.562   2.289  13.587 -0.3148  0.1315  0.5486
  181DOPC   O2222172   1.647   2.204  13.570  0.1787  0.8933  0.3019
  181DOPC   C2222173   1.437   2.267  13.674 -0.1297  0.0707  0.7512
  181DOPC   H2R22174   1.393   2.172  13.638 -0.0977  0.7087 -1.0713
  181DOPC   H2S22175   1.352   2.339  13.670 -1.5540 -1.5775  0.0468
  181DOPC    C322176   1.767   2.539  13.569  0.7391 -0.1555  0.6024
  181DOPC    HX22177   1.698   2.618  13.604 -0.8391 -0.4910 -1.5287
  181DOPC    HY22178   1.845   2.591  13.509 -0.1969  1.6414  0.8906
  181DOPC   O3122179   1.810   2.454  13.678 -0.1496 -0.0901  0.5395
  181DOPC   C3122180   1.937   2.414  13.665  0.8688  0.9391  0.6882
  181DOPC   O3222181   2.014   2.433  13.569 -0.1917  0.0772  0.2820
  181DOPC   C3222182   1.969   2.323  13.786 -0.0067  0.2452 -0.1939
  181DOPC   H2X22183   1.881   2.267  13.823  2.1311 -1.3696  2.8885
  181DOPC   H2Y22184   2.039   2.252  13.736 -0.8951 -0.3692 -0.5864
  181DOPC   C2322185   1.482   2.245  13.817  0.5627 -0.5048  0.1167
  181DOPC   H3R22186   1.551   2.159  13.831  0.4300 -0.5277  0.6636
  181DOPC   H3S22187   1.385   2.226  13.868 -0.3478  1.1649 -0.9081
  181DOPC   C2422188   1.524   2.378  13.888  0.5075  0.1411 -0.4797
  181DOPC   H4R22189   1.446   2.456  13.873 -0.3330 -0.5061  0.3533
  181DOPC   H4S22190   1.619   2.406  13.838 -0.3788 -0.1417 -2.4163
  181DOPC   C2522191   1.555   2.355  14.042 -0.5680  0.2831 -0.0367
  181DOPC   H5R22192   1.651   2.300  14.052  0.9014  1.9627 -3.5788
  181DOPC   H5S22193   1.470   2.300  14.089  0.9257 -1.8546  0.3360
  181DOPC   C2622194   1.564   2.491  14.126  0.1989  0.3343 -0.4513
  181DOPC   H6R22195   1.478   2.551  14.089 -0.0294  0.1653 -0.2020
  181DOPC   H6S22196   1.659   2.548  14.121  0.1166  0.5976  0.7030
  181DOPC   C2722197   1.547   2.455  14.274 -0.0220  0.4885  0.8339
  181DOPC   H7R22198   1.629   2.401  14.326 -1.0549  0.2336  2.2601
  181DOPC   H7S22199   1.461   2.387  14.287  0.8302 -0.7398  0.2259
  181DOPC   C2822200   1.523   2.591  14.345  0.2709 -0.2712 -0.4536
  181DOPC   H8R22201   1.439   2.641  14.292  1.1774 -0.4288 -2.1255
  181DOPC   H8S22202   1.620   2.641  14.324 -0.3283  1.0071 -0.2652
  181DOPC   C2922203   1.509   2.614  14.492 -0.3084  0.7250 -0.3513
  181DOPC   H9R22204   1.597   2.576  14.546 -1.6379 -1.9927  0.0640
  181DOPC  C21022205   1.412   2.676  14.559 -0.1950  0.1762 -0.2790
  181DOPC  H10R22206   1.398   2.659  14.667 -0.1655 -2.7807 -0.6437
  181DOPC  C21122207   1.292   2.748  14.492 -0.6998  0.4216 -0.5629
  181DOPC  H11R22208   1.312   2.788  14.391  0.1529  2.2225  0.2908
  181DOPC  H11S22209   1.254   2.836  14.548  3.8366  0.8159  2.4110
  181DOPC  C21222210   1.182   2.649  14.481  0.3132 -0.3264  0.1721
  181DOPC  H12R22211   1.210   2.549  14.440  2.6757  0.7002 -0.9012
  181DOPC  H12S22212   1.117   2.696  14.404 -2.1120 -0.9412  1.7221
  181DOPC  C21322213   1.096   2.627  14.607  0.2422 -0.0630  0.4988
  181DOPC  H13R22214   1.073   2.730  14.642 -0.3259 -0.9856  3.0787
  181DOPC  H13S22215   1.154   2.579  14.688  0.8528  0.2178  0.2354
  181DOPC  C21422216   0.969   2.545  14.579  0.0007  0.1157  0.3930
  181DOPC  H14R22217   1.003   2.443  14.552  0.7607  0.1248  1.2690
  181DOPC  H14S22218   0.911   2.589  14.495 -0.6331  1.4613  1.4741
  181DOPC  C21522219   0.877   2.529  14.706 -0.2515 -0.0401 -0.4976
  181DOPC  H15R22220   0.937   2.484  14.787 -0.0263  0.0571 -0.6111
  181DOPC  H15S22221   0.794   2.462  14.674  1.2411 -1.6240 -1.1989
  181DOPC  C21622222   0.819   2.663  14.751  0.1997 -0.6529 -0.6759
  181DOPC  H16R22223   0.783   2.719  14.662 -1.1206  1.6050  1.1578
  181DOPC  H16S22224   0.892   2.721  14.812 -3.3632  1.1920  2.2956
  181DOPC  C21722225   0.702   2.644  14.851 -0.3930  0.5421 -0.6078
  181DOPC  H17R22226   0.641   2.562  14.808  1.5804 -2.0014  1.1097
  181DOPC  H17S22227   0.640   2.736  14.849 -1.1601  0.0139 -2.0030
  181DOPC  C21822228   0.743   2.610  14.992 -0.1346 -0.1984 -0.3977
  181DOPC  H18R22229   0.787   2.697  15.045 -1.3670  1.2151 -1.5900
  181DOPC  H18S22230   0.824   2.533  14.990 -2.1533 -2.5849  1.9508
  181DOPC  H18T22231   0.663   2.578  15.062  0.3912 -1.6287 -0.4094
  181DOPC   C3322232   2.042   2.401  13.902 -0.8358  0.4013  0.4332
  181DOPC   H3X22233   2.140   2.437  13.864  0.5242 -0.7561  2.6059
  181DOPC   H3Y22234   2.066   2.329  13.983  2.1745  1.5831  0.7177
  181DOPC   C3422235   1.966   2.521  13.960  0.2981  0.2263  0.6191
  181DOPC   H4X22236   1.865   2.497  13.998  1.4246 -0.1959  3.5817
  181DOPC   H4Y22237   1.968   2.595  13.877 -3.0218  0.9956  1.0981
  181DOPC   C3522238   2.051   2.586  14.077 -0.7002  0.5532 -0.4156
  181DOPC   H5X22239   2.140   2.614  14.017 -0.3374  0.2218 -0.0418
  181DOPC   H5Y22240   2.084   2.505  14.146 -0.5812 -1.9604 -3.2415
  181DOPC   C3622241   1.997   2.709  14.158 -0.6002 -0.0267 -0.2753
  181DOPC   H6X22242   2.071   2.792  14.158  0.0792 -0.6180 -0.9837
  181DOPC   H6Y22243   1.907   2.733  14.098 -2.5398 -3.6727  0.8501
  181DOPC   C3722244   1.926   2.677  14.284 -0.5589 -0.8046 -0.2540
  181DOPC   H7X22245   1.856   2.756  14.318  0.1242 -0.8371  1.3157
  181DOPC   H7Y22246   1.856   2.590  14.277 -2.9474  1.0461 -0.8819
  181DOPC   C3822247   2.033   2.666  14.397  0.5229 -0.0501  0.0284
  181DOPC   H8X22248   2.117   2.601  14.363  0.1294 -1.8133  2.2340
  181DOPC   H8Y22249   1.987   2.602  14.475  1.7151  1.1265  1.7618
  181DOPC   C3922250   2.093   2.799  14.446  0.6447  0.1190 -0.4972
  181DOPC   H9X22251   2.135   2.861  14.366  1.0052 -1.6771 -1.7616
  181DOPC  C31022252   2.091   2.855  14.572  0.5855  0.6506 -0.0180
  181DOPC  H10X22253   2.157   2.941  14.588 -0.5471  1.6046 -0.2896
  181DOPC  C31122254   2.020   2.790  14.690 -0.6048 -0.4746  0.1425
  181DOPC  H11X22255   2.020   2.683  14.661  0.5146 -0.4500  0.0175
  181DOPC  H11Y22256   1.916   2.825  14.709 -0.8682 -2.0324  1.9338
  181DOPC  C31222257   2.093   2.799  14.825 -0.3310 -0.4612 -0.4870
  181DOPC  H12X22258   2.090   2.908  14.851 -0.1322 -0.0716 -2.0125
  181DOPC  H12Y22259   2.198   2.763  14.824  0.5834  1.9950 -0.5107
  181DOPC  C31322260   2.034   2.716  14.944  0.4320  0.0152 -0.0633
  181DOPC  H13X22261   1.924   2.718  14.931  0.3688 -4.1260 -1.2727
  181DOPC  H13Y22262   2.066   2.611  14.931  1.2642  0.3126 -0.4976
  181DOPC  C31422263   2.075   2.777  15.085 -0.0900  0.0284 -0.0480
  181DOPC  H14X22264   2.024   2.876  15.083 -0.0710  0.0340 -0.2611
  181DOPC  H14Y22265   2.031   2.716  15.167  0.7197 -0.3318  0.1332
  181DOPC  C31522266   2.224   2.801  15.114  0.1508 -0.1085  0.2471
  181DOPC  H15X22267   2.273   2.882  15.057 -0.4595  1.1057  1.3928
  181DOPC  H15Y22268   2.289   2.714  15.091  0.2667 -0.2793  1.1741
  181DOPC  C31622269   2.235   2.821  15.268 -0.4572 -0.5122 -0.3130
  181DOPC  H16X22270   2.173   2.906  15.305  0.4758 -0.3947  1.0760
  181DOPC  H16Y22271   2.187   2.735  15.319 -2.0043 -0.4936 -1.6551
  181DOPC  C31722272   2.376   2.840  15.322 -1.0762 -0.1151  0.0787
  181DOPC  H17X22273   2.409   2.933  15.269 -0.4296  0.2824  1.1413
  181DOPC  H17Y22274   2.385   2.852  15.432  0.5610 -2.2127  0.2380
  181DOPC  C31822275   2.477   2.724  15.285 -0.4752 -0.2521  0.3473
  181DOPC  H18X22276   2.487   2.721  15.174  1.8161 -0.1052  0.5224
  181DOPC  H18Y22277   2.582   2.741  15.317 -0.0217  1.4747 -1.7673
  181DOPC  H18Z22278   2.433   2.630  15.324 -2.2164 -0.2460 -1.4133
  182DOPC     N22279   3.547   0.528  12.539  0.1819  0.2140  0.2395
  182DOPC   C1222280   3.583   0.561  12.681 -0.6445  0.1667 -0.0084
  182DOPC  H12A22281   3.678   0.515  12.703 -1.2285 -0.8748  0.4071
  182DOPC  H12B22282   3.522   0.511  12.755 -2.0740  1.9581  0.1141
  182DOPC   C1322283   3.639   0.583  12.441 -0.3362  0.5478  0.3328
  182DOPC  H13A22284   3.598   0.591  12.342  0.8425  0.0254 -0.2193
  182DOPC  H13B22285   3.661   0.682  12.476 -1.9443  0.4562  1.7115
  182DOPC  H13C22286   3.727   0.522  12.425 -0.4542  0.5422 -0.3257
  182DOPC   C1422287   3.407   0.579  12.506  0.1588  0.2760  0.1939
  182DOPC  H14A22288   3.335   0.530  12.569 -0.7616  0.1218 -0.9497
  182DOPC  H14B22289   3.397   0.684  12.527 -1.5837  0.4473 -1.2789
  182DOPC  H14C22290   3.386   0.556  12.402 -1.6487  0.8748  0.3957
  182DOPC   C1522291   3.551   0.370  12.528 -0.0266  0.0193  0.6933
  182DOPC  H15A22292   3.480   0.320  12.593 -1.8537  0.9575 -0.5059
  182DOPC  H15B22293   3.646   0.326  12.556 -0.1420 -0.6311  0.0814
  182DOPC  H15C22294   3.524   0.331  12.431  1.6333 -1.0256  0.6058
  182DOPC   C1122295   3.592   0.709  12.729 -0.1152 -0.3607 -0.3247
  182DOPC  H11A22296   3.647   0.719  12.825 -2.7700  0.5276  1.2083
  182DOPC  H11B22297   3.651   0.762  12.651 -2.0656 -1.7143 -2.8896
  182DOPC     P22298   3.352   0.718  12.825  0.2038 -0.3263  0.1190
  182DOPC   O1322299   3.256   0.637  12.762 -0.3905 -0.1954  0.1948
  182DOPC   O1422300   3.300   0.836  12.899 -0.1435  0.2477  0.1827
  182DOPC   O1222301   3.464   0.775  12.731  0.1190  0.1157 -0.3111
  182DOPC   O1122302   3.428   0.621  12.930 -0.2411 -0.5996  0.5320
  182DOPC    C122303   3.498   0.660  13.053  0.9485 -0.4704 -0.4896
  182DOPC    HA22304   3.480   0.766  13.080 -2.0328 -1.4574  2.0588
  182DOPC    HB22305   3.605   0.631  13.045  0.6062 -1.8147 -0.4455
  182DOPC    C222306   3.436   0.587  13.176  0.0299  0.1644 -0.2615
  182DOPC    HS22307   3.460   0.481  13.155  0.8822 -0.3468  2.8136
  182DOPC   O2122308   3.295   0.613  13.170 -0.2281 -0.7982  0.3589
  182DOPC   C2122309   3.219   0.540  13.250  0.2474 -0.4180 -0.1644
  182DOPC   O2222310   3.268   0.470  13.340  0.8974 -0.3356 -0.1994
  182DOPC   C2222311   3.073   0.554  13.212 -0.1261 -0.1973 -0.4568
  182DOPC   H2R22312   3.047   0.486  13.129 -0.9363  0.0086 -0.3755
  182DOPC   H2S22313   3.060   0.658  13.177 -0.7218  0.2828  1.1135
  182DOPC    C322314   3.508   0.634  13.300 -0.2231 -0.8186  0.0728
  182DOPC    HX22315   3.469   0.595  13.396  1.3376  1.8789  1.9595
  182DOPC    HY22316   3.498   0.743  13.318 -1.8704 -0.7484 -1.0408
  182DOPC   O3122317   3.650   0.611  13.288  0.1534  0.0457  0.4384
  182DOPC   C3122318   3.686   0.492  13.328 -0.8025 -0.2768  0.2477
  182DOPC   O3222319   3.620   0.401  13.371  0.3053 -0.0486  0.3507
  182DOPC   C3222320   3.839   0.480  13.305  0.8407 -0.0720 -0.3401
  182DOPC   H2X22321   3.882   0.396  13.364  2.7841  2.4639  2.2118
  182DOPC   H2Y22322   3.852   0.467  13.196 -0.0121  1.5175 -0.6540
  182DOPC   C2322323   2.982   0.534  13.335 -0.4135 -0.1721 -0.1794
  182DOPC   H3R22324   3.012   0.599  13.420 -2.1886 -0.7608  0.9499
  182DOPC   H3S22325   2.999   0.430  13.371  1.1681  0.1619  0.0980
  182DOPC   C2422326   2.828   0.567  13.310  0.1334 -0.4312  0.4673
  182DOPC   H4R22327   2.796   0.518  13.216 -1.7501 -0.1168  0.9087
  182DOPC   H4S22328   2.828   0.675  13.285 -2.0271 -0.9182 -1.9875
  182DOPC   C2522329   2.745   0.534  13.427 -0.0810  0.8731  0.0095
  182DOPC   H5R22330   2.776   0.440  13.477 -2.0956 -2.3783 -4.2106
  182DOPC   H5S22331   2.647   0.510  13.379  0.6216 -0.5889 -0.7570
  182DOPC   C2622332   2.722   0.658  13.525  0.1598  0.8247  0.0799
  182DOPC   H6R22333   2.668   0.746  13.482  0.4453  1.6928  1.4343
  182DOPC   H6S22334   2.821   0.699  13.553 -0.0284  1.2374  0.1484
  182DOPC   C2722335   2.638   0.613  13.643  0.3475 -0.2813 -0.2863
  182DOPC   H7R22336   2.685   0.530  13.699  1.9969  1.2164  0.6357
  182DOPC   H7S22337   2.539   0.588  13.597 -0.0493  0.8617 -0.0734
  182DOPC   C2822338   2.621   0.741  13.735  0.3058  0.5745 -0.5991
  182DOPC   H8R22339   2.601   0.830  13.672  0.3079  1.3338  0.4446
  182DOPC   H8S22340   2.707   0.770  13.799  0.3376 -2.8195  1.1524
  182DOPC   C2922341   2.494   0.740  13.820 -0.8705  0.0108  0.6534
  182DOPC   H9R22342   2.401   0.722  13.764 -0.2240 -1.8289  0.1135
  182DOPC  C21022343   2.490   0.748  13.952  0.7077  0.4671 -0.2033
  182DOPC  H10R22344   2.391   0.758  13.999  1.1074 -0.7470  0.9542
  182DOPC  C21122345   2.602   0.763  14.045 -0.5617  0.5919  0.0424
  182DOPC  H11R22346   2.629   0.871  14.047 -2.5027  1.1123  0.1114
  182DOPC  H11S22347   2.692   0.700  14.027  0.1503  1.6543 -0.2971
  182DOPC  C21222348   2.556   0.724  14.187  0.1605  0.2391 -1.3546
  182DOPC  H12R22349   2.525   0.617  14.185 -2.7752  0.9890 -0.3790
  182DOPC  H12S22350   2.471   0.784  14.225  1.5579  0.3833  1.8776
  182DOPC  C21322351   2.661   0.759  14.291 -0.3457 -0.5774 -0.4579
  182DOPC  H13R22352   2.707   0.858  14.268 -1.4263  0.2055  0.5735
  182DOPC  H13S22353   2.737   0.680  14.308 -1.5007 -1.3379  1.4923
  182DOPC  C21422354   2.612   0.795  14.435 -0.7110  0.5389  0.2050
  182DOPC  H14R22355   2.544   0.880  14.409 -1.2524  0.4975  1.4428
  182DOPC  H14S22356   2.701   0.838  14.485  0.7242 -1.9377 -0.0528
  182DOPC  C21522357   2.564   0.672  14.512 -0.1265 -0.3125  0.0548
  182DOPC  H15R22358   2.557   0.694  14.620 -0.9792 -0.4114  0.0241
  182DOPC  H15S22359   2.645   0.596  14.507  0.6161  0.5375 -1.5129
  182DOPC  C21622360   2.426   0.608  14.472 -0.5984 -0.5970 -0.9609
  182DOPC  H16R22361   2.440   0.546  14.382  3.0093 -1.5986  0.1201
  182DOPC  H16S22362   2.349   0.686  14.457  1.9231  2.2779 -0.0314
  182DOPC  C21722363   2.372   0.522  14.587 -0.3710  0.2302  0.5016
  182DOPC  H17R22364   2.350   0.591  14.672 -1.0172  0.6827 -0.0202
  182DOPC  H17S22365   2.446   0.442  14.607 -1.6115 -1.6573 -1.9195
  182DOPC  C21822366   2.242   0.442  14.554  0.2156  0.3679  0.1402
  182DOPC  H18R22367   2.263   0.349  14.496 -1.6114  0.4051 -0.6280
  182DOPC  H18S22368   2.174   0.511  14.500 -1.0030  0.5819  1.8616
  182DOPC  H18T22369   2.197   0.423  14.654  1.8500  1.8076  1.2029
  182DOPC   C3322370   3.912   0.611  13.329 -0.7917 -0.6798  0.1473
  182DOPC   H3X22371   3.872   0.700  13.277  0.6761  0.8184  1.4458
  182DOPC   H3Y22372   4.015   0.600  13.289 -0.4136  0.2994  0.8128
  182DOPC   C3422373   3.923   0.640  13.480  0.4935  0.1989 -0.8396
  182DOPC   H4X22374   3.956   0.553  13.541  2.5874  0.6419 -1.2608
  182DOPC   H4Y22375   3.819   0.670  13.507  0.5654 -1.1320  1.1699
  182DOPC   C3522376   4.025   0.751  13.503  0.2682  0.3863 -0.0947
  182DOPC   H5X22377   4.016   0.787  13.607  0.5648  0.9796 -0.2684
  182DOPC   H5Y22378   4.019   0.839  13.435  0.0099  1.3663  1.1607
  182DOPC   C3622379   4.176   0.708  13.516  0.5518 -0.2459  0.8657
  182DOPC   H6X22380   4.178   0.635  13.600  2.2225  1.5519  2.4843
  182DOPC   H6Y22381   4.208   0.664  13.419 -1.3441 -1.3684  0.6855
  182DOPC   C3722382   4.266   0.828  13.541  0.6839  0.6744  0.4134
  182DOPC   H7X22383   4.292   0.887  13.451 -0.3760  0.1911 -0.2233
  182DOPC   H7Y22384   4.219   0.901  13.610  0.9456  2.4199 -1.1746
  182DOPC   C3822385   4.389   0.792  13.631  0.1104 -0.3340 -0.4776
  182DOPC   H8X22386   4.473   0.738  13.582  1.1894  0.5732  0.3309
  182DOPC   H8Y22387   4.346   0.723  13.707  2.1942 -0.7293  0.3915
  182DOPC   C3922388   4.467   0.910  13.687 -0.2735 -0.4243  0.3619
  182DOPC   H9X22389   4.527   0.957  13.608 -0.7758 -1.0515 -0.4036
  182DOPC  C31022390   4.457   0.977  13.805  0.3643  0.4450  0.0719
  182DOPC  H10X22391   4.524   1.059  13.836 -0.8222  1.7013 -0.5637
  182DOPC  C31122392   4.358   0.943  13.915 -0.0250  0.1548 -0.0916
  182DOPC  H11X22393   4.312   0.842  13.907 -0.3884  0.0683  2.2277
  182DOPC  H11Y22394   4.275   1.016  13.926  1.4824  1.7880  1.0692
  182DOPC  C31222395   4.422   0.937  14.056 -0.5764  0.5731 -0.4889
  182DOPC  H12X22396   4.446   1.036  14.101 -2.5239  0.7201  0.3063
  182DOPC  H12Y22397   4.510   0.870  14.059 -1.4229 -0.5238  0.2469
  182DOPC  C31322398   4.334   0.881  14.166  0.0895  0.8013 -0.1667
  182DOPC  H13X22399   4.258   0.956  14.196  1.1340  2.2247 -0.9892
  182DOPC  H13Y22400   4.283   0.785  14.141 -0.7408  0.7889  1.4192
  182DOPC  C31422401   4.425   0.852  14.290 -0.2628  0.1887 -0.5403
  182DOPC  H14X22402   4.522   0.805  14.261 -1.1189 -1.2965 -1.1541
  182DOPC  H14Y22403   4.445   0.955  14.325 -1.6142  0.7351 -1.2955
  182DOPC  C31522404   4.352   0.772  14.404 -0.0975  0.0852  0.2726
  182DOPC  H15X22405   4.432   0.747  14.477  1.2113 -1.3597 -1.5476
  182DOPC  H15Y22406   4.311   0.673  14.374  0.5211 -0.8085  2.2228
  182DOPC  C31622407   4.233   0.857  14.462 -0.0433  0.6458 -0.2562
  182DOPC  H16X22408   4.262   0.961  14.486  0.7302  0.3585  0.0971
  182DOPC  H16Y22409   4.161   0.859  14.377  0.1877 -1.6553 -0.5663
  182DOPC  C31722410   4.154   0.793  14.575 -0.5215 -0.1407 -0.1545
  182DOPC  H17X22411   4.054   0.840  14.581 -0.0061  0.9518  0.0938
  182DOPC  H17Y22412   4.137   0.684  14.560 -0.9012 -0.4272  2.0218
  182DOPC  C31822413   4.212   0.832  14.715  0.1533  0.3797  0.2803
  182DOPC  H18X22414   4.160   0.789  14.804 -0.6746 -1.1735 -0.8868
  182DOPC  H18Y22415   4.321   0.812  14.715 -0.0987 -1.2261 -0.4089
  182DOPC  H18Z22416   4.218   0.942  14.719 -1.3148  0.5198 -0.4847
  183DOPC     N22417   0.704   4.562  12.504  0.7672  0.2295 -0.0186
  183DOPC   C1222418   0.756   4.425  12.534 -0.0607  0.5302 -0.6133
  183DOPC  H12A22419   0.815   4.385  12.453 -2.8855  1.2115 -3.1693
  183DOPC  H12B22420   0.683   4.346  12.527  0.7485 -0.1784 -1.1299
  183DOPC   C1322421   0.572   4.588  12.576 -0.3222  0.2499 -0.4124
  183DOPC  H13A22422   0.494   4.514  12.567 -0.6723  0.5877 -0.1642
  183DOPC  H13B22423   0.583   4.574  12.683  0.5323  1.9194 -0.2496
  183DOPC  H13C22424   0.536   4.687  12.555  1.1633  0.7991 -0.4944
  183DOPC   C1422425   0.669   4.570  12.361 -0.0518  0.5025  0.4433
  183DOPC  H14A22426   0.601   4.496  12.323  1.7375 -0.4564 -1.0750
  183DOPC  H14B22427   0.639   4.670  12.331  0.1331  0.0106 -1.5243
  183DOPC  H14C22428   0.764   4.561  12.309  0.3103  0.7422  1.0472
  183DOPC   C1522429   0.801   4.660  12.542 -0.3393  0.0533  0.3960
  183DOPC  H15A22430   0.879   4.662  12.467 -1.0172  2.2854 -0.3094
  183DOPC  H15B22431   0.843   4.649  12.641  0.8866 -0.5558 -0.1682
  183DOPC  H15C22432   0.766   4.761  12.531  2.9961  1.3714  0.6565
  183DOPC   C1122433   0.826   4.401  12.668 -0.8089 -0.5374  0.2575
  183DOPC  H11A22434   0.847   4.292  12.672 -1.1276 -0.6134 -0.0715
  183DOPC  H11B22435   0.921   4.459  12.668 -0.9957 -0.1905  1.5047
  183DOPC     P22436   0.806   4.496  12.906  0.6725  0.2562 -0.3569
  183DOPC   O1322437   0.703   4.534  13.009 -0.3684 -0.2318 -0.0855
  183DOPC   O1422438   0.903   4.597  12.859  0.1156  0.4850  0.4236
  183DOPC   O1222439   0.746   4.436  12.774 -0.0070  0.0983 -0.3953
  183DOPC   O1122440   0.896   4.375  12.956 -0.2421  0.5260 -0.0965
  183DOPC    C122441   0.849   4.249  13.003 -0.3232  0.0746  0.1276
  183DOPC    HA22442   0.901   4.178  12.936  0.7050  1.4086 -0.5484
  183DOPC    HB22443   0.739   4.233  12.997 -0.0097 -1.7933 -1.2253
  183DOPC    C222444   0.882   4.221  13.155  0.5553 -0.0086 -0.2747
  183DOPC    HS22445   0.838   4.122  13.179  0.7551  0.5915  2.9853
  183DOPC   O2122446   0.840   4.336  13.237 -0.3575  0.4868 -0.6627
  183DOPC   C2122447   0.707   4.332  13.273 -0.1863  0.9898 -0.7364
  183DOPC   O2222448   0.623   4.266  13.216 -0.0624 -0.2629  0.0089
  183DOPC   C2222449   0.672   4.410  13.403 -0.2864 -0.6846  0.5466
  183DOPC   H2R22450   0.564   4.434  13.397 -0.0595 -0.0885 -2.6557
  183DOPC   H2S22451   0.736   4.500  13.396  2.3480 -2.3450  1.5006
  183DOPC    C322452   1.036   4.193  13.169 -0.1491  0.0675  0.6890
  183DOPC    HX22453   1.091   4.268  13.108  0.2789 -0.6744  0.1399
  183DOPC    HY22454   1.053   4.097  13.116 -1.3721  0.2271 -0.0238
  183DOPC   O3122455   1.077   4.177  13.304 -0.2817 -1.4579 -0.1475
  183DOPC   C3122456   1.119   4.278  13.369  0.2786 -0.3110 -0.0839
  183DOPC   O3222457   1.144   4.389  13.323 -0.4626 -1.0954 -0.0979
  183DOPC   C3222458   1.120   4.249  13.526  0.2659 -0.4035 -0.2055
  183DOPC   H2X22459   1.014   4.222  13.546  0.2085 -0.5855 -0.7294
  183DOPC   H2Y22460   1.185   4.162  13.547  1.0720  0.1648 -0.2891
  183DOPC   C2322461   0.710   4.333  13.535  0.3418 -0.1764  0.2196
  183DOPC   H3R22462   0.811   4.291  13.516  0.4067  0.5754 -1.2261
  183DOPC   H3S22463   0.640   4.247  13.534 -0.8360  0.7106 -2.2090
  183DOPC   C2422464   0.697   4.414  13.663 -0.1106  0.8051  0.0254
  183DOPC   H4R22465   0.591   4.446  13.677 -1.1062 -2.1146 -0.2363
  183DOPC   H4S22466   0.757   4.507  13.652 -0.8574  1.1866 -0.9910
  183DOPC   C2522467   0.736   4.344  13.784  0.1206 -0.0587  0.0815
  183DOPC   H5R22468   0.847   4.344  13.785  0.1781  0.4427 -1.7035
  183DOPC   H5S22469   0.701   4.239  13.774 -1.6533  0.6518 -2.3700
  183DOPC   C2622470   0.678   4.385  13.917 -0.4168 -0.2195  0.4865
  183DOPC   H6R22471   0.719   4.322  13.999  1.0934 -0.3572 -0.3416
  183DOPC   H6S22472   0.569   4.375  13.897 -0.2697 -0.5716 -0.1745
  183DOPC   C2722473   0.731   4.528  13.957 -0.3276  0.0214 -0.1442
  183DOPC   H7R22474   0.648   4.598  13.931  1.5201  1.7335 -1.7875
  183DOPC   H7S22475   0.829   4.543  13.907  1.6018 -0.0430  3.3414
  183DOPC   C2822476   0.751   4.544  14.112  0.0362 -0.3325  0.2478
  183DOPC   H8R22477   0.836   4.484  14.148  2.3668  2.4411 -0.2175
  183DOPC   H8S22478   0.662   4.493  14.154  0.7309 -1.8386 -0.0531
  183DOPC   C2922479   0.771   4.691  14.148 -0.1767 -0.3121  0.2886
  183DOPC   H9R22480   0.852   4.744  14.096 -0.6617  0.6404  0.4674
  183DOPC  C21022481   0.695   4.765  14.223  1.2140  0.4821  0.4746
  183DOPC  H10R22482   0.716   4.873  14.230 -1.0579  1.1104 -1.1233
  183DOPC  C21122483   0.572   4.715  14.296 -0.5569  0.2719  0.1144
  183DOPC  H11R22484   0.551   4.778  14.385 -1.3244 -0.1938  0.2645
  183DOPC  H11S22485   0.594   4.615  14.340 -1.4246  0.5350  1.1847
  183DOPC  C21222486   0.455   4.697  14.205  0.7232  0.5406 -0.3489
  183DOPC  H12R22487   0.474   4.622  14.125 -1.1565  0.2306 -0.5607
  183DOPC  H12S22488   0.419   4.792  14.159  0.3074  0.4591 -0.1963
  183DOPC  C21322489   0.340   4.654  14.298  0.0927  0.2904  0.4106
  183DOPC  H13R22490   0.299   4.728  14.370 -1.5438 -1.2948  1.2215
  183DOPC  H13S22491   0.361   4.558  14.351 -3.0801 -0.1178  1.1533
  183DOPC  C21422492   0.225   4.629  14.201  0.3102  0.5529  0.2277
  183DOPC  H14R22493   0.249   4.524  14.173 -1.2271 -0.3866  2.2063
  183DOPC  H14S22494   0.218   4.691  14.109 -0.5535  1.1506  0.6827
  183DOPC  C21522495   0.089   4.623  14.268 -0.8839 -0.0435  0.1787
  183DOPC  H15R22496   0.069   4.722  14.316  2.5798  1.6303 -1.4731
  183DOPC  H15S22497   0.083   4.542  14.344  1.4254 -1.9498 -1.5194
  183DOPC  C21622498  -0.027   4.590  14.166 -0.0420  0.4036 -0.0035
  183DOPC  H16R22499  -0.040   4.678  14.099 -0.1286  0.1021 -0.3895
  183DOPC  H16S22500  -0.121   4.580  14.224  0.3954  2.7319  1.2433
  183DOPC  C21722501  -0.014   4.460  14.081 -0.7007 -0.5240 -1.0339
  183DOPC  H17R22502   0.059   4.386  14.120  0.7223  1.4376  0.2399
  183DOPC  H17S22503   0.031   4.491  13.984 -1.6619  0.1634 -1.2758
  183DOPC  C21822504  -0.149   4.383  14.056 -0.3535  1.0254  0.6931
  183DOPC  H18R22505  -0.209   4.355  14.145  1.0893  0.6888  1.5937
  183DOPC  H18S22506  -0.126   4.290  13.998 -1.4327  0.6000  0.9217
  183DOPC  H18T22507  -0.212   4.449  13.993 -1.1786  1.7631  2.2454
  183DOPC   C3322508   1.154   4.361  13.627  0.7350  0.4145 -0.2041
  183DOPC   H3X22509   1.062   4.423  13.635  0.0333 -0.7345  0.9306
  183DOPC   H3Y22510   1.234   4.429  13.591  2.5262 -0.7460  1.3755
  183DOPC   C3422511   1.183   4.315  13.775 -0.0695 -0.5039 -0.0864
  183DOPC   H4X22512   1.286   4.275  13.785 -0.2938 -0.5005  3.4984
  183DOPC   H4Y22513   1.103   4.243  13.802 -0.4121  0.7043  2.5004
  183DOPC   C3522514   1.181   4.427  13.877  0.3536 -0.7950  0.0765
  183DOPC   H5X22515   1.092   4.490  13.858  0.0863 -0.6705  1.6275
  183DOPC   H5Y22516   1.265   4.494  13.849 -0.3984  0.3346  0.4494
  183DOPC   C3622517   1.182   4.371  14.022 -0.9739 -0.0892 -0.3433
  183DOPC   H6X22518   1.093   4.309  14.048  1.0476 -1.7234  3.4431
  183DOPC   H6Y22519   1.279   4.317  14.025  0.3273  2.0924 -0.9925
  183DOPC   C3722520   1.191   4.485  14.121  0.4398  0.0626  0.2385
  183DOPC   H7X22521   1.256   4.568  14.084 -0.4012  0.3944 -0.5240
  183DOPC   H7Y22522   1.099   4.544  14.136  0.4710 -0.4528  3.0453
  183DOPC   C3822523   1.254   4.447  14.260  0.9004  0.1026  0.6720
  183DOPC   H8X22524   1.221   4.514  14.343  0.2322  0.2416  0.3000
  183DOPC   H8Y22525   1.364   4.454  14.249  0.7950 -1.3121 -1.8316
  183DOPC   C3922526   1.234   4.305  14.297  0.0197 -0.1549 -0.5641
  183DOPC   H9X22527   1.320   4.236  14.297 -0.3312 -0.6119 -1.2762
  183DOPC  C31022528   1.107   4.252  14.332 -0.8565 -0.2243  0.6660
  183DOPC  H10X22529   1.104   4.145  14.358 -0.1252 -0.0246  1.6460
  183DOPC  C31122530   0.973   4.327  14.333 -0.2171 -0.7051  0.1964
  183DOPC  H11X22531   0.908   4.270  14.264 -0.9168  0.6834 -0.3326
  183DOPC  H11Y22532   0.980   4.427  14.285 -0.0385 -1.0335 -0.4691
  183DOPC  C31222533   0.923   4.341  14.476  0.4640  0.0898 -0.0590
  183DOPC  H12X22534   1.005   4.386  14.536  0.6620 -0.6345  0.2188
  183DOPC  H12Y22535   0.891   4.247  14.525  3.0991  0.2922  2.2767
  183DOPC  C31322536   0.818   4.444  14.481  1.1328 -0.4038 -0.2816
  183DOPC  H13X22537   0.853   4.539  14.434  2.4113 -1.5814 -1.8074
  183DOPC  H13Y22538   0.743   4.414  14.405  0.8539  1.0919 -0.6462
  183DOPC  C31422539   0.770   4.467  14.620 -0.4942  0.0340  0.3379
  183DOPC  H14X22540   0.751   4.367  14.666 -1.1890  1.1915  2.7135
  183DOPC  H14Y22541   0.847   4.520  14.680 -0.2298 -0.1349  0.1460
  183DOPC  C31522542   0.645   4.556  14.635 -0.3678 -0.4261 -0.1190
  183DOPC  H15X22543   0.559   4.519  14.575 -0.4377 -3.3434  1.5930
  183DOPC  H15Y22544   0.678   4.653  14.591 -0.5519  0.1987  1.0792
  183DOPC  C31622545   0.594   4.586  14.780  0.0079  0.4392 -0.1793
  183DOPC  H16X22546   0.676   4.632  14.839  0.6782  1.0077 -1.5015
  183DOPC  H16Y22547   0.517   4.666  14.794 -0.3431  0.1723 -0.5626
  183DOPC  C31722548   0.558   4.450  14.855  0.2840 -0.5206 -0.0437
  183DOPC  H17X22549   0.633   4.371  14.829  1.1453 -0.2870  1.6042
  183DOPC  H17Y22550   0.570   4.466  14.964 -1.1657 -0.6956  0.1610
  183DOPC  C31822551   0.424   4.392  14.827  0.1199  0.0017 -0.0970
  183DOPC  H18X22552   0.426   4.285  14.856  0.8219  0.4880  1.7655
  183DOPC  H18Y22553   0.351   4.439  14.897 -0.9222  0.9108 -1.7214
  183DOPC  H18Z22554   0.391   4.411  14.722  0.4917  0.7290 -0.0896
  184DOPC     N22555   6.766   0.736  12.556  0.6250 -0.3910  0.0410
  184DOPC   C1222556   6.715   0.772  12.690  0.0492 -0.1320 -0.2210
  184DOPC  H12A22557   6.727   0.685  12.752  0.4546  1.5111  2.1477
  184DOPC  H12B22558   6.609   0.788  12.676 -0.5766 -0.8788  2.8695
  184DOPC   C1322559   6.882   0.641  12.564 -0.1049  0.1795  0.0260
  184DOPC  H13A22560   6.958   0.698  12.614 -0.0316 -0.0160  0.1402
  184DOPC  H13B22561   6.857   0.554  12.624  0.4108  1.0544  1.5600
  184DOPC  H13C22562   6.913   0.589  12.475 -1.8166 -1.3571  0.2567
  184DOPC   C1422563   6.802   0.860  12.471 -0.0800 -0.0668 -0.5235
  184DOPC  H14A22564   6.886   0.910  12.518 -0.7473 -0.3103  1.0015
  184DOPC  H14B22565   6.833   0.834  12.371  0.8173 -0.4803 -0.1479
  184DOPC  H14C22566   6.718   0.929  12.464 -1.3491 -1.7092 -2.4087
  184DOPC   C1522567   6.654   0.659  12.481 -0.2423 -0.6927  0.1831
  184DOPC  H15A22568   6.626   0.580  12.550 -2.9244  0.6711  0.7778
  184DOPC  H15B22569   6.691   0.614  12.391 -2.1662 -0.2268 -0.8921
  184DOPC  H15C22570   6.572   0.727  12.462  1.0079  0.9066  0.3079
  184DOPC   C1122571   6.763   0.897  12.770  0.2151  0.3787  0.1118
  184DOPC  H11A22572   6.771   0.986  12.705 -1.8396  0.8112  0.3878
  184DOPC  H11B22573   6.684   0.911  12.846 -0.8273  0.6545 -0.9949
  184DOPC     P22574   6.907   0.775  12.951  0.2110  0.0521  0.3510
  184DOPC   O1322575   7.042   0.788  13.012 -0.7005  0.6181  0.2640
  184DOPC   O1422576   6.868   0.638  12.905  0.2177 -0.3493  0.4259
  184DOPC   O1222577   6.897   0.869  12.822 -0.2973 -0.7103  0.2990
  184DOPC   O1122578   6.804   0.843  13.049  0.3793 -0.0947 -0.2067
  184DOPC    C122579   6.840   0.967  13.111 -0.2932 -0.1661 -0.1086
  184DOPC    HA22580   6.757   1.041  13.119  1.1446  1.4935 -0.0904
  184DOPC    HB22581   6.926   1.012  13.057 -0.9105 -0.0813 -1.0505
  184DOPC    C222582   6.894   0.936  13.258 -0.2668 -0.3202 -0.2991
  184DOPC    HS22583   6.980   0.866  13.257  0.7679  0.8874  0.7426
  184DOPC   O2122584   6.786   0.898  13.350  0.0953 -0.3743  0.2956
  184DOPC   C2122585   6.814   0.795  13.424 -0.3106 -0.0111 -0.1572
  184DOPC   O2222586   6.912   0.723  13.417 -0.8486 -0.6010 -0.6200
  184DOPC   C2222587   6.691   0.773  13.520  0.3346  0.1035 -0.0455
  184DOPC   H2R22588   6.678   0.663  13.529 -2.1933  0.3622 -0.0698
  184DOPC   H2S22589   6.598   0.808  13.471  0.2305 -0.2501 -0.1000
  184DOPC    C322590   6.962   1.068  13.305  0.3294 -0.0180 -0.2847
  184DOPC    HX22591   6.875   1.136  13.312 -1.0763 -1.8476  0.9001
  184DOPC    HY22592   7.031   1.112  13.230 -0.1634  2.5239  0.6456
  184DOPC   O3122593   7.016   1.066  13.440  0.0411  0.1621 -0.0442
  184DOPC   C3122594   7.139   1.020  13.449 -0.2280  0.5209  0.0445
  184DOPC   O3222595   7.200   0.977  13.348  0.4575 -0.2244  0.7857
  184DOPC   C3222596   7.183   1.011  13.591  0.3331 -0.5594 -0.3226
  184DOPC   H2X22597   7.159   1.110  13.636 -0.9440 -0.3752 -1.3504
  184DOPC   H2Y22598   7.133   0.924  13.640  0.2345  0.3586  1.3055
  184DOPC   C2322599   6.702   0.843  13.655  0.1594 -0.7609  0.2676
  184DOPC   H3R22600   6.609   0.823  13.714  0.0838 -1.4313 -0.0715
  184DOPC   H3S22601   6.704   0.954  13.649 -0.2305 -0.8321 -1.7860
  184DOPC   C2422602   6.805   0.782  13.760 -0.4662  0.3205 -0.0833
  184DOPC   H4R22603   6.907   0.793  13.719  0.5454  0.4748  2.3043
  184DOPC   H4S22604   6.779   0.675  13.773  0.2656  0.4005  2.5944
  184DOPC   C2522605   6.810   0.859  13.896  0.9715  0.1261  0.3379
  184DOPC   H5R22606   6.717   0.840  13.955  2.2596 -0.6828  2.1928
  184DOPC   H5S22607   6.830   0.967  13.879  2.8388 -0.1081  0.8853
  184DOPC   C2622608   6.923   0.823  13.990  0.6824  0.2827  0.1224
  184DOPC   H6R22609   7.014   0.830  13.925  1.1026 -1.1701  0.5192
  184DOPC   H6S22610   6.904   0.719  14.023 -0.8468  0.9311  1.3989
  184DOPC   C2722611   6.923   0.906  14.122 -0.3091  0.9631  0.4922
  184DOPC   H7R22612   6.885   1.001  14.079  2.0340 -0.0775 -4.6222
  184DOPC   H7S22613   7.022   0.912  14.174 -1.0859  2.9754  1.8957
  184DOPC   C2822614   6.822   0.846  14.222 -0.0233  0.2101  0.0712
  184DOPC   H8R22615   6.870   0.754  14.263  0.7105  0.5248 -0.0533
  184DOPC   H8S22616   6.738   0.810  14.159  0.5364 -1.0425  0.0068
  184DOPC   C2922617   6.772   0.940  14.326  0.0097  0.9437 -0.6874
  184DOPC   H9R22618   6.810   1.043  14.323  0.0262  0.9308 -0.8920
  184DOPC  C21022619   6.683   0.912  14.426  0.3577  0.1095 -0.0833
  184DOPC  H10R22620   6.649   0.997  14.487 -0.7395 -0.9324  0.7693
  184DOPC  C21122621   6.606   0.786  14.445  0.3678 -0.6178  0.7108
  184DOPC  H11R22622   6.614   0.741  14.546  0.2928 -0.9976  0.5485
  184DOPC  H11S22623   6.653   0.707  14.382  1.7948  0.8173 -0.0976
  184DOPC  C21222624   6.467   0.800  14.392  0.0803  0.5311  0.1806
  184DOPC  H12R22625   6.458   0.844  14.290  1.1231  0.4097  0.0307
  184DOPC  H12S22626   6.424   0.877  14.461  1.8297 -0.8443  2.9795
  184DOPC  C21322627   6.383   0.677  14.401 -0.3210  0.6612 -0.0480
  184DOPC  H13R22628   6.279   0.707  14.376 -0.4441  0.4307  0.1759
  184DOPC  H13S22629   6.376   0.631  14.502  0.0501  1.7626  0.5008
  184DOPC  C21422630   6.430   0.567  14.306  0.2006  0.2130  0.3402
  184DOPC  H14R22631   6.361   0.482  14.327  0.2588  0.3454  1.0718
  184DOPC  H14S22632   6.530   0.526  14.330 -0.4743 -2.1656 -0.6172
  184DOPC  C21522633   6.426   0.608  14.156 -0.5704 -0.0973 -0.0575
  184DOPC  H15R22634   6.487   0.700  14.152  1.1318 -1.1283  0.9019
  184DOPC  H15S22635   6.317   0.613  14.134 -1.2577  1.3597  3.1898
  184DOPC  C21622636   6.495   0.499  14.069  0.1815 -0.4420  0.8188
  184DOPC  H16R22637   6.429   0.410  14.081  1.9933 -1.7170  2.0025
  184DOPC  H16S22638   6.600   0.482  14.102  0.2067  0.5050  1.2543
  184DOPC  C21722639   6.503   0.549  13.925  0.3409 -0.0283 -0.8589
  184DOPC  H17R22640   6.557   0.646  13.922 -0.8765  0.6616 -1.3593
  184DOPC  H17S22641   6.396   0.570  13.903  0.7595  1.5733 -1.5120
  184DOPC  C21822642   6.564   0.457  13.820 -0.1472 -0.3253 -0.5125
  184DOPC  H18R22643   6.550   0.491  13.715  1.1815  1.3960 -0.1798
  184DOPC  H18S22644   6.522   0.357  13.843 -2.1445  0.9578  1.8053
  184DOPC  H18T22645   6.674   0.455  13.834 -0.2921 -0.4329  0.7384
  184DOPC   C3322646   7.336   0.979  13.614  0.3662  0.5752 -0.6298
  184DOPC   H3X22647   7.400   1.031  13.540  0.5980  1.4930  0.1855
  184DOPC   H3Y22648   7.346   0.870  13.600  0.0988  0.3498  0.7973
  184DOPC   C3422649   7.384   1.014  13.754 -0.4075 -0.5951  0.6400
  184DOPC   H4X22650   7.368   1.120  13.781  4.1398  0.9704 -1.8029
  184DOPC   H4Y22651   7.494   1.007  13.739 -0.4537  0.1107 -0.1281
  184DOPC   C3522652   7.341   0.900  13.849  0.5361  0.1510 -0.4290
  184DOPC   H5X22653   7.348   0.805  13.793  2.4456 -0.5637  0.9130
  184DOPC   H5Y22654   7.236   0.924  13.876  0.7418 -0.0347  0.5537
  184DOPC   C3622655   7.422   0.879  13.974 -0.5947 -0.6425  0.1273
  184DOPC   H6X22656   7.393   0.783  14.023 -1.5581  0.4634  1.8172
  184DOPC   H6Y22657   7.525   0.852  13.942  0.2330  0.2086  1.9697
  184DOPC   C3722658   7.406   0.986  14.083 -0.4169 -0.2407  0.5611
  184DOPC   H7X22659   7.394   1.087  14.038 -1.3352 -0.5870 -0.0119
  184DOPC   H7Y22660   7.305   0.968  14.126 -0.9487 -0.9765 -0.9525
  184DOPC   C3822661   7.508   0.990  14.192  0.0718  0.2241  0.1058
  184DOPC   H8X22662   7.497   1.087  14.246  0.9794  0.0315  0.6493
  184DOPC   H8Y22663   7.609   0.986  14.148 -0.7862 -0.9623 -1.8872
  184DOPC   C3922664   7.507   0.878  14.290  0.3853  0.1695 -0.3393
  184DOPC   H9X22665   7.467   0.786  14.245 -2.0326  0.6163  0.7866
  184DOPC  C31022666   7.545   0.879  14.417  0.3822 -0.1069  0.1599
  184DOPC  H10X22667   7.539   0.784  14.471  2.6721 -1.0517 -1.1332
  184DOPC  C31122668   7.596   1.002  14.495 -0.2967 -0.9484  0.6403
  184DOPC  H11X22669   7.573   1.097  14.442  1.2163 -0.5180  0.7184
  184DOPC  H11Y22670   7.707   1.003  14.494 -0.2278 -3.3822 -0.0933
  184DOPC  C31222671   7.533   1.000  14.630  0.0245  0.1020 -0.1760
  184DOPC  H12X22672   7.538   0.901  14.681  3.3631 -1.3539 -2.8912
  184DOPC  H12Y22673   7.425   1.024  14.626 -0.6940 -2.6651  0.2031
  184DOPC  C31322674   7.607   1.097  14.727 -0.0849 -0.1654 -0.2162
  184DOPC  H13X22675   7.682   1.030  14.775  0.3316  0.7804  0.4746
  184DOPC  H13Y22676   7.671   1.164  14.665  2.7460 -2.8447 -0.4673
  184DOPC  C31422677   7.519   1.172  14.816 -0.5627  0.4568 -0.2656
  184DOPC  H14X22678   7.451   1.243  14.762  1.7906  1.9227 -1.4791
  184DOPC  H14Y22679   7.457   1.100  14.873  0.0041  2.0726  2.5669
  184DOPC  C31522680   7.596   1.262  14.915 -0.1920 -0.2342 -0.0447
  184DOPC  H15X22681   7.687   1.205  14.942  0.2450 -0.5850 -2.1300
  184DOPC  H15Y22682   7.531   1.276  15.005  0.7908 -0.4420  0.7111
  184DOPC  C31622683   7.650   1.392  14.868  0.0532 -0.2737  0.3743
  184DOPC  H16X22684   7.734   1.383  14.795  0.3786 -0.8835  0.8198
  184DOPC  H16Y22685   7.574   1.454  14.816 -0.6942 -0.9114  0.6936
  184DOPC  C31722686   7.707   1.471  14.986 -0.1688 -0.0472  0.0387
  184DOPC  H17X22687   7.689   1.425  15.086  1.7695 -0.7220  0.1203
  184DOPC  H17Y22688   7.817   1.464  14.970  0.1516  0.8115  1.6039
  184DOPC  C31822689   7.641   1.607  14.975  0.1071  0.6133 -0.0737
  184DOPC  H18X22690   7.534   1.584  14.996  0.6590 -3.0780 -0.6374
  184DOPC  H18Y22691   7.672   1.683  15.049 -0.7627 -0.3916  1.3674
  184DOPC  H18Z22692   7.642   1.645  14.870 -1.6116 -1.7093 -1.0128
  185DOPC     N22693   7.509   5.431  12.894  0.0826 -0.4956 -0.7996
  185DOPC   C1222694   7.618   5.330  12.924  0.3929  0.3579 -0.6070
  185DOPC  H12A22695   7.675   5.324  12.833 -0.5785  1.9360 -1.3562
  185DOPC  H12B22696   7.574   5.232  12.935  1.8773 -0.3599 -0.9404
  185DOPC   C1322697   7.568   5.569  12.882  1.0803  0.0032 -0.4160
  185DOPC  H13A22698   7.629   5.594  12.968  0.7019 -0.9517  0.1465
  185DOPC  H13B22699   7.640   5.557  12.802  1.8676 -2.4637  0.5504
  185DOPC  H13C22700   7.495   5.640  12.848  2.6347  1.8384 -0.0953
  185DOPC   C1422701   7.399   5.421  12.993 -0.3011  0.1700 -0.0664
  185DOPC  H14A22702   7.437   5.412  13.094  0.7225 -0.1433 -0.4747
  185DOPC  H14B22703   7.332   5.506  12.993 -0.0232  0.4028  0.7677
  185DOPC  H14C22704   7.345   5.331  12.967 -1.2339 -0.0845  2.4258
  185DOPC   C1522705   7.449   5.406  12.762  0.1048  0.2163 -0.2441
  185DOPC  H15A22706   7.524   5.417  12.686 -0.0247 -0.4944 -0.4779
  185DOPC  H15B22707   7.370   5.475  12.736  0.1321  0.1823 -0.4157
  185DOPC  H15C22708   7.411   5.305  12.769  1.1569 -0.0965  1.7204
  185DOPC   C1122709   7.712   5.354  13.045 -0.1321 -0.9611 -0.1098
  185DOPC  H11A22710   7.646   5.353  13.135 -0.1410  3.7587  0.1974
  185DOPC  H11B22711   7.777   5.265  13.060 -0.5570 -1.2817 -0.1407
  185DOPC     P22712   7.938   5.474  12.993  0.2412  0.1645 -0.0181
  185DOPC   O1322713   7.986   5.616  12.997  0.2909  0.2158  0.3699
  185DOPC   O1422714   7.959   5.396  12.871  0.5581 -0.3221 -0.7712
  185DOPC   O1222715   7.787   5.472  13.038  0.0387  0.1768  0.2670
  185DOPC   O1122716   8.007   5.387  13.100 -0.3976  1.0604 -0.3343
  185DOPC    C122717   7.979   5.403  13.245  0.0807  0.6893 -0.6115
  185DOPC    HA22718   7.885   5.461  13.259 -0.1770  0.3584 -0.9345
  185DOPC    HB22719   8.062   5.469  13.277  0.5364  1.4471 -3.1310
  185DOPC    C222720   7.972   5.264  13.326 -0.0837 -1.0008 -0.3299
  185DOPC    HS22721   7.952   5.193  13.243 -1.1256 -1.2789  0.1480
  185DOPC   O2122722   7.856   5.267  13.405  0.5172 -0.2136  0.1303
  185DOPC   C2122723   7.805   5.152  13.437 -0.2144  0.2799 -0.2090
  185DOPC   O2222724   7.851   5.043  13.402  0.1835  0.4289 -0.0998
  185DOPC   C2222725   7.701   5.179  13.546 -0.0051 -0.6291  0.2026
  185DOPC   H2R22726   7.603   5.196  13.496 -0.3214  1.2229  1.3496
  185DOPC   H2S22727   7.729   5.273  13.598 -2.7097 -0.4266  1.4942
  185DOPC    C322728   8.112   5.233  13.399  0.2304 -0.3641  0.4316
  185DOPC    HX22729   8.190   5.222  13.320 -0.8263 -0.7260 -0.5976
  185DOPC    HY22730   8.092   5.139  13.455 -2.0878  0.5067  1.1943
  185DOPC   O3122731   8.148   5.337  13.491  0.6204  0.3170  0.6641
  185DOPC   C3122732   8.241   5.298  13.573 -0.2146 -0.8129 -0.0080
  185DOPC   O3222733   8.312   5.202  13.550  0.0869 -0.6329 -0.3788
  185DOPC   C3222734   8.253   5.387  13.690 -0.3266 -0.6585  0.3389
  185DOPC   H2X22735   8.342   5.356  13.750 -0.8487 -1.2771  0.8062
  185DOPC   H2Y22736   8.278   5.489  13.653 -0.9561 -1.3762 -2.2171
  185DOPC   C2322737   7.693   5.073  13.644 -0.0116  0.4246  0.0178
  185DOPC   H3R22738   7.791   5.049  13.690  0.3480  2.8332  0.6559
  185DOPC   H3S22739   7.667   4.977  13.595  0.6050  0.6959 -0.8637
  185DOPC   C2422740   7.585   5.092  13.754  0.0947  0.1566 -0.2938
  185DOPC   H4R22741   7.487   5.111  13.704  0.2495 -0.1647 -0.7332
  185DOPC   H4S22742   7.601   5.186  13.810 -0.2899  0.9829 -1.5249
  185DOPC   C2522743   7.582   4.986  13.859 -0.0827 -0.0343 -0.0962
  185DOPC   H5R22744   7.669   4.981  13.928 -1.0244  1.8601  1.3363
  185DOPC   H5S22745   7.599   4.887  13.813 -0.4471 -0.5913  0.9444
  185DOPC   C2622746   7.451   4.977  13.932 -0.3585 -0.7738  0.5981
  185DOPC   H6R22747   7.368   4.975  13.857  0.6073 -1.2538 -0.4942
  185DOPC   H6S22748   7.425   5.062  13.998 -0.9701 -2.3504  2.4677
  185DOPC   C2722749   7.444   4.858  14.023 -0.5385  0.1936 -0.1903
  185DOPC   H7R22750   7.502   4.863  14.118 -2.9012 -1.1834  1.4625
  185DOPC   H7S22751   7.478   4.772  13.961  0.7412  0.3371  0.2742
  185DOPC   C2822752   7.302   4.813  14.061 -0.4338  0.1227  0.3008
  185DOPC   H8R22753   7.327   4.714  14.103  0.2314  0.0447 -0.2602
  185DOPC   H8S22754   7.242   4.803  13.968 -0.4102 -0.5772  0.3584
  185DOPC   C2922755   7.236   4.907  14.162  0.2301  0.7092  0.7114
  185DOPC   H9R22756   7.183   4.995  14.122 -0.4068 -0.9121 -2.3288
  185DOPC  C21022757   7.245   4.894  14.294  0.1065 -0.7556  0.2154
  185DOPC  H10R22758   7.185   4.959  14.359 -0.8829 -1.6672  0.2290
  185DOPC  C21122759   7.327   4.791  14.367 -0.5146 -0.8051  0.2599
  185DOPC  H11R22760   7.435   4.791  14.345 -0.4058 -0.7272  0.7871
  185DOPC  H11S22761   7.283   4.689  14.358 -1.3228 -0.3953 -0.6968
  185DOPC  C21222762   7.322   4.817  14.520 -0.1736 -0.4613  0.4380
  185DOPC  H12R22763   7.215   4.823  14.548 -0.1912 -2.5093  1.0004
  185DOPC  H12S22764   7.378   4.909  14.550 -0.3403 -0.9775  2.5079
  185DOPC  C21322765   7.387   4.704  14.606  0.6917  0.2250  0.4884
  185DOPC  H13R22766   7.348   4.607  14.569 -0.3962  0.8334 -0.0284
  185DOPC  H13S22767   7.354   4.713  14.712 -0.8741  1.5187 -0.0572
  185DOPC  C21422768   7.534   4.692  14.603 -0.2904 -0.8032 -0.2939
  185DOPC  H14R22769   7.598   4.780  14.625  0.9431 -1.8581  0.5569
  185DOPC  H14S22770   7.573   4.662  14.503  2.2800  0.9036  0.0961
  185DOPC  C21522771   7.592   4.580  14.696 -0.4047 -0.1212  0.4626
  185DOPC  H15R22772   7.551   4.482  14.664  0.6527 -0.6747  0.7538
  185DOPC  H15S22773   7.552   4.608  14.796  0.7741  0.3763  0.8137
  185DOPC  C21622774   7.748   4.570  14.698  0.0802  0.2316  0.3634
  185DOPC  H16R22775   7.780   4.554  14.593 -0.0394  1.8874  0.0581
  185DOPC  H16S22776   7.762   4.478  14.760 -0.4580 -0.2890 -0.2671
  185DOPC  C21722777   7.825   4.686  14.770  0.8265 -0.3265  0.5870
  185DOPC  H17R22778   7.814   4.774  14.702 -2.3926 -0.8056  0.3327
  185DOPC  H17S22779   7.935   4.674  14.772  1.2360  2.2117 -1.2965
  185DOPC  C21822780   7.772   4.728  14.907 -0.3071 -0.6443  0.1930
  185DOPC  H18R22781   7.775   4.640  14.974 -0.8918 -0.2972  0.6823
  185DOPC  H18S22782   7.671   4.775  14.900 -0.5287 -0.6729  2.5336
  185DOPC  H18T22783   7.843   4.805  14.945  1.7834 -1.8558 -1.0450
  185DOPC   C3322784   8.141   5.408  13.789  0.3968 -0.5497 -1.1059
  185DOPC   H3X22785   8.048   5.429  13.733 -0.3105 -1.0250 -0.1308
  185DOPC   H3Y22786   8.175   5.489  13.856 -1.5459 -0.8227  0.2839
  185DOPC   C3422787   8.130   5.277  13.876 -0.1367 -0.0551 -0.2276
  185DOPC   H4X22788   8.223   5.268  13.936  0.0577  2.5740 -0.0154
  185DOPC   H4Y22789   8.118   5.186  13.813 -2.3423 -0.3010  0.4591
  185DOPC   C3522790   8.018   5.275  13.982  0.5310  0.0649 -0.1178
  185DOPC   H5X22791   7.916   5.280  13.939 -0.2211 -1.0763  1.4400
  185DOPC   H5Y22792   8.041   5.360  14.049  2.7025 -0.1004 -0.5558
  185DOPC   C3622793   8.013   5.139  14.059  0.3332  0.4769 -0.4287
  185DOPC   H6X22794   7.989   5.055  13.990  1.7902 -0.2796 -0.0505
  185DOPC   H6Y22795   8.108   5.098  14.099 -0.2031 -1.3808 -0.9457
  185DOPC   C3722796   7.917   5.142  14.178 -0.8030 -0.1253 -0.1431
  185DOPC   H7X22797   7.959   5.200  14.263 -1.4069 -1.4021  1.0610
  185DOPC   H7Y22798   7.824   5.182  14.132  0.6316  1.3078 -1.9516
  185DOPC   C3822799   7.897   5.001  14.249  0.3298  0.3018 -0.2165
  185DOPC   H8X22800   7.994   4.951  14.270 -0.5771 -1.4036  0.0182
  185DOPC   H8Y22801   7.831   4.942  14.183 -1.3033  2.4883 -0.6699
  185DOPC   C3922802   7.818   5.010  14.379  0.1564  0.3297 -0.5930
  185DOPC   H9X22803   7.711   5.030  14.366 -0.0811  0.1401  0.9023
  185DOPC  C31022804   7.858   5.006  14.509  0.1340  0.5961 -0.6955
  185DOPC  H10X22805   7.783   5.045  14.580  0.0718  0.4627 -0.6877
  185DOPC  C31122806   8.005   4.996  14.547 -0.1103  0.2470  0.1206
  185DOPC  H11X22807   8.056   5.085  14.503 -2.2320  2.1067  1.1903
  185DOPC  H11Y22808   8.052   4.904  14.507 -0.1685  0.4551 -0.4459
  185DOPC  C31222809   8.034   4.998  14.700  0.3465  0.2357 -0.6588
  185DOPC  H12X22810   8.142   4.975  14.710  1.0231  3.3389  0.4340
  185DOPC  H12Y22811   7.977   4.921  14.757 -1.5980  1.3258 -1.0262
  185DOPC  C31322812   8.003   5.133  14.756 -0.6953  0.2821  0.2603
  185DOPC  H13X22813   8.064   5.206  14.699  0.8252 -2.2919 -1.5927
  185DOPC  H13Y22814   7.898   5.158  14.729 -0.9874 -0.0293  1.0764
  185DOPC  C31422815   8.024   5.153  14.909  0.4060 -0.3358  0.3235
  185DOPC  H14X22816   7.986   5.255  14.934 -2.8235  0.0859 -4.7678
  185DOPC  H14Y22817   7.951   5.081  14.952  0.2085 -0.3334 -0.0091
  185DOPC  C31522818   8.170   5.131  14.950  0.1559 -0.4007  0.1951
  185DOPC  H15X22819   8.210   5.036  14.910 -0.8979 -0.6601 -0.2856
  185DOPC  H15Y22820   8.167   5.128  15.061  1.9924 -0.3947  0.2653
  185DOPC  C31622821   8.266   5.244  14.920  0.0822  0.1837 -0.1715
  185DOPC  H16X22822   8.371   5.209  14.925  0.4894  1.4871  1.2389
  185DOPC  H16Y22823   8.254   5.282  14.817 -1.6508 -0.1686 -0.1315
  185DOPC  C31722824   8.251   5.371  14.998 -0.3240 -0.2146  0.3735
  185DOPC  H17X22825   8.152   5.422  14.991  0.0725  0.3762 -1.3685
  185DOPC  H17Y22826   8.261   5.346  15.106  1.4841 -0.5154  0.1656
  185DOPC  C31822827   8.341   5.489  14.963  0.0736  0.1346  0.2803
  185DOPC  H18X22828   8.442   5.444  14.951  0.2271  0.4350  0.4436
  185DOPC  H18Y22829   8.311   5.543  14.870  1.2151  1.1426  0.4717
  185DOPC  H18Z22830   8.348   5.560  15.048 -0.2591 -0.5133  0.8581
  186DOPC     N22831   1.449   2.387  12.811 -0.0271  0.1087  0.6921
  186DOPC   C1222832   1.322   2.374  12.900  0.2100  0.9529  0.3898
  186DOPC  H12A22833   1.270   2.281  12.884  1.7005  0.2096 -0.3204
  186DOPC  H12B22834   1.245   2.443  12.870  0.3297  1.9734  2.2566
  186DOPC   C1322835   1.402   2.371  12.665 -0.1917 -0.0673  0.1661
  186DOPC  H13A22836   1.345   2.279  12.661  0.7083 -0.8243  2.8010
  186DOPC  H13B22837   1.350   2.465  12.651 -0.2007 -0.0092  0.5811
  186DOPC  H13C22838   1.485   2.364  12.597 -0.0996 -0.4505  0.3155
  186DOPC   C1422839   1.547   2.271  12.833 -0.5874 -0.1310 -0.1686
  186DOPC  H14A22840   1.569   2.268  12.939  1.6694 -1.4626 -0.6259
  186DOPC  H14B22841   1.510   2.175  12.800 -0.0045  0.0035 -1.2501
  186DOPC  H14C22842   1.647   2.283  12.795  0.0029 -4.5973 -0.6000
  186DOPC   C1522843   1.518   2.516  12.821 -0.5578  0.0286 -0.1612
  186DOPC  H15A22844   1.561   2.534  12.918 -1.1955 -0.0842  0.1457
  186DOPC  H15B22845   1.461   2.606  12.801  0.6053  0.7653 -0.2517
  186DOPC  H15C22846   1.597   2.529  12.748  0.8449  0.6037  1.3925
  186DOPC   C1122847   1.356   2.416  13.043  0.3517  0.0564 -0.0199
  186DOPC  H11A22848   1.436   2.345  13.071 -0.0496 -0.9783 -1.3900
  186DOPC  H11B22849   1.383   2.524  13.046  1.3413 -0.1681 -0.3876
  186DOPC     P22850   1.107   2.481  13.121  0.3177  0.2145  0.4849
  186DOPC   O1322851   1.010   2.425  13.022 -0.2917  0.0542 -0.2261
  186DOPC   O1422852   1.138   2.623  13.099 -0.1861  0.2882  0.4244
  186DOPC   O1222853   1.238   2.390  13.120 -0.0592  0.1710 -0.4867
  186DOPC   O1122854   1.055   2.452  13.274 -0.6955  0.2064  0.3366
  186DOPC    C122855   0.981   2.552  13.341 -0.3580  0.5718 -0.0112
  186DOPC    HA22856   0.907   2.599  13.273 -0.2668  1.4655  0.4902
  186DOPC    HB22857   1.044   2.626  13.394 -0.5360  1.4533 -1.0006
  186DOPC    C222858   0.897   2.492  13.451  0.0199  0.3531 -0.1696
  186DOPC    HS22859   0.836   2.578  13.486  0.4296  1.0650 -1.1601
  186DOPC   O2122860   0.985   2.449  13.552  0.1019  0.1544  0.0559
  186DOPC   C2122861   1.026   2.545  13.641  0.0736  0.6971 -0.0775
  186DOPC   O2222862   1.005   2.660  13.630  0.5597  0.0737 -0.2719
  186DOPC   C2222863   1.096   2.476  13.759  0.2280 -0.0645  0.6190
  186DOPC   H2R22864   1.180   2.412  13.726 -1.1998 -2.4536  1.3472
  186DOPC   H2S22865   1.027   2.394  13.790  1.8636 -1.2835  1.2044
  186DOPC    C322866   0.797   2.376  13.425 -0.3883 -0.2873 -0.1287
  186DOPC    HX22867   0.841   2.294  13.365  0.0441  0.2545 -0.5649
  186DOPC    HY22868   0.720   2.419  13.356 -0.2241  1.6243  0.8266
  186DOPC   O3122869   0.734   2.326  13.551  0.2207  0.0746 -0.0147
  186DOPC   C3122870   0.781   2.214  13.601 -0.2436 -0.2093 -0.0114
  186DOPC   O3222871   0.869   2.149  13.546  0.1247 -0.4694  0.6109
  186DOPC   C3222872   0.707   2.176  13.729  0.8165 -0.3874 -0.6216
  186DOPC   H2X22873   0.611   2.233  13.724  0.7632 -0.5811 -3.0550
  186DOPC   H2Y22874   0.677   2.069  13.726  0.1123 -0.3294  1.8655
  186DOPC   C2322875   1.148   2.557  13.880  0.0489  0.2335  0.3066
  186DOPC   H3R22876   1.121   2.664  13.869  0.4550  0.1465 -2.0901
  186DOPC   H3S22877   1.259   2.554  13.887  0.2057 -0.5910 -1.9093
  186DOPC   C2422878   1.087   2.519  14.015 -0.2930  0.4557  0.3590
  186DOPC   H4R22879   0.981   2.550  14.027 -0.2695  2.1137 -2.6138
  186DOPC   H4S22880   1.136   2.588  14.087  0.0034 -0.3778  0.9732
  186DOPC   C2522881   1.123   2.377  14.060 -0.2553 -0.5986 -0.0762
  186DOPC   H5R22882   1.228   2.358  14.030 -0.4747  0.7145 -1.8301
  186DOPC   H5S22883   1.062   2.304  14.003 -0.1549 -1.1513  0.5177
  186DOPC   C2622884   1.103   2.346  14.213 -0.5813 -0.3904 -0.1320
  186DOPC   H6R22885   0.998   2.364  14.243 -1.0849 -1.9539 -0.8979
  186DOPC   H6S22886   1.150   2.425  14.277 -1.8627 -0.8089  1.3875
  186DOPC   C2722887   1.157   2.207  14.243  0.2439 -0.2696  0.3458
  186DOPC   H7R22888   1.250   2.183  14.187 -1.6602 -2.2246 -2.2303
  186DOPC   H7S22889   1.083   2.138  14.197 -1.0135  2.0156 -1.3075
  186DOPC   C2822890   1.199   2.176  14.385  0.0259 -0.8607  0.0967
  186DOPC   H8R22891   1.120   2.184  14.463 -0.0525  2.5667 -0.1665
  186DOPC   H8S22892   1.278   2.247  14.419 -2.4706  1.8720  0.6337
  186DOPC   C2922893   1.262   2.039  14.388  0.2956  0.5970  0.2977
  186DOPC   H9R22894   1.189   1.971  14.342  0.5656 -0.3714  1.2788
  186DOPC  C21022895   1.385   2.004  14.418  0.5031 -0.2151 -0.4272
  186DOPC  H10R22896   1.406   1.897  14.403 -0.5271 -0.9383  2.6020
  186DOPC  C21122897   1.508   2.081  14.459  0.3357  0.7859  0.4071
  186DOPC  H11R22898   1.496   2.184  14.498 -1.9992  1.0963 -0.9664
  186DOPC  H11S22899   1.560   2.105  14.364  0.4420  1.6337  0.6782
  186DOPC  C21222900   1.597   2.003  14.562 -0.2050 -0.6362  0.5669
  186DOPC  H12R22901   1.693   2.058  14.570  0.9704 -2.6574  0.9836
  186DOPC  H12S22902   1.611   1.901  14.522 -2.1028 -0.3665 -0.9567
  186DOPC  C21322903   1.538   2.008  14.702  0.4042  0.4002 -0.4787
  186DOPC  H13R22904   1.429   1.987  14.701  0.5282 -0.3590  0.3437
  186DOPC  H13S22905   1.557   2.108  14.745  0.0740 -0.5382  2.0385
  186DOPC  C21422906   1.606   1.907  14.804  0.0613  0.3934  0.4804
  186DOPC  H14R22907   1.585   1.807  14.761  1.6492  0.3409 -0.2640
  186DOPC  H14S22908   1.566   1.898  14.907  2.2094 -1.2255  1.2419
  186DOPC  C21522909   1.756   1.917  14.806 -0.4539  0.2235 -0.2219
  186DOPC  H15R22910   1.773   2.026  14.816 -1.5882  0.5048 -1.1171
  186DOPC  H15S22911   1.806   1.885  14.713  0.4337  1.2920 -0.1306
  186DOPC  C21622912   1.820   1.851  14.933  0.8747  0.4780  0.2052
  186DOPC  H16R22913   1.824   1.740  14.926 -0.7101  0.4832 -1.8196
  186DOPC  H16S22914   1.762   1.882  15.023  0.6736  1.1659 -0.1556
  186DOPC  C21722915   1.963   1.897  14.954 -0.0527 -0.3399  0.1592
  186DOPC  H17R22916   1.960   2.006  14.972 -1.6410 -0.4638  0.7754
  186DOPC  H17S22917   2.034   1.885  14.869 -0.4049  0.2349 -0.2212
  186DOPC  C21822918   2.011   1.830  15.079 -0.4661 -0.2268  0.0407
  186DOPC  H18R22919   1.946   1.850  15.167 -0.5999 -1.2790  0.1936
  186DOPC  H18S22920   2.111   1.866  15.112 -0.5891 -0.6085  0.8572
  186DOPC  H18T22921   2.012   1.720  15.061  0.3568  0.0885 -2.2068
  186DOPC   C3322922   0.794   2.206  13.851 -0.0860 -0.0857  0.1649
  186DOPC   H3X22923   0.814   2.315  13.850  0.3544 -0.1101 -3.3422
  186DOPC   H3Y22924   0.884   2.141  13.850 -0.4834 -0.6794  0.9021
  186DOPC   C3422925   0.705   2.171  13.978  0.0304  0.1699  1.0398
  186DOPC   H4X22926   0.688   2.061  13.978 -0.6628  0.2217 -1.2561
  186DOPC   H4Y22927   0.610   2.226  13.961  0.0008 -0.1349  0.1443
  186DOPC   C3522928   0.772   2.209  14.110  0.2358  0.9784  0.0817
  186DOPC   H5X22929   0.795   2.317  14.122  2.1402  0.8828 -2.1271
  186DOPC   H5Y22930   0.870   2.158  14.114  0.8695  2.0056 -1.6790
  186DOPC   C3622931   0.688   2.151  14.232  0.0946 -0.3423 -0.0437
  186DOPC   H6X22932   0.598   2.213  14.252 -0.4295 -1.6801  2.1058
  186DOPC   H6Y22933   0.647   2.052  14.202 -0.1547  0.1990 -1.5876
  186DOPC   C3722934   0.781   2.150  14.357 -0.1898 -0.2096  0.1437
  186DOPC   H7X22935   0.853   2.235  14.353  0.4227 -0.6325  1.4801
  186DOPC   H7Y22936   0.711   2.166  14.442 -1.5529 -0.7260 -0.8440
  186DOPC   C3822937   0.850   2.011  14.382  0.1829 -0.0916  0.6553
  186DOPC   H8X22938   0.914   2.021  14.473 -0.6090  0.6035  1.1550
  186DOPC   H8Y22939   0.915   1.984  14.296  0.8112 -0.8978  1.3578
  186DOPC   C3922940   0.741   1.912  14.405  0.4122  0.5384  0.5835
  186DOPC   H9X22941   0.685   1.887  14.314 -1.0517 -1.2895  1.8935
  186DOPC  C31022942   0.709   1.843  14.518 -0.0786  0.0225  0.4736
  186DOPC  H10X22943   0.640   1.759  14.507  0.4680 -0.3697 -0.0020
  186DOPC  C31122944   0.769   1.843  14.656 -0.4498 -0.1792 -0.8824
  186DOPC  H11X22945   0.867   1.894  14.647  0.0882 -1.3999 -2.4340
  186DOPC  H11Y22946   0.803   1.741  14.682  0.9568  0.5645  0.3402
  186DOPC  C31222947   0.683   1.911  14.756  0.0972 -0.6970  0.0802
  186DOPC  H12X22948   0.706   1.864  14.853 -1.2023 -0.6147  0.4373
  186DOPC  H12Y22949   0.578   1.891  14.725  0.0924 -1.4755  0.5711
  186DOPC  C31322950   0.690   2.065  14.771 -0.4073  0.4148 -0.0008
  186DOPC  H13X22951   0.793   2.103  14.792 -0.4022  1.1047 -1.2023
  186DOPC  H13Y22952   0.664   2.112  14.674  0.6739 -0.8916 -0.9539
  186DOPC  C31422953   0.587   2.122  14.877  0.0351 -0.2789 -0.3460
  186DOPC  H14X22954   0.486   2.082  14.851 -0.0417 -0.2483 -0.0936
  186DOPC  H14Y22955   0.621   2.085  14.976  1.4995 -0.8713 -1.0565
  186DOPC  C31522956   0.583   2.268  14.885 -0.5940 -0.3269  0.2628
  186DOPC  H15X22957   0.547   2.311  14.789 -0.2321  0.7410  0.5946
  186DOPC  H15Y22958   0.683   2.302  14.918 -0.5644 -0.2642  0.1103
  186DOPC  C31622959   0.480   2.343  14.972  0.5621 -0.1214  0.1254
  186DOPC  H16X22960   0.495   2.451  14.956  2.1569 -0.3061  0.2423
  186DOPC  H16Y22961   0.383   2.304  14.934  1.1937 -1.3239 -0.2875
  186DOPC  C31722962   0.472   2.308  15.115 -0.1342 -0.0555 -0.0799
  186DOPC  H17X22963   0.491   2.199  15.130 -0.4858 -0.1716 -0.4648
  186DOPC  H17Y22964   0.561   2.356  15.161  1.8318 -2.6844 -0.8685
  186DOPC  C31822965   0.346   2.370  15.187 -0.5827 -0.3177  0.5339
  186DOPC  H18X22966   0.360   2.480  15.192 -0.7966 -0.2552 -0.2087
  186DOPC  H18Y22967   0.253   2.352  15.128  0.0385 -0.3549 -0.4481
  186DOPC  H18Z22968   0.343   2.331  15.291  3.6392 -0.6809  0.6686
  187DOPC     N22969   7.668   0.667  12.931  0.4555 -0.3614 -0.4595
  187DOPC   C1222970   7.757   0.539  12.913 -0.3880  0.3627  0.2150
  187DOPC  H12A22971   7.831   0.530  12.991  1.6716  0.5327 -1.6341
  187DOPC  H12B22972   7.819   0.548  12.826 -0.8833  0.4399 -0.1378
  187DOPC   C1322973   7.639   0.672  13.073 -0.3203 -0.1460  0.6296
  187DOPC  H13A22974   7.578   0.758  13.096  0.1116 -0.0722  1.5542
  187DOPC  H13B22975   7.593   0.579  13.105  1.1847 -1.3960 -0.6503
  187DOPC  H13C22976   7.735   0.670  13.124  2.3398 -0.4661 -3.8820
  187DOPC   C1422977   7.543   0.651  12.848  0.9509 -0.3730  0.3897
  187DOPC  H14A22978   7.563   0.655  12.742 -2.5180  1.1509 -0.3393
  187DOPC  H14B22979   7.501   0.556  12.878 -1.1012  0.7797  1.3640
  187DOPC  H14C22980   7.478   0.734  12.871  1.2372 -0.5984  2.2149
  187DOPC   C1522981   7.745   0.789  12.894 -0.0296  0.5954 -0.3828
  187DOPC  H15A22982   7.792   0.766  12.800  1.5747 -1.7856  0.9107
  187DOPC  H15B22983   7.815   0.819  12.970 -0.6772  2.5565 -0.5071
  187DOPC  H15C22984   7.686   0.880  12.886  0.3316  0.7207 -1.8427
  187DOPC   C1122985   7.689   0.398  12.912  0.5651  0.8325  0.3656
  187DOPC  H11A22986   7.623   0.398  12.823  2.3101  1.9952 -0.9876
  187DOPC  H11B22987   7.764   0.319  12.892 -1.1606 -0.2914 -2.2191
  187DOPC     P22988   7.693   0.307  13.164 -0.1752  0.0372 -0.6736
  187DOPC   O1322989   7.740   0.415  13.255  0.0979 -0.2310 -0.4246
  187DOPC   O1422990   7.791   0.207  13.119  0.0191  0.0876  0.8656
  187DOPC   O1222991   7.625   0.375  13.039 -0.2560 -0.1262  0.3928
  187DOPC   O1122992   7.567   0.238  13.232  0.1028 -0.7328  0.9929
  187DOPC    C122993   7.450   0.313  13.242  0.3720  0.0584 -0.1562
  187DOPC    HA22994   7.364   0.265  13.189 -0.2452  1.0526 -0.0837
  187DOPC    HB22995   7.452   0.413  13.194 -0.9509 -0.0209 -0.4073
  187DOPC    C222996   7.405   0.318  13.392  0.1967  0.5204  0.0551
  187DOPC    HS22997   7.437   0.221  13.435  1.9445  0.7145 -0.7270
  187DOPC   O2122998   7.264   0.328  13.397  0.4010  0.0337 -0.5554
  187DOPC   C2122999   7.202   0.216  13.380 -0.0972 -0.6914  0.9855
  187DOPC   O2223000   7.257   0.108  13.352 -0.4749 -0.0805 -0.1650
  187DOPC   C2223001   7.048   0.244  13.373 -1.0445 -0.4337 -0.8746
  187DOPC   H2R23002   7.015   0.203  13.275  0.1491  1.1158 -1.9873
  187DOPC   H2S23003   7.042   0.355  13.365  0.2956  0.0803  3.2362
  187DOPC    C323004   7.475   0.435  13.467 -0.0448  0.8324  0.4033
  187DOPC    HX23005   7.425   0.523  13.423  1.6171  1.1474 -0.9643
  187DOPC    HY23006   7.582   0.437  13.439 -0.3611  1.1952 -0.8247
  187DOPC   O3123007   7.453   0.414  13.603  0.0818 -0.3538 -0.2908
  187DOPC   C3123008   7.371   0.499  13.666  0.1920 -0.1370  0.4790
  187DOPC   O3223009   7.325   0.602  13.618  0.8195  0.4873  0.1650
  187DOPC   C3223010   7.367   0.456  13.818  0.2231 -0.1790  1.1862
  187DOPC   H2X23011   7.375   0.345  13.823  0.9248 -0.1696  0.5367
  187DOPC   H2Y23012   7.464   0.490  13.859  1.1071  0.4209 -1.2437
  187DOPC   C2323013   6.962   0.189  13.490 -0.2820  0.3156  0.4818
  187DOPC   H3R23014   6.926   0.085  13.474 -3.1062  0.9808  1.7888
  187DOPC   H3S23015   6.869   0.251  13.492  0.0160  0.8649 -1.2100
  187DOPC   C2423016   7.019   0.207  13.631 -0.8583 -0.1671  0.0565
  187DOPC   H4R23017   7.063   0.306  13.653  1.5941 -1.2054  0.0740
  187DOPC   H4S23018   7.099   0.131  13.647 -0.1697  0.3642 -0.7885
  187DOPC   C2523019   6.908   0.167  13.734  1.0688 -0.2140  0.4040
  187DOPC   H5R23020   6.880   0.060  13.722  2.1818 -0.3265 -1.5648
  187DOPC   H5S23021   6.814   0.222  13.714 -0.6532 -2.6904  1.1949
  187DOPC   C2623022   6.961   0.189  13.874  0.4247  0.4486 -0.0314
  187DOPC   H6R23023   7.008   0.288  13.889  0.6671  0.3839 -0.3480
  187DOPC   H6S23024   7.039   0.114  13.899  0.5941  0.7676  0.3967
  187DOPC   C2723025   6.840   0.168  13.970 -0.1398  0.2119 -0.0805
  187DOPC   H7R23026   6.812   0.061  13.961 -2.7611  0.9702 -1.7597
  187DOPC   H7S23027   6.746   0.216  13.936  0.4930  0.9478 -0.8359
  187DOPC   C2823028   6.869   0.207  14.119 -0.5962  0.4029 -0.9013
  187DOPC   H8R23029   6.965   0.156  14.141 -1.5273 -1.1767 -0.3648
  187DOPC   H8S23030   6.792   0.168  14.189  1.8327 -0.4554  1.4551
  187DOPC   C2923031   6.872   0.353  14.135  0.3663 -0.4424 -0.0907
  187DOPC   H9R23032   6.895   0.413  14.046 -0.5306  0.5853  0.3402
  187DOPC  C21023033   6.833   0.418  14.247 -0.0084 -0.4749 -0.3147
  187DOPC  H10R23034   6.851   0.526  14.242 -0.2345 -0.4811 -1.6595
  187DOPC  C21123035   6.783   0.381  14.377 -0.7861  0.2987 -0.9014
  187DOPC  H11R23036   6.801   0.272  14.394  0.8849  0.3782 -1.9647
  187DOPC  H11S23037   6.676   0.408  14.388 -0.7247 -0.2446  2.0366
  187DOPC  C21223038   6.863   0.462  14.487  0.0272  0.2981  0.6511
  187DOPC  H12R23039   6.857   0.571  14.467 -0.0583  0.2027  0.1508
  187DOPC  H12S23040   6.971   0.438  14.477  0.1624  0.3733  1.7947
  187DOPC  C21323041   6.826   0.438  14.633  0.0079  0.1901 -0.3177
  187DOPC  H13R23042   6.848   0.331  14.657 -0.6392 -0.1434 -1.1749
  187DOPC  H13S23043   6.716   0.448  14.645  0.2043  0.3196  1.7807
  187DOPC  C21423044   6.893   0.537  14.733  0.9352  0.2541 -0.8154
  187DOPC  H14R23045   6.858   0.638  14.702 -0.1726  0.5801  1.3219
  187DOPC  H14S23046   7.003   0.522  14.722  1.0528  0.4451  0.0556
  187DOPC  C21523047   6.860   0.516  14.886  0.2570 -0.2763  0.0113
  187DOPC  H15R23048   6.750   0.528  14.890  0.2254 -0.6411  0.2964
  187DOPC  H15S23049   6.916   0.596  14.939  0.1316 -0.8687  1.0629
  187DOPC  C21623050   6.889   0.378  14.939  0.3101  0.5330  0.1332
  187DOPC  H16R23051   6.987   0.345  14.900  1.2208  0.2810  2.4836
  187DOPC  H16S23052   6.808   0.304  14.928  0.0081  1.0677 -1.4819
  187DOPC  C21723053   6.893   0.381  15.094  0.3638  0.2210 -0.8183
  187DOPC  H17R23054   6.799   0.434  15.119  1.8553  2.0672  1.2046
  187DOPC  H17S23055   6.974   0.448  15.129 -1.3597  2.1813 -0.4311
  187DOPC  C21823056   6.892   0.248  15.171 -0.9253 -0.0538  0.3750
  187DOPC  H18R23057   6.811   0.189  15.122  0.2811  0.4718 -2.4595
  187DOPC  H18S23058   6.877   0.264  15.280 -0.0120  4.0684  0.0465
  187DOPC  H18T23059   6.991   0.198  15.163 -0.8426  0.4196 -3.8121
  187DOPC   C3323060   7.251   0.519  13.899 -0.3289 -0.1784 -0.4002
  187DOPC   H3X23061   7.156   0.473  13.867  0.7936 -2.8555 -0.1729
  187DOPC   H3Y23062   7.241   0.626  13.872 -2.1497  0.0742  1.1163
  187DOPC   C3423063   7.285   0.496  14.048 -0.1821 -0.4835 -0.1239
  187DOPC   H4X23064   7.382   0.547  14.067 -1.7429  2.7253 -0.0564
  187DOPC   H4Y23065   7.284   0.390  14.082 -1.2345 -0.5996 -0.4837
  187DOPC   C3523066   7.191   0.568  14.141 -0.6297  0.0747 -1.0134
  187DOPC   H5X23067   7.085   0.536  14.129 -0.0647 -1.3679 -2.5777
  187DOPC   H5Y23068   7.205   0.673  14.107  0.3916  0.0658 -0.6484
  187DOPC   C3623069   7.235   0.568  14.293 -0.0566  0.3545 -0.3840
  187DOPC   H6X23070   7.214   0.472  14.344  2.6993  0.9403  2.1329
  187DOPC   H6Y23071   7.345   0.585  14.294  0.0947 -0.3406 -2.0919
  187DOPC   C3723072   7.159   0.686  14.354 -0.4210 -0.6859 -1.4440
  187DOPC   H7X23073   7.193   0.781  14.307  1.7647 -0.4347  0.4514
  187DOPC   H7Y23074   7.050   0.668  14.346 -1.4247  2.3979  2.3834
  187DOPC   C3823075   7.199   0.699  14.507  0.1835 -0.1287 -0.1907
  187DOPC   H8X23076   7.301   0.745  14.505 -0.5204  1.5114 -2.1555
  187DOPC   H8Y23077   7.198   0.606  14.567 -1.1304 -0.0062 -0.0040
  187DOPC   C3923078   7.092   0.785  14.581  0.7420 -0.1653 -0.5212
  187DOPC   H9X23079   6.997   0.801  14.527  0.7778 -0.1164 -0.5710
  187DOPC  C31023080   7.110   0.848  14.701 -0.6892 -0.8013 -0.0405
  187DOPC  H10X23081   7.026   0.907  14.739  0.1378 -0.8698  2.0247
  187DOPC  C31123082   7.237   0.850  14.786 -0.3707  0.0194 -0.2156
  187DOPC  H11X23083   7.279   0.951  14.809  1.2602 -0.9123  1.1231
  187DOPC  H11Y23084   7.325   0.809  14.731  0.1212 -2.1850  2.0335
  187DOPC  C31223085   7.218   0.784  14.928  0.1351 -0.0205  0.1424
  187DOPC  H12X23086   7.192   0.679  14.903  1.7374 -0.6152  0.8117
  187DOPC  H12Y23087   7.132   0.836  14.974  1.2864  4.5517 -2.2689
  187DOPC  C31323088   7.338   0.790  15.024  0.4701 -0.1496  0.2993
  187DOPC  H13X23089   7.360   0.897  15.045 -0.3324  0.4324 -1.5769
  187DOPC  H13Y23090   7.319   0.740  15.121 -1.8576  0.8619  0.4230
  187DOPC  C31423091   7.476   0.743  14.969  0.1892 -0.2018 -0.3082
  187DOPC  H14X23092   7.450   0.654  14.907  0.1500 -1.4964  1.4881
  187DOPC  H14Y23093   7.503   0.827  14.902 -1.6250  1.8065  1.3558
  187DOPC  C31523094   7.571   0.694  15.079 -0.2463 -0.2605  0.2219
  187DOPC  H15X23095   7.668   0.667  15.032 -0.0136  0.5275  0.2391
  187DOPC  H15Y23096   7.541   0.596  15.124  1.5050 -0.8573  0.1980
  187DOPC  C31623097   7.599   0.801  15.191  0.5578  0.0911  0.2538
  187DOPC  H16X23098   7.496   0.830  15.221 -0.2716 -1.4408 -0.9307
  187DOPC  H16Y23099   7.640   0.751  15.282 -0.8932 -0.1951  0.7792
  187DOPC  C31723100   7.672   0.929  15.147 -0.4447 -0.2036  0.1136
  187DOPC  H17X23101   7.768   0.889  15.108  0.2571  1.7108 -0.2222
  187DOPC  H17Y23102   7.616   0.981  15.066  1.8724 -0.5165 -1.7918
  187DOPC  C31823103   7.689   1.027  15.256 -0.6041 -0.6595 -0.2276
  187DOPC  H18X23104   7.734   1.118  15.212  4.7520 -2.6261  0.4293
  187DOPC  H18Y23105   7.592   1.040  15.309  0.2630  0.0786  1.2531
  187DOPC  H18Z23106   7.764   0.988  15.329 -1.8186 -0.4440  1.1986
  188DOPC     N23107   2.463   0.517  12.897  0.1318 -0.4438 -0.0142
  188DOPC   C1223108   2.377   0.533  13.022 -0.1836 -0.4529  0.1097
  188DOPC  H12A23109   2.278   0.490  13.011  0.0156 -0.5231 -1.9126
  188DOPC  H12B23110   2.362   0.638  13.041  0.8803 -0.3544  0.4909
  188DOPC   C1323111   2.606   0.527  12.925 -0.8131  0.2084  0.1624
  188DOPC  H13A23112   2.657   0.546  12.832  0.9193  3.0358  1.5739
  188DOPC  H13B23113   2.629   0.613  12.985  0.9687 -0.3367  0.3165
  188DOPC  H13C23114   2.650   0.442  12.975 -1.6507 -1.0761 -1.1932
  188DOPC   C1423115   2.420   0.612  12.786 -0.0809 -0.0921  0.2106
  188DOPC  H14A23116   2.317   0.592  12.760  0.4280 -1.1062 -1.1423
  188DOPC  H14B23117   2.442   0.716  12.806 -0.9829  0.3550 -1.0152
  188DOPC  H14C23118   2.477   0.594  12.696  0.2881  0.3048  0.3638
  188DOPC   C1523119   2.450   0.384  12.829  0.5928 -0.1984  0.4030
  188DOPC  H15A23120   2.509   0.379  12.739  0.1448 -1.9665  0.1652
  188DOPC  H15B23121   2.347   0.371  12.798  0.1304  1.4785  1.1398
  188DOPC  H15C23122   2.471   0.303  12.896  1.0322 -2.1428 -1.9328
  188DOPC   C1123123   2.434   0.469  13.147 -0.4024 -0.3074 -0.6990
  188DOPC  H11A23124   2.532   0.516  13.168 -0.6695 -0.2043  0.3967
  188DOPC  H11B23125   2.374   0.493  13.237  0.3856  0.2852 -0.3205
  188DOPC     P23126   2.335   0.221  13.164  0.3291 -0.0925  0.0669
  188DOPC   O1323127   2.383   0.083  13.135  0.8339 -0.4922  0.3770
  188DOPC   O1423128   2.210   0.261  13.097 -0.8967 -0.4228  0.7978
  188DOPC   O1223129   2.457   0.325  13.141  0.1829  0.4903  0.0946
  188DOPC   O1123130   2.303   0.233  13.318  0.3967  0.0012  1.0259
  188DOPC    C123131   2.410   0.259  13.409  0.4888  0.7148 -0.0009
  188DOPC    HA23132   2.371   0.300  13.504 -1.0642  1.5632 -0.9575
  188DOPC    HB23133   2.480   0.339  13.378 -0.6876  0.5374 -3.5905
  188DOPC    C223134   2.481   0.127  13.457 -0.0576  0.1670  0.3036
  188DOPC    HS23135   2.527   0.081  13.367  1.5883  0.2145  1.0850
  188DOPC   O2123136   2.389   0.036  13.521  1.0665 -0.8903  0.2973
  188DOPC   C2123137   2.423  -0.092  13.545  0.1695  0.0417 -0.1549
  188DOPC   O2223138   2.536  -0.133  13.539 -0.0130 -0.5735  0.3359
  188DOPC   C2223139   2.300  -0.187  13.575  0.7662  0.1921  1.3418
  188DOPC   H2R23140   2.310  -0.276  13.508 -0.8703  1.8745 -1.3316
  188DOPC   H2S23141   2.207  -0.133  13.548  0.8249  0.3306  1.4204
  188DOPC    C323142   2.597   0.169  13.553 -0.2703 -1.1939  0.0827
  188DOPC    HX23143   2.674   0.216  13.488 -0.5746 -1.2525 -0.3201
  188DOPC    HY23144   2.652   0.084  13.597  0.5452 -0.8153 -0.1810
  188DOPC   O3123145   2.546   0.266  13.649  0.7484  0.1060 -0.0251
  188DOPC   C3123146   2.546   0.230  13.777 -0.5042  0.1300 -0.0469
  188DOPC   O3223147   2.590   0.130  13.823 -0.0338  0.7636  0.0858
  188DOPC   C3223148   2.483   0.344  13.868 -0.1430 -0.1500 -0.5215
  188DOPC   H2X23149   2.560   0.368  13.944 -0.3138  1.0028 -0.6978
  188DOPC   H2Y23150   2.470   0.432  13.802  0.8433 -0.2475 -0.8714
  188DOPC   C2323151   2.307  -0.229  13.723 -0.0955  0.1270 -0.1160
  188DOPC   H3R23152   2.404  -0.273  13.753  0.2139  1.5322  1.0791
  188DOPC   H3S23153   2.234  -0.312  13.734  0.4840 -0.3334  0.2888
  188DOPC   C2423154   2.262  -0.107  13.808 -0.1038 -0.0029  0.0022
  188DOPC   H4R23155   2.160  -0.076  13.778  0.6762  0.9220 -1.8122
  188DOPC   H4S23156   2.332  -0.026  13.778  0.9430  0.1297  2.4948
  188DOPC   C2523157   2.263  -0.128  13.969  0.0843 -0.1661 -0.0415
  188DOPC   H5R23158   2.199  -0.218  13.982 -0.7033  0.4950  0.7130
  188DOPC   H5S23159   2.215  -0.047  14.028 -1.8956 -1.0220 -0.3953
  188DOPC   C2623160   2.406  -0.169  14.022  0.1740  0.3829 -0.4700
  188DOPC   H6R23161   2.467  -0.077  14.011 -0.1177  0.5009 -1.1029
  188DOPC   H6S23162   2.453  -0.243  13.954 -1.9613  0.5578 -2.2434
  188DOPC   C2723163   2.411  -0.226  14.166 -1.3549  0.1780 -0.4614
  188DOPC   H7R23164   2.357  -0.323  14.171  1.6709 -1.5606  0.7470
  188DOPC   H7S23165   2.363  -0.146  14.227  1.7743  2.2372 -0.4988
  188DOPC   C2823166   2.551  -0.239  14.222 -0.2572  0.3607  0.1571
  188DOPC   H8R23167   2.613  -0.284  14.142 -0.9601 -0.2639 -0.0411
  188DOPC   H8S23168   2.568  -0.317  14.299  0.1896  1.2679  0.9959
  188DOPC   C2923169   2.615  -0.114  14.266  0.0178 -0.3337 -0.6112
  188DOPC   H9R23170   2.544  -0.042  14.309 -1.6055 -1.4119 -1.3895
  188DOPC  C21023171   2.745  -0.091  14.265  0.2734  0.3508  0.5114
  188DOPC  H10R23172   2.779   0.011  14.285  1.0218  0.4771 -1.2386
  188DOPC  C21123173   2.862  -0.185  14.225  0.2098 -0.0894  0.3993
  188DOPC  H11R23174   2.821  -0.271  14.169 -1.9422  0.3554  1.1638
  188DOPC  H11S23175   2.914  -0.238  14.307  0.0847 -2.9833 -1.2753
  188DOPC  C21223176   2.977  -0.118  14.144  0.2396  0.3622 -0.1179
  188DOPC  H12R23177   2.945  -0.072  14.048  3.4529  0.2322 -1.3776
  188DOPC  H12S23178   3.049  -0.197  14.113  0.8009  0.8974 -0.2056
  188DOPC  C21323179   3.055  -0.021  14.230  0.2913  0.4827  0.0027
  188DOPC  H13R23180   3.131  -0.064  14.299  2.5488  1.5530 -1.6713
  188DOPC  H13S23181   2.988   0.044  14.289 -1.4068  0.2673 -1.6075
  188DOPC  C21423182   3.142   0.061  14.136 -0.3170 -0.8548 -0.3949
  188DOPC  H14R23183   3.081   0.117  14.062 -0.1706 -1.2097 -0.7853
  188DOPC  H14S23184   3.204  -0.007  14.075  0.8851  1.1206 -1.5001
  188DOPC  C21523185   3.236   0.162  14.206  0.1057  0.1528  0.6275
  188DOPC  H15R23186   3.316   0.098  14.248 -0.2993 -0.2852  0.7413
  188DOPC  H15S23187   3.186   0.200  14.298 -2.2546 -0.5239 -0.3069
  188DOPC  C21623188   3.291   0.276  14.111  0.6108  0.3523  0.0321
  188DOPC  H16R23189   3.200   0.319  14.064  0.7322  1.3081  0.6442
  188DOPC  H16S23190   3.363   0.249  14.030  0.9811 -0.2201  0.5413
  188DOPC  C21723191   3.358   0.384  14.198 -0.3875 -0.0867 -0.1944
  188DOPC  H17R23192   3.289   0.425  14.274  0.9730 -0.3181  1.2193
  188DOPC  H17S23193   3.390   0.460  14.122  0.2012 -1.0894 -0.9816
  188DOPC  C21823194   3.476   0.333  14.271 -0.5665 -0.3750  0.4305
  188DOPC  H18R23195   3.441   0.264  14.351 -1.4161 -0.4596  0.0031
  188DOPC  H18S23196   3.526   0.415  14.326  1.9439 -0.8109 -1.0598
  188DOPC  H18T23197   3.541   0.279  14.199 -0.8268 -0.7188  0.4476
  188DOPC   C3323198   2.345   0.293  13.915  0.4545 -0.0319  0.7515
  188DOPC   H3X23199   2.369   0.203  13.977 -1.1149 -0.0874  1.3320
  188DOPC   H3Y23200   2.284   0.271  13.825  1.2024 -1.0412  0.4768
  188DOPC   C3423201   2.272   0.397  13.999 -0.3359  0.2731 -0.7026
  188DOPC   H4X23202   2.230   0.474  13.930 -1.4520 -0.9578 -1.4539
  188DOPC   H4Y23203   2.339   0.461  14.060  2.1782 -0.8174 -2.1368
  188DOPC   C3523204   2.151   0.349  14.078  0.4740  0.5681 -0.0036
  188DOPC   H5X23205   2.111   0.283  13.998  2.4903 -2.3926  1.2593
  188DOPC   H5Y23206   2.088   0.434  14.113  1.6688  0.8714  1.4729
  188DOPC   C3623207   2.182   0.262  14.207 -0.0547  0.2462  0.9445
  188DOPC   H6X23208   2.219   0.165  14.168 -1.1146  0.2820 -0.2125
  188DOPC   H6Y23209   2.262   0.305  14.271  1.3215 -0.0104 -0.5356
  188DOPC   C3723210   2.049   0.236  14.282 -1.1359 -0.5393  0.7603
  188DOPC   H7X23211   2.018   0.337  14.317  0.0571  0.2236 -0.2982
  188DOPC   H7Y23212   1.979   0.211  14.200 -1.5642  1.7765  0.3536
  188DOPC   C3823213   2.052   0.135  14.396 -0.3609 -0.3682 -0.0476
  188DOPC   H8X23214   1.951   0.146  14.442 -0.8468 -0.7966 -0.9807
  188DOPC   H8Y23215   2.129   0.170  14.467 -0.0036  0.1252 -0.6672
  188DOPC   C3923216   2.063  -0.013  14.363  0.3618  0.2758 -0.5962
  188DOPC   H9X23217   2.155  -0.059  14.401  0.0982  0.9737  0.9367
  188DOPC  C31023218   1.964  -0.095  14.316 -0.5583  0.4191 -0.0266
  188DOPC  H10X23219   1.988  -0.200  14.294 -3.0664 -0.2099 -0.0265
  188DOPC  C31123220   1.819  -0.057  14.283  0.1587 -0.2325  0.7402
  188DOPC  H11X23221   1.816   0.007  14.193  2.4737 -0.2171  0.5944
  188DOPC  H11Y23222   1.770  -0.000  14.365  0.7541  1.4181 -0.0092
  188DOPC  C31223223   1.734  -0.189  14.255 -0.1820 -0.3053 -0.2950
  188DOPC  H12X23224   1.782  -0.231  14.164  0.9696 -1.0714  0.6532
  188DOPC  H12Y23225   1.627  -0.169  14.228 -0.4100 -0.6443  0.3441
  188DOPC  C31323226   1.733  -0.305  14.362 -0.1811  0.7227 -0.0137
  188DOPC  H13X23227   1.820  -0.295  14.431  0.4162 -0.4466 -0.5818
  188DOPC  H13Y23228   1.636  -0.315  14.415 -0.7816  0.2842 -1.1597
  188DOPC  C31423229   1.756  -0.443  14.303  0.0563  0.4491 -0.2006
  188DOPC  H14X23230   1.729  -0.506  14.391  0.0006 -0.3387 -0.7757
  188DOPC  H14Y23231   1.676  -0.446  14.226  0.2623  0.3427 -0.4108
  188DOPC  C31523232   1.898  -0.467  14.248 -1.0204 -0.0160  0.5580
  188DOPC  H15X23233   1.978  -0.459  14.324 -1.7443  0.7903  1.2507
  188DOPC  H15Y23234   1.921  -0.387  14.174 -0.4578 -0.7348 -0.0635
  188DOPC  C31623235   1.927  -0.606  14.194  0.3951 -0.0364  0.1073
  188DOPC  H16X23236   1.947  -0.673  14.281 -0.7977  2.0194  2.0636
  188DOPC  H16Y23237   1.831  -0.640  14.151 -1.1876  2.3584  1.5782
  188DOPC  C31723238   2.041  -0.612  14.087  0.0415 -0.2465  0.5253
  188DOPC  H17X23239   2.038  -0.716  14.047  0.6536 -0.6097  1.3940
  188DOPC  H17Y23240   2.019  -0.543  14.003  3.3495  0.0375 -0.2425
  188DOPC  C31823241   2.187  -0.600  14.134  0.3931  0.3078 -0.0928
  188DOPC  H18X23242   2.262  -0.601  14.052  1.6994 -0.3800  1.0719
  188DOPC  H18Y23243   2.201  -0.505  14.190  0.1977 -1.2339  2.7577
  188DOPC  H18Z23244   2.210  -0.678  14.209  0.1231  2.4175  2.3131
  189DOPC     N23245   4.638   7.201  13.198 -0.3204 -0.6812 -0.6521
  189DOPC   C1223246   4.658   7.055  13.253  0.6029  0.0749  0.0549
  189DOPC  H12A23247   4.633   6.976  13.183  1.5230 -0.9001  0.7894
  189DOPC  H12B23248   4.591   7.033  13.335  3.2398  1.1703  2.6567
  189DOPC   C1323249   4.667   7.294  13.315 -0.1889  0.2222  0.1971
  189DOPC  H13A23250   4.670   7.397  13.285  0.1794  0.1133 -0.1459
  189DOPC  H13B23251   4.582   7.296  13.382  0.5157  4.2146  1.2345
  189DOPC  H13C23252   4.761   7.258  13.354 -1.5193 -3.8675  0.1003
  189DOPC   C1423253   4.494   7.212  13.161  0.0463 -0.0390 -0.1159
  189DOPC  H14A23254   4.464   7.129  13.098 -1.2854  1.1661 -1.1368
  189DOPC  H14B23255   4.419   7.216  13.239  2.1126  0.4547  1.9287
  189DOPC  H14C23256   4.474   7.296  13.097 -0.6852  1.5836  2.1144
  189DOPC   C1523257   4.717   7.230  13.081 -0.4698  0.2219  0.1468
  189DOPC  H15A23258   4.822   7.207  13.084 -0.8428 -1.5727  0.2287
  189DOPC  H15B23259   4.710   7.336  13.059  0.9914  0.2758 -0.1340
  189DOPC  H15C23260   4.682   7.170  12.998  0.2038  1.3332 -0.9836
  189DOPC   C1123261   4.793   7.007  13.311 -0.7188  0.2448 -0.6003
  189DOPC  H11A23262   4.827   7.078  13.390 -3.5534 -0.3102  1.2717
  189DOPC  H11B23263   4.774   6.904  13.346  2.8144 -0.8845 -1.5992
  189DOPC     P23264   4.917   6.894  13.110 -0.1445  0.2285 -0.3673
  189DOPC   O1323265   5.034   6.928  13.015  0.1303  0.4044  0.2545
  189DOPC   O1423266   4.792   6.833  13.054  0.2508  0.5317 -0.0654
  189DOPC   O1223267   4.888   7.013  13.208  0.8754  0.5470  0.4183
  189DOPC   O1123268   4.971   6.786  13.207 -0.6370 -0.2204 -0.5718
  189DOPC    C123269   5.096   6.809  13.284  0.0800 -0.3615 -0.2888
  189DOPC    HA23270   5.152   6.902  13.260  0.4464 -0.9709 -1.9484
  189DOPC    HB23271   5.167   6.731  13.248  2.7541  1.5352  0.5288
  189DOPC    C223272   5.068   6.807  13.442 -0.0184  0.0413 -0.5010
  189DOPC    HS23273   4.989   6.884  13.459 -0.3427  0.0124 -1.7537
  189DOPC   O2123274   5.191   6.832  13.515 -0.2201 -0.2253  0.0709
  189DOPC   C2123275   5.190   6.932  13.594 -0.2902 -0.4981  0.2583
  189DOPC   O2223276   5.102   7.009  13.609 -0.6870 -0.5118  0.2198
  189DOPC   C2223277   5.333   6.931  13.647  0.8454  0.0900 -0.5634
  189DOPC   H2R23278   5.407   6.952  13.567  2.0587  1.6489  0.9086
  189DOPC   H2S23279   5.346   6.829  13.689  0.5726 -0.0004 -0.6938
  189DOPC    C323280   5.016   6.674  13.479 -0.2005  0.6794 -0.8448
  189DOPC    HX23281   5.096   6.599  13.459 -0.7620 -0.6616  1.4860
  189DOPC    HY23282   4.930   6.640  13.418 -0.0875 -0.4025 -0.4351
  189DOPC   O3123283   4.981   6.659  13.618  0.1740 -0.1971  0.0308
  189DOPC   C3123284   5.067   6.599  13.699 -0.0340  0.4661  0.3034
  189DOPC   O3223285   5.173   6.553  13.662  0.4043  0.0015  0.0503
  189DOPC   C3223286   5.022   6.608  13.842  0.0055 -0.2243 -0.4097
  189DOPC   H2X23287   4.991   6.709  13.876  0.5808 -0.5424  1.1219
  189DOPC   H2Y23288   4.932   6.542  13.846  0.5245 -0.8919  0.9694
  189DOPC   C2323289   5.356   7.023  13.762  0.7542  0.5010 -0.0916
  189DOPC   H3R23290   5.355   7.130  13.730  0.7883  1.3166  2.4408
  189DOPC   H3S23291   5.456   7.004  13.806 -0.1006 -0.4219  1.5528
  189DOPC   C2423292   5.258   7.003  13.873 -0.5969  0.3836  0.2243
  189DOPC   H4R23293   5.251   6.892  13.883 -0.3854  0.3789  0.3273
  189DOPC   H4S23294   5.156   7.034  13.844 -0.3221 -1.1991 -2.8261
  189DOPC   C2523295   5.305   7.057  14.011  0.2005  0.5456  0.6350
  189DOPC   H5R23296   5.351   7.158  14.004  0.6501  0.4013  1.4026
  189DOPC   H5S23297   5.389   6.992  14.042  1.7445  1.3613 -1.5952
  189DOPC   C2623298   5.193   7.089  14.113  0.4674  0.4278  0.1653
  189DOPC   H6R23299   5.108   7.020  14.097  0.9181  0.2718 -1.8646
  189DOPC   H6S23300   5.155   7.188  14.078 -1.1828 -0.4592 -0.6483
  189DOPC   C2723301   5.245   7.084  14.256  0.2706  0.5925 -0.8301
  189DOPC   H7R23302   5.321   7.162  14.277  1.0543 -0.4125  0.2039
  189DOPC   H7S23303   5.286   6.981  14.266 -0.4001  0.1246 -2.5973
  189DOPC   C2823304   5.134   7.093  14.362  0.0839  0.3276 -0.7211
  189DOPC   H8R23305   5.086   7.193  14.353  0.1039  0.3150 -0.9660
  189DOPC   H8S23306   5.175   7.088  14.465 -0.3804 -3.3529 -0.5773
  189DOPC   C2923307   5.027   6.994  14.342 -0.1553  0.5089  0.0916
  189DOPC   H9R23308   5.063   6.891  14.328  0.0206 -0.1058  3.9547
  189DOPC  C21023309   4.890   7.016  14.338 -0.5104 -0.1918 -0.0159
  189DOPC  H10R23310   4.829   6.924  14.339 -0.1197 -0.5007 -1.4765
  189DOPC  C21123311   4.820   7.144  14.353  0.5927 -0.3457  0.1241
  189DOPC  H11R23312   4.802   7.197  14.257  0.5403  2.6950  1.6998
  189DOPC  H11S23313   4.888   7.212  14.408  0.4338 -1.2835  1.5283
  189DOPC  C21223314   4.700   7.134  14.448  1.0426 -0.3550 -0.4865
  189DOPC  H12R23315   4.621   7.059  14.424 -0.3173  0.9994 -0.4291
  189DOPC  H12S23316   4.648   7.232  14.437  2.3614  0.7158  2.0923
  189DOPC  C21323317   4.728   7.117  14.600  0.0267 -0.8598 -0.4155
  189DOPC  H13R23318   4.789   7.028  14.624 -2.6530 -1.8789  3.9697
  189DOPC  H13S23319   4.627   7.107  14.647  0.5541  2.5380  1.8055
  189DOPC  C21423320   4.791   7.243  14.668 -0.2488 -0.3646  0.4150
  189DOPC  H14R23321   4.898   7.237  14.641  0.0293  0.6529  1.2790
  189DOPC  H14S23322   4.796   7.231  14.778  0.8422  1.2850  0.5771
  189DOPC  C21523323   4.744   7.384  14.638  0.5479 -0.2984 -0.3989
  189DOPC  H15R23324   4.640   7.404  14.671  0.5499  0.3340 -0.7502
  189DOPC  H15S23325   4.758   7.400  14.529 -1.2822 -1.5675 -0.8572
  189DOPC  C21623326   4.842   7.487  14.708  0.6438 -0.1769  0.7678
  189DOPC  H16R23327   4.949   7.459  14.695  0.6292  0.6454 -1.5219
  189DOPC  H16S23328   4.830   7.493  14.818  2.1454 -0.2400  0.9550
  189DOPC  C21723329   4.825   7.627  14.641 -0.1129  0.4134 -0.0675
  189DOPC  H17R23330   4.717   7.638  14.617 -0.4091  0.6505  1.3192
  189DOPC  H17S23331   4.869   7.638  14.540  1.0944  2.1493  0.6018
  189DOPC  C21823332   4.869   7.751  14.728  0.1870 -0.0612  0.1198
  189DOPC  H18R23333   4.976   7.741  14.756 -0.1467 -0.2821  1.4187
  189DOPC  H18S23334   4.802   7.752  14.817  0.4041  1.0759  0.2800
  189DOPC  H18T23335   4.860   7.847  14.673  0.0991  0.1272  0.4577
  189DOPC   C3323336   5.140   6.552  13.941  0.2004  0.4215 -0.4660
  189DOPC   H3X23337   5.198   6.641  13.973  0.8196  0.3508 -1.3768
  189DOPC   H3Y23338   5.207   6.477  13.895 -1.9077 -0.0996 -2.9393
  189DOPC   C3423339   5.071   6.499  14.063 -0.3149  0.1191 -0.5234
  189DOPC   H4X23340   5.028   6.397  14.051 -0.8341  0.3847 -0.9915
  189DOPC   H4Y23341   4.990   6.570  14.092 -0.9580  0.3059 -2.6211
  189DOPC   C3523342   5.153   6.493  14.196  0.5002 -0.5408 -0.8396
  189DOPC   H5X23343   5.167   6.600  14.225 -0.1037 -1.0946  1.7583
  189DOPC   H5Y23344   5.255   6.453  14.179  0.0844 -1.3015 -1.6294
  189DOPC   C3623345   5.082   6.404  14.297 -0.7322  0.5182 -0.4058
  189DOPC   H6X23346   5.065   6.300  14.261 -0.6740  0.9156 -1.6231
  189DOPC   H6Y23347   5.151   6.378  14.379 -1.4911  0.8564  0.3589
  189DOPC   C3723348   4.954   6.465  14.353  0.0203  0.4659 -0.2548
  189DOPC   H7X23349   4.983   6.559  14.405 -0.7333 -0.1956  1.4736
  189DOPC   H7Y23350   4.877   6.463  14.273 -0.0386  0.6067 -0.2025
  189DOPC   C3823351   4.875   6.385  14.467 -0.0838 -0.4812  0.3659
  189DOPC   H8X23352   4.832   6.296  14.416 -0.2041 -0.4978  0.4983
  189DOPC   H8Y23353   4.777   6.431  14.493 -0.3125 -1.0574  0.5383
  189DOPC   C3923354   4.964   6.327  14.578 -0.0489 -0.5531  0.4507
  189DOPC   H9X23355   5.068   6.300  14.552  0.2071  0.4168  0.4165
  189DOPC  C31023356   4.928   6.306  14.708  0.5539  0.0624  0.3063
  189DOPC  H10X23357   4.994   6.245  14.771  1.9282  1.3925  0.1939
  189DOPC  C31123358   4.792   6.340  14.761  0.0135  0.6890  0.1757
  189DOPC  H11X23359   4.750   6.261  14.827 -0.1467 -0.1113 -0.8558
  189DOPC  H11Y23360   4.722   6.353  14.675 -2.0279  0.5418  1.7262
  189DOPC  C31223361   4.781   6.489  14.817 -0.2885  0.7206 -0.4965
  189DOPC  H12X23362   4.676   6.525  14.815  0.6313  3.5880 -1.6540
  189DOPC  H12Y23363   4.836   6.556  14.748  0.6912  2.3914  1.7747
  189DOPC  C31323364   4.834   6.497  14.957 -0.0385  0.3719 -0.2672
  189DOPC  H13X23365   4.792   6.414  15.017  2.4955 -0.8203 -0.0112
  189DOPC  H13Y23366   4.944   6.483  14.960 -0.0797 -1.4332 -3.1864
  189DOPC  C31423367   4.801   6.628  15.022 -0.1682 -0.4756 -0.4131
  189DOPC  H14X23368   4.851   6.709  14.965 -1.5706  0.5151 -0.3053
  189DOPC  H14Y23369   4.692   6.652  15.020  0.1363  1.1398  0.4579
  189DOPC  C31523370   4.860   6.645  15.164 -0.4679  0.1065  0.0859
  189DOPC  H15X23371   4.951   6.708  15.157  1.0297 -2.0543 -1.5459
  189DOPC  H15Y23372   4.903   6.551  15.205  1.2918  1.7223  2.1748
  189DOPC  C31623373   4.759   6.703  15.262 -0.0025 -1.4315  0.1279
  189DOPC  H16X23374   4.740   6.811  15.245  2.5244 -1.1266 -1.1804
  189DOPC  H16Y23375   4.665   6.646  15.247  0.6609 -2.4922 -0.0837
  189DOPC  C31723376   4.803   6.687  15.412 -0.2693  0.2135  0.1830
  189DOPC  H17X23377   4.829   6.582  15.438 -3.7662 -0.7534  0.3323
  189DOPC  H17Y23378   4.899   6.743  15.415  0.4483 -0.7411 -2.3592
  189DOPC  C31823379   4.697   6.729  15.514  0.0684  0.5091  0.3480
  189DOPC  H18X23380   4.607   6.670  15.487  0.0407  2.0400 -3.4733
  189DOPC  H18Y23381   4.718   6.705  15.621 -1.3466  0.0395  0.5437
  189DOPC  H18Z23382   4.680   6.838  15.501  1.0781  0.5327 -0.9321
  190DOPC     N23383   4.351   0.114  12.605  0.1106 -0.1823  0.6231
  190DOPC   C1223384   4.253   0.013  12.662  0.2675 -0.8543 -0.0021
  190DOPC  H12A23385   4.299  -0.085  12.656  2.2222 -0.2032  2.5752
  190DOPC  H12B23386   4.163   0.015  12.603 -0.1943  2.8394  0.5865
  190DOPC   C1323387   4.412   0.063  12.478 -0.2356  0.2562  0.0242
  190DOPC  H13A23388   4.495   0.122  12.442  0.2437 -0.2638  0.2502
  190DOPC  H13B23389   4.443  -0.041  12.484  1.1772  0.6259 -0.5869
  190DOPC  H13C23390   4.348   0.063  12.391 -0.5126 -2.1518  0.1451
  190DOPC   C1423391   4.467   0.140  12.701 -0.3181  0.2574  0.7189
  190DOPC  H14A23392   4.515   0.046  12.723  0.6968  0.3805 -0.7880
  190DOPC  H14B23393   4.547   0.205  12.669  0.7191 -1.1786  0.3143
  190DOPC  H14C23394   4.422   0.178  12.791 -1.7757 -0.0993  0.1669
  190DOPC   C1523395   4.277   0.234  12.568 -0.1355 -0.9819 -0.1966
  190DOPC  H15A23396   4.212   0.206  12.487  0.1396  1.2492 -1.2625
  190DOPC  H15B23397   4.335   0.309  12.515 -2.2666  0.7931 -0.1126
  190DOPC  H15C23398   4.215   0.278  12.644 -1.2390  0.9059 -2.0924
  190DOPC   C1123399   4.200   0.033  12.813 -0.0597  0.5257 -0.1696
  190DOPC  H11A23400   4.162   0.137  12.803  0.9919  1.0995  1.2951
  190DOPC  H11B23401   4.121  -0.036  12.848  0.6514  0.6059  1.7176
  190DOPC     P23402   4.378  -0.099  12.960  0.4379 -0.2221 -0.3982
  190DOPC   O1323403   4.514  -0.062  12.998  0.0139 -0.0433 -0.1438
  190DOPC   O1423404   4.369  -0.207  12.859  0.2304 -0.3653 -0.1780
  190DOPC   O1223405   4.309   0.029  12.907  0.0306  0.0942  0.2167
  190DOPC   O1123406   4.287  -0.147  13.081  0.3141  0.2736 -0.0221
  190DOPC    C123407   4.198  -0.055  13.143 -0.6065 -0.3684  0.0093
  190DOPC    HA23408   4.127  -0.017  13.067  0.5210  0.7423 -0.5339
  190DOPC    HB23409   4.261   0.015  13.202 -1.5456 -0.5685  1.2898
  190DOPC    C223410   4.118  -0.136  13.244 -0.2172 -0.1859  0.0637
  190DOPC    HS23411   4.075  -0.223  13.190  1.7189 -0.7434 -0.6836
  190DOPC   O2123412   4.007  -0.056  13.297 -0.5285  0.5250  0.3877
  190DOPC   C2123413   3.929  -0.104  13.396  0.3042 -0.3960  0.2248
  190DOPC   O2223414   3.934  -0.222  13.433 -0.2585 -0.4493  0.3380
  190DOPC   C2223415   3.847   0.010  13.464 -0.2046 -0.1106 -0.6715
  190DOPC   H2R23416   3.742  -0.021  13.448  0.9516 -4.1295 -1.4446
  190DOPC   H2S23417   3.868   0.096  13.398  2.3138 -0.0850  0.0683
  190DOPC    C323418   4.212  -0.190  13.358 -0.1099  0.1637  0.5651
  190DOPC    HX23419   4.287  -0.255  13.308 -0.9505 -0.3208 -0.0862
  190DOPC    HY23420   4.158  -0.252  13.432 -2.3555 -0.3920 -1.4444
  190DOPC   O3123421   4.286  -0.083  13.417  0.4952  0.0524 -0.3221
  190DOPC   C3123422   4.409  -0.120  13.469  0.4021  0.1158  0.2965
  190DOPC   O3223423   4.458  -0.228  13.464  0.0528  0.2191 -0.4545
  190DOPC   C3223424   4.464  -0.001  13.551 -0.4721 -0.6968  0.0842
  190DOPC   H2X23425   4.504   0.076  13.481 -0.0792 -1.1734 -0.2200
  190DOPC   H2Y23426   4.381   0.054  13.599  0.0269  0.7768 -0.6748
  190DOPC   C2323427   3.873   0.033  13.617  0.3933 -0.0189 -0.2931
  190DOPC   H3R23428   3.854  -0.059  13.677  0.8369  0.9461  1.4006
  190DOPC   H3S23429   3.795   0.109  13.642  0.4419  0.0732 -0.4210
  190DOPC   C2423430   4.012   0.088  13.659 -0.1721  0.5219 -0.2140
  190DOPC   H4R23431   4.024   0.184  13.604  2.1293 -0.3195 -1.2957
  190DOPC   H4S23432   4.089   0.019  13.619 -1.2602 -0.8227 -0.0757
  190DOPC   C2523433   4.032   0.110  13.805  0.7174 -0.4831 -0.8051
  190DOPC   H5R23434   4.028   0.014  13.861  0.6986  0.2286  0.4351
  190DOPC   H5S23435   3.946   0.165  13.849  1.2308 -1.1050  1.0846
  190DOPC   C2623436   4.160   0.191  13.832  0.2675  0.0242  0.0112
  190DOPC   H6R23437   4.152   0.297  13.798  0.7360  0.0859  0.0822
  190DOPC   H6S23438   4.235   0.153  13.759 -0.0007 -1.5623  0.5182
  190DOPC   C2723439   4.212   0.167  13.971 -0.6077 -0.1966 -0.1157
  190DOPC   H7R23440   4.321   0.184  13.982 -0.6675  0.7463 -0.8430
  190DOPC   H7S23441   4.188   0.061  13.993  0.9952 -0.8462 -1.3454
  190DOPC   C2823442   4.138   0.250  14.082  0.3954  0.6564 -0.9902
  190DOPC   H8R23443   4.167   0.203  14.179 -1.1600  0.9382 -0.3516
  190DOPC   H8S23444   4.029   0.235  14.070  0.3662  0.5807 -0.6462
  190DOPC   C2923445   4.175   0.395  14.086 -0.5423  0.2452 -0.1200
  190DOPC   H9R23446   4.262   0.417  14.023  1.1923  0.1312  2.1420
  190DOPC  C21023447   4.111   0.493  14.154  0.3848  0.9398  0.2733
  190DOPC  H10R23448   4.133   0.601  14.165 -0.0078  1.2149 -1.3475
  190DOPC  C21123449   3.985   0.466  14.229  0.6749  0.1723  0.2860
  190DOPC  H11R23450   4.017   0.473  14.335  0.3730 -0.7835  0.4481
  190DOPC  H11S23451   3.941   0.365  14.216 -2.4851  1.1943  2.1039
  190DOPC  C21223452   3.873   0.566  14.189  0.5732 -0.1425  0.2311
  190DOPC  H12R23453   3.912   0.669  14.174  1.3904 -0.7179 -1.9955
  190DOPC  H12S23454   3.813   0.558  14.282  1.3566 -1.9457  0.6132
  190DOPC  C21323455   3.792   0.506  14.068 -0.1048  0.2276 -0.5182
  190DOPC  H13R23456   3.750   0.408  14.098  1.8591 -0.6992 -0.6526
  190DOPC  H13S23457   3.870   0.486  13.991 -0.9191  0.4240 -1.4181
  190DOPC  C21423458   3.692   0.590  13.995 -0.0961 -0.6030  0.0476
  190DOPC  H14R23459   3.740   0.676  13.944 -2.1315  0.7613  0.3311
  190DOPC  H14S23460   3.610   0.625  14.062 -0.1639 -0.6390 -0.0176
  190DOPC  C21523461   3.621   0.510  13.885 -0.6369  0.3225  0.1101
  190DOPC  H15R23462   3.559   0.424  13.920 -0.4686 -0.3329 -1.1484
  190DOPC  H15S23463   3.701   0.460  13.826 -0.8374 -0.8048  0.7510
  190DOPC  C21623464   3.516   0.594  13.815 -0.7296 -0.3227  0.2485
  190DOPC  H16R23465   3.560   0.686  13.770 -0.1941 -0.1970  1.0057
  190DOPC  H16S23466   3.446   0.627  13.894  0.7988 -0.4501  1.7105
  190DOPC  C21723467   3.451   0.521  13.704  0.9617 -0.2605  0.2328
  190DOPC  H17R23468   3.431   0.413  13.722  0.9737 -0.8893 -3.0036
  190DOPC  H17S23469   3.514   0.516  13.613 -0.1310 -2.1535 -0.4664
  190DOPC  C21823470   3.319   0.591  13.668 -0.2220  0.2585 -0.2898
  190DOPC  H18R23471   3.264   0.608  13.764  1.1934 -0.4871  0.6881
  190DOPC  H18S23472   3.259   0.514  13.613  1.0693 -0.3006 -0.9517
  190DOPC  H18T23473   3.327   0.683  13.607 -0.7317  0.0575 -0.6694
  190DOPC   C3323474   4.574  -0.035  13.657 -0.1946  0.7588 -0.1337
  190DOPC   H3X23475   4.619   0.063  13.682 -1.7878  1.1683  1.2835
  190DOPC   H3Y23476   4.660  -0.098  13.624  0.9389  2.0086  0.3906
  190DOPC   C3423477   4.516  -0.084  13.791 -0.0155  0.4225  0.0896
  190DOPC   H4X23478   4.527  -0.194  13.799  1.1086  0.6291  1.8200
  190DOPC   H4Y23479   4.407  -0.063  13.803 -0.4071 -2.2976  2.3366
  190DOPC   C3523480   4.575  -0.017  13.917 -0.0062  0.9860 -0.0819
  190DOPC   H5X23481   4.556   0.092  13.930  1.1761  1.1113  0.7288
  190DOPC   H5Y23482   4.686  -0.016  13.917  0.0389  0.4393  2.2090
  190DOPC   C3623483   4.520  -0.089  14.045  0.1832  0.4786  0.1958
  190DOPC   H6X23484   4.469  -0.014  14.109 -0.2664  0.5387 -0.2187
  190DOPC   H6Y23485   4.447  -0.166  14.010  0.1516  1.5531 -2.3360
  190DOPC   C3723486   4.640  -0.143  14.120  0.7022  0.3980  0.4274
  190DOPC   H7X23487   4.691  -0.218  14.057 -1.5393 -2.2899  1.6133
  190DOPC   H7Y23488   4.709  -0.057  14.139 -0.4409  0.9864  2.1932
  190DOPC   C3823489   4.605  -0.205  14.260  0.0636 -0.1653 -0.0205
  190DOPC   H8X23490   4.701  -0.247  14.298 -0.6351 -0.7396  1.1485
  190DOPC   H8Y23491   4.540  -0.291  14.234 -0.4083  0.1961 -0.0456
  190DOPC   C3923492   4.550  -0.104  14.357 -0.7665  0.0775 -1.0174
  190DOPC   H9X23493   4.618  -0.018  14.368 -0.4417 -0.3377  0.3525
  190DOPC  C31023494   4.445  -0.111  14.431 -0.3221  0.1931  0.0342
  190DOPC  H10X23495   4.419  -0.019  14.486 -3.2734 -1.2034  1.2198
  190DOPC  C31123496   4.346  -0.223  14.431  0.0447 -0.4019 -0.3834
  190DOPC  H11X23497   4.307  -0.246  14.532 -0.0294  1.3021  0.0147
  190DOPC  H11Y23498   4.387  -0.318  14.391 -0.4075 -0.3252 -1.0546
  190DOPC  C31223499   4.227  -0.166  14.351 -0.0929  0.4852 -0.6839
  190DOPC  H12X23500   4.146  -0.242  14.361  0.0404  0.3647 -0.5199
  190DOPC  H12Y23501   4.247  -0.150  14.243  1.7518 -1.3389 -0.6628
  190DOPC  C31323502   4.155  -0.049  14.412 -0.2295 -0.6942  0.4048
  190DOPC  H13X23503   4.133  -0.061  14.520  2.2014  1.3469  1.2240
  190DOPC  H13Y23504   4.222   0.037  14.395 -1.1103 -0.1310 -0.3556
  190DOPC  C31423505   4.028  -0.018  14.330  0.4277  0.4932 -0.1699
  190DOPC  H14X23506   4.051   0.023  14.229  0.8797  1.9937  0.5216
  190DOPC  H14Y23507   3.967  -0.111  14.336  1.1242 -0.0035 -0.6575
  190DOPC  C31523508   3.947   0.088  14.407  0.3013  0.5858  0.0511
  190DOPC  H15X23509   4.009   0.180  14.417  1.2829  0.1055 -1.3291
  190DOPC  H15Y23510   3.931   0.057  14.513 -0.8181  1.5491  0.1730
  190DOPC  C31623511   3.808   0.134  14.358 -0.1199 -0.8889 -0.0293
  190DOPC  H16X23512   3.762   0.201  14.433  0.6481 -0.8477  0.4187
  190DOPC  H16Y23513   3.817   0.204  14.272  0.4856  0.0093  0.7434
  190DOPC  C31723514   3.709   0.018  14.320  0.1811 -0.4008 -0.2901
  190DOPC  H17X23515   3.735  -0.067  14.387  2.8756  1.3772  1.0850
  190DOPC  H17Y23516   3.612   0.066  14.343  0.3356 -0.5649  0.7643
  190DOPC  C31823517   3.706  -0.016  14.169 -0.2003  0.5077 -0.3273
  190DOPC  H18X23518   3.809  -0.027  14.128 -0.0061  0.8809  0.0534
  190DOPC  H18Y23519   3.646  -0.110  14.168 -1.0563  1.0286  0.5769
  190DOPC  H18Z23520   3.657   0.059  14.103  2.7725  0.9031 -2.2597
  191DOPC     N23521   6.797   7.369  12.804 -0.0596 -0.1353  0.1310
  191DOPC   C1223522   6.780   7.374  12.951  0.0179 -1.2385  0.2275
  191DOPC  H12A23523   6.868   7.418  12.995 -0.5084 -0.4664  0.5265
  191DOPC  H12B23524   6.773   7.274  12.991 -1.6952 -0.7050  1.3857
  191DOPC   C1323525   6.812   7.508  12.752  0.0355 -0.2350 -0.0543
  191DOPC  H13A23526   6.823   7.494  12.646 -4.0707  1.5792 -0.9243
  191DOPC  H13B23527   6.721   7.568  12.756  0.0151 -0.2483 -0.3315
  191DOPC  H13C23528   6.902   7.553  12.790 -0.7431  0.7131  0.7546
  191DOPC   C1423529   6.675   7.307  12.744 -0.9651 -0.1800 -0.2831
  191DOPC  H14A23530   6.658   7.322  12.638 -3.9419  1.2631  0.3016
  191DOPC  H14B23531   6.649   7.209  12.781 -1.0347  0.1828  0.6567
  191DOPC  H14C23532   6.610   7.373  12.800  1.1064  1.2389  0.6058
  191DOPC   C1523533   6.917   7.289  12.762  0.3007  0.1357 -0.2057
  191DOPC  H15A23534   6.928   7.260  12.658 -0.9107 -1.2944  0.0301
  191DOPC  H15B23535   6.904   7.191  12.805 -2.5577  0.6552  0.3346
  191DOPC  H15C23536   7.007   7.335  12.800  0.3829 -0.4499  0.3247
  191DOPC   C1123537   6.650   7.448  13.013  0.5481  0.4004  0.4232
  191DOPC  H11A23538   6.666   7.475  13.119  3.6818  0.0348  0.1361
  191DOPC  H11B23539   6.650   7.547  12.964 -2.6180  0.9070  1.1854
  191DOPC     P23540   6.483   7.239  13.049 -0.1656  0.2984  0.0223
  191DOPC   O1323541   6.582   7.137  13.015  0.1677  0.3683  0.0844
  191DOPC   O1423542   6.343   7.217  13.010 -0.6661  0.5914 -0.6481
  191DOPC   O1223543   6.520   7.384  12.989  0.4284 -0.1105  0.0268
  191DOPC   O1123544   6.485   7.268  13.201  0.1535  0.4020 -0.1971
  191DOPC    C123545   6.366   7.340  13.254  0.4634 -0.7410 -0.1084
  191DOPC    HA23546   6.349   7.318  13.361 -1.7984  3.2813  0.5443
  191DOPC    HB23547   6.272   7.304  13.206  2.6285 -3.4200 -2.7551
  191DOPC    C223548   6.382   7.492  13.264  0.9800 -0.4637 -0.0630
  191DOPC    HS23549   6.422   7.513  13.162  3.0489 -2.6008  0.2203
  191DOPC   O2123550   6.486   7.526  13.354  0.2748  0.2145 -0.2407
  191DOPC   C2123551   6.523   7.650  13.342 -0.1653 -0.1472  0.2456
  191DOPC   O2223552   6.486   7.739  13.257 -0.2333 -0.0294 -0.7633
  191DOPC   C2223553   6.631   7.683  13.450  0.3118 -0.0360  0.4970
  191DOPC   H2R23554   6.686   7.774  13.417  0.0160  0.6667  1.8622
  191DOPC   H2S23555   6.690   7.590  13.435 -0.0291 -0.1825  0.0235
  191DOPC    C323556   6.241   7.553  13.311 -0.1378 -0.3785  1.0221
  191DOPC    HX23557   6.167   7.532  13.231 -1.1816  0.1968  1.8056
  191DOPC    HY23558   6.257   7.663  13.316  2.5607 -0.7045  1.1986
  191DOPC   O3123559   6.199   7.500  13.433  0.5049 -1.0254 -0.1198
  191DOPC   C3123560   6.078   7.544  13.462 -0.0411  0.0206 -0.3277
  191DOPC   O3223561   6.020   7.639  13.406  0.4335  0.4164 -0.0768
  191DOPC   C3223562   6.036   7.476  13.600 -0.4862 -0.7767 -0.2169
  191DOPC   H2X23563   5.986   7.379  13.582  0.2306 -1.1984  0.0147
  191DOPC   H2Y23564   6.132   7.442  13.645 -0.5751  0.7599  1.2347
  191DOPC   C2323565   6.578   7.691  13.594 -0.0302  0.1379 -0.6889
  191DOPC   H3R23566   6.658   7.707  13.669  1.1092 -0.2507 -1.7873
  191DOPC   H3S23567   6.532   7.591  13.611  0.1661 -0.2147 -2.1050
  191DOPC   C2423568   6.476   7.799  13.613  0.0040  0.3708 -0.2548
  191DOPC   H4R23569   6.387   7.799  13.546 -0.1599  1.1844 -0.0535
  191DOPC   H4S23570   6.527   7.894  13.587  1.2284  0.4340  2.0996
  191DOPC   C2523571   6.435   7.804  13.756  0.3585  0.3148 -0.2185
  191DOPC   H5R23572   6.367   7.891  13.771 -0.1673 -0.5319  3.4926
  191DOPC   H5S23573   6.523   7.808  13.824  0.2590 -0.8358  0.0140
  191DOPC   C2623574   6.352   7.681  13.797 -0.4820  0.1555 -0.1844
  191DOPC   H6R23575   6.408   7.587  13.779 -1.8684 -0.7161 -0.0452
  191DOPC   H6S23576   6.260   7.670  13.736  0.7533  0.3036 -2.1981
  191DOPC   C2723577   6.287   7.689  13.942  0.5093 -0.1576 -0.4628
  191DOPC   H7R23578   6.189   7.637  13.936 -0.4726  1.5348  0.2057
  191DOPC   H7S23579   6.270   7.796  13.969  0.3023 -0.3726  0.2700
  191DOPC   C2823580   6.357   7.616  14.063 -0.0333 -0.3380  0.0697
  191DOPC   H8R23581   6.435   7.692  14.080  0.0660 -0.5231  0.4533
  191DOPC   H8S23582   6.390   7.513  14.035 -1.3263 -0.9336  0.6236
  191DOPC   C2923583   6.276   7.625  14.192  0.6109 -0.9015  0.3054
  191DOPC   H9R23584   6.169   7.597  14.186  0.6179 -0.8472 -0.0794
  191DOPC  C21023585   6.310   7.667  14.316 -0.3936  0.4125  0.1746
  191DOPC  H10R23586   6.244   7.664  14.403 -1.0420  0.2412 -0.3171
  191DOPC  C21123587   6.445   7.720  14.351 -0.5260  0.5301 -0.3446
  191DOPC  H11R23588   6.499   7.759  14.262  1.7463  1.8132  1.4944
  191DOPC  H11S23589   6.515   7.644  14.391 -0.7115  0.5299 -0.0138
  191DOPC  C21223590   6.449   7.848  14.437  0.4873 -0.4891 -0.5478
  191DOPC  H12R23591   6.393   7.931  14.389 -0.3784 -0.1483  1.0001
  191DOPC  H12S23592   6.549   7.895  14.442  1.3809 -2.4273  1.0781
  191DOPC  C21323593   6.402   7.836  14.587  0.4022 -0.1323  0.8072
  191DOPC  H13R23594   6.476   7.769  14.637 -0.1103 -1.4570 -0.1455
  191DOPC  H13S23595   6.298   7.799  14.588  0.7383 -1.4310 -1.8971
  191DOPC  C21423596   6.401   7.980  14.646 -0.0668  0.4748 -0.0004
  191DOPC  H14R23597   6.312   8.028  14.599 -0.4800  0.7673  1.0556
  191DOPC  H14S23598   6.487   8.039  14.607  0.5707  0.3035  1.1262
  191DOPC  C21523599   6.385   7.987  14.797 -1.0970  0.4856 -0.2014
  191DOPC  H15R23600   6.484   7.980  14.845 -1.9396  0.3631  1.5753
  191DOPC  H15S23601   6.315   7.905  14.825 -0.7021  0.7495  1.6441
  191DOPC  C21623602   6.312   8.109  14.858 -0.2726  0.3065 -0.2966
  191DOPC  H16R23603   6.222   8.119  14.793  0.0952 -3.8203 -1.7521
  191DOPC  H16S23604   6.377   8.200  14.855  1.4222 -0.8056  1.2289
  191DOPC  C21723605   6.262   8.081  15.007  0.0045  0.3413  0.0984
  191DOPC  H17R23606   6.348   8.056  15.073 -0.5560 -3.6215 -0.4764
  191DOPC  H17S23607   6.200   7.989  15.002  0.1315 -0.0700  3.3881
  191DOPC  C21823608   6.189   8.206  15.061 -0.0988 -0.0773 -0.8393
  191DOPC  H18R23609   6.102   8.233  14.996 -1.1749  1.3154  1.1047
  191DOPC  H18S23610   6.262   8.289  15.068  1.1832 -1.2257  0.0170
  191DOPC  H18T23611   6.152   8.189  15.164  1.7185  0.6319 -0.0225
  191DOPC   C3323612   5.949   7.568  13.690  0.0437  0.2976 -0.5215
  191DOPC   H3X23613   5.844   7.573  13.654 -0.8786 -0.5699  1.8481
  191DOPC   H3Y23614   6.000   7.666  13.696  0.9458 -0.2091  0.5289
  191DOPC   C3423615   5.946   7.501  13.824  0.2185  0.4827 -1.1317
  191DOPC   H4X23616   6.045   7.459  13.849  0.8485  3.1654  1.4800
  191DOPC   H4Y23617   5.882   7.411  13.811  0.1564  0.3700 -0.0992
  191DOPC   C3523618   5.898   7.586  13.942 -0.9987 -0.4069 -0.0128
  191DOPC   H5X23619   5.810   7.648  13.915  1.9476  3.4613 -1.7318
  191DOPC   H5Y23620   5.969   7.668  13.968 -0.9033 -0.4312 -0.1966
  191DOPC   C3623621   5.894   7.511  14.076 -0.6624 -0.1764 -0.3984
  191DOPC   H6X23622   5.823   7.425  14.080 -0.4450 -0.4804 -2.2888
  191DOPC   H6Y23623   5.985   7.454  14.103 -0.9657  0.4274  2.1907
  191DOPC   C3723624   5.854   7.604  14.186 -0.4429  0.0846 -0.0353
  191DOPC   H7X23625   5.931   7.683  14.199 -0.8145  0.7308 -1.5533
  191DOPC   H7Y23626   5.759   7.653  14.155  0.4356  0.6954 -1.9318
  191DOPC   C3823627   5.842   7.534  14.322  0.3260 -0.1282  0.4897
  191DOPC   H8X23628   5.945   7.499  14.345  0.2004 -0.6658  0.2424
  191DOPC   H8Y23629   5.785   7.440  14.306 -0.3774  0.5592 -1.1990
  191DOPC   C3923630   5.785   7.616  14.436 -0.1304 -0.7610  1.0867
  191DOPC   H9X23631   5.677   7.637  14.431  0.1185  0.4654 -1.5662
  191DOPC  C31023632   5.854   7.671  14.537  0.1566  0.2572  0.7769
  191DOPC  H10X23633   5.796   7.732  14.608  0.8906 -0.4290  1.9952
  191DOPC  C31123634   6.000   7.682  14.572  0.2877  0.4255 -0.3368
  191DOPC  H11X23635   6.040   7.785  14.556 -0.7184  0.5481 -2.3735
  191DOPC  H11Y23636   6.054   7.619  14.498 -2.0772 -0.9680 -0.9988
  191DOPC  C31223637   6.043   7.650  14.711 -0.6783 -0.0964 -0.7408
  191DOPC  H12X23638   6.153   7.659  14.699 -0.8304  0.7811 -1.5517
  191DOPC  H12Y23639   6.018   7.546  14.742 -1.3383  0.6738  1.5324
  191DOPC  C31323640   5.983   7.745  14.822 -0.2036  0.6875  0.6709
  191DOPC  H13X23641   6.019   7.846  14.792  2.2468  0.2781  1.9915
  191DOPC  H13Y23642   5.873   7.745  14.806 -0.1904 -1.9910 -0.0048
  191DOPC  C31423643   6.018   7.700  14.965 -0.0045 -0.4705 -0.1907
  191DOPC  H14X23644   5.987   7.593  14.972  2.9249 -1.4062 -0.0149
  191DOPC  H14Y23645   6.128   7.709  14.980 -0.2707 -0.2231  1.9105
  191DOPC  C31523646   5.950   7.792  15.057 -0.6677  0.4844  0.0910
  191DOPC  H15X23647   5.839   7.782  15.064 -0.5613 -0.1639  1.1090
  191DOPC  H15Y23648   5.970   7.898  15.033 -2.8270  0.9705  0.1861
  191DOPC  C31623649   5.988   7.782  15.205  0.6112 -0.3094  0.2770
  191DOPC  H16X23650   5.977   7.679  15.245  0.0389 -0.4004 -0.1061
  191DOPC  H16Y23651   6.098   7.799  15.210  0.9940 -2.4481  0.0940
  191DOPC  C31723652   5.905   7.873  15.305  0.1373  0.1395 -0.3690
  191DOPC  H17X23653   5.797   7.854  15.288  0.2794  0.1789 -1.3653
  191DOPC  H17Y23654   5.938   7.840  15.406 -2.2899  0.9632  0.7764
  191DOPC  C31823655   5.945   8.022  15.290 -0.8022  0.1549 -0.4167
  191DOPC  H18X23656   6.054   8.042  15.287 -0.9400  1.7407  2.2173
  191DOPC  H18Y23657   5.915   8.063  15.191  0.3091  0.1748 -0.7548
  191DOPC  H18Z23658   5.900   8.085  15.370  1.1513 -0.5138  1.2992
  192DOPC     N23659   0.738   5.517  13.119  0.0240 -0.1878  0.0114
  192DOPC   C1223660   0.753   5.443  13.258  0.2240  0.6089  0.5615
  192DOPC  H12A23661   0.667   5.446  13.322 -0.9380 -1.7531 -0.7742
  192DOPC  H12B23662   0.825   5.498  13.317  3.0680 -1.3249 -0.8603
  192DOPC   C1323663   0.869   5.539  13.049  0.6228  0.1781 -0.3555
  192DOPC  H13A23664   0.853   5.562  12.945 -2.4749  0.2982  0.0602
  192DOPC  H13B23665   0.910   5.622  13.105  0.3275 -0.4405  0.8142
  192DOPC  H13C23666   0.931   5.454  13.075 -1.0143 -0.1133  3.1725
  192DOPC   C1423667   0.673   5.657  13.148 -0.5801  0.6955  0.3763
  192DOPC  H14A23668   0.573   5.638  13.184 -1.0423 -0.2236 -1.3028
  192DOPC  H14B23669   0.731   5.699  13.229 -0.6409 -1.7973  1.8375
  192DOPC  H14C23670   0.670   5.718  13.059  1.1659  0.2865 -0.0214
  192DOPC   C1523671   0.642   5.451  13.024  0.7659  0.8517  0.7956
  192DOPC  H15A23672   0.651   5.497  12.926  0.4593  0.0215  0.3710
  192DOPC  H15B23673   0.542   5.466  13.060  0.2357  1.6157 -0.8513
  192DOPC  H15C23674   0.669   5.347  13.018  0.4497  0.7568  1.0782
  192DOPC   C1123675   0.803   5.297  13.253 -0.4218  0.1182 -0.2798
  192DOPC  H11A23676   0.803   5.257  13.357 -2.8956  0.9316  0.0858
  192DOPC  H11B23677   0.727   5.231  13.207  1.1609 -0.4859 -2.1686
  192DOPC     P23678   1.061   5.230  13.242  0.0025  0.4170 -0.0196
  192DOPC   O1323679   1.170   5.267  13.151  0.1527 -0.1678 -0.0107
  192DOPC   O1423680   1.060   5.085  13.284  0.3668 -0.1723  0.4772
  192DOPC   O1223681   0.926   5.265  13.176  0.1196 -0.1331 -0.0443
  192DOPC   O1123682   1.052   5.316  13.369  0.0458  0.0806 -0.2158
  192DOPC    C123683   1.134   5.429  13.385  0.2278 -0.1829 -0.5555
  192DOPC    HA23684   1.092   5.484  13.472  0.0333 -0.0318 -0.7450
  192DOPC    HB23685   1.129   5.491  13.293 -1.9236 -2.2391 -1.9310
  192DOPC    C223686   1.285   5.402  13.425 -0.5401  0.3070 -0.6154
  192DOPC    HS23687   1.307   5.323  13.350 -1.1576 -0.8931  0.4171
  192DOPC   O2123688   1.292   5.343  13.558  0.5592  0.1631 -1.1321
  192DOPC   C2123689   1.393   5.259  13.584  0.0624  0.2061 -0.0813
  192DOPC   O2223690   1.475   5.226  13.502 -0.4040 -0.5896 -0.4355
  192DOPC   C2223691   1.389   5.223  13.731 -0.1938  0.1723 -0.0302
  192DOPC   H2R23692   1.361   5.115  13.736  0.4440  0.0597  2.5631
  192DOPC   H2S23693   1.306   5.280  13.777  0.0367 -1.5567  2.7595
  192DOPC    C323694   1.377   5.531  13.421  0.5323  0.2622 -0.4768
  192DOPC    HX23695   1.358   5.588  13.514  2.4347  1.7210 -0.9384
  192DOPC    HY23696   1.337   5.584  13.332 -1.5773 -1.1115 -0.4386
  192DOPC   O3123697   1.516   5.502  13.407  0.3022 -0.4256 -0.4020
  192DOPC   C3123698   1.583   5.620  13.414  0.0127  0.4785 -0.6975
  192DOPC   O3223699   1.536   5.722  13.379  0.4371 -0.8609 -0.1808
  192DOPC   C3223700   1.729   5.607  13.460  0.4856  0.8251 -0.0297
  192DOPC   H2X23701   1.758   5.507  13.423 -1.5341  0.4100 -0.5801
  192DOPC   H2Y23702   1.781   5.690  13.406  0.6995  0.7209  0.0162
  192DOPC   C2323703   1.516   5.230  13.818  0.1905  0.6159  0.3812
  192DOPC   H3R23704   1.583   5.317  13.805 -0.5676  1.2446  0.5921
  192DOPC   H3S23705   1.581   5.143  13.794  0.0620  0.8214 -0.7520
  192DOPC   C2423706   1.479   5.224  13.967  0.1232  0.9498  0.2697
  192DOPC   H4R23707   1.400   5.146  13.980  0.8290  0.5398  2.5853
  192DOPC   H4S23708   1.432   5.321  13.994 -2.5296 -0.1478 -0.0737
  192DOPC   C2523709   1.597   5.190  14.070  0.0005  0.3029  0.2736
  192DOPC   H5R23710   1.670   5.269  14.045  1.3338 -0.7735  0.6336
  192DOPC   H5S23711   1.641   5.096  14.031  0.0903  1.2310 -1.9706
  192DOPC   C2623712   1.544   5.175  14.215 -0.2924  0.1930 -0.2033
  192DOPC   H6R23713   1.455   5.111  14.198 -0.7750  0.9527 -0.6010
  192DOPC   H6S23714   1.510   5.273  14.255 -2.4985 -1.4188  2.1206
  192DOPC   C2723715   1.656   5.111  14.296  0.1602 -0.0100  0.1862
  192DOPC   H7R23716   1.735   5.189  14.294 -0.2644  0.4241 -2.0745
  192DOPC   H7S23717   1.701   5.030  14.235 -0.6005 -0.4257  0.1603
  192DOPC   C2823718   1.626   5.063  14.436 -0.1000 -0.5083  0.3360
  192DOPC   H8R23719   1.608   5.151  14.501  0.2864 -0.9044  0.9829
  192DOPC   H8S23720   1.725   5.019  14.460  0.9010  0.5939 -1.4617
  192DOPC   C2923721   1.520   4.957  14.446 -0.3416 -0.0448  0.4133
  192DOPC   H9R23722   1.445   4.980  14.369 -2.3817  1.8108  2.7541
  192DOPC  C21023723   1.511   4.854  14.539  0.5890  0.8254  0.6328
  192DOPC  H10R23724   1.429   4.781  14.536  2.0941 -0.9485  0.6767
  192DOPC  C21123725   1.606   4.821  14.648  0.4065  0.0438  0.3215
  192DOPC  H11R23726   1.701   4.880  14.643 -0.0451  0.6958 -1.7811
  192DOPC  H11S23727   1.646   4.720  14.628  1.6224  0.7141 -0.8962
  192DOPC  C21223728   1.546   4.828  14.785 -0.1341 -0.4299 -0.5271
  192DOPC  H12R23729   1.479   4.915  14.802  0.3469 -0.0582 -0.4927
  192DOPC  H12S23730   1.626   4.827  14.862 -0.6018  0.1683 -0.0341
  192DOPC  C21323731   1.458   4.699  14.806 -0.7703  0.0527  0.2283
  192DOPC  H13R23732   1.500   4.604  14.766 -1.0488 -0.8131  1.9124
  192DOPC  H13S23733   1.359   4.719  14.760 -0.6042  1.8971  0.5835
  192DOPC  C21423734   1.436   4.675  14.959 -0.1310  0.3310  0.4710
  192DOPC  H14R23735   1.390   4.768  14.998 -2.0695 -1.4496  2.6824
  192DOPC  H14S23736   1.538   4.674  15.003 -0.0181  0.8729  0.2375
  192DOPC  C21523737   1.347   4.552  14.983  0.2247  0.4114  0.2901
  192DOPC  H15R23738   1.400   4.457  14.958  0.6266  0.5204  0.7198
  192DOPC  H15S23739   1.253   4.548  14.924 -1.3275  1.0672  2.5556
  192DOPC  C21623740   1.291   4.549  15.130 -0.2547  0.0610  0.0140
  192DOPC  H16R23741   1.202   4.482  15.128  0.2100 -0.5716  0.2131
  192DOPC  H16S23742   1.259   4.651  15.161 -0.3756  0.0962 -0.2265
  192DOPC  C21723743   1.387   4.495  15.232 -0.2243  0.0340  0.2511
  192DOPC  H17R23744   1.483   4.537  15.197  0.4888 -0.8106  1.1600
  192DOPC  H17S23745   1.393   4.387  15.208  1.3068  0.3831 -1.1113
  192DOPC  C21823746   1.343   4.522  15.371  0.6565  0.4020  0.2982
  192DOPC  H18R23747   1.422   4.501  15.447  0.8515 -0.6060 -0.1594
  192DOPC  H18S23748   1.251   4.467  15.401  1.2192 -0.7301  0.0041
  192DOPC  H18T23749   1.316   4.630  15.371 -0.9457  0.0333  0.7400
  192DOPC   C3323750   1.760   5.633  13.603 -0.5314 -0.5025 -0.6778
  192DOPC   H3X23751   1.696   5.563  13.662 -1.8652  0.9959 -0.2801
  192DOPC   H3Y23752   1.737   5.739  13.624  2.1546  0.2378 -1.1054
  192DOPC   C3423753   1.905   5.612  13.643  0.0165  0.1485  0.3532
  192DOPC   H4X23754   1.975   5.681  13.592  0.4131 -0.6099 -0.1472
  192DOPC   H4Y23755   1.936   5.519  13.591  0.5934  1.9614 -2.7958
  192DOPC   C3523756   1.920   5.613  13.798 -0.2502 -0.2602 -0.4797
  192DOPC   H5X23757   2.003   5.543  13.818  1.1302  1.3103 -0.4588
  192DOPC   H5Y23758   1.831   5.571  13.849 -0.3960 -1.3249 -1.5693
  192DOPC   C3623759   1.944   5.753  13.861  0.4175  0.8516  0.2226
  192DOPC   H6X23760   2.050   5.779  13.840  1.0585 -2.8179 -2.0356
  192DOPC   H6Y23761   1.867   5.819  13.818 -0.5363 -1.5724 -2.0660
  192DOPC   C3723762   1.914   5.751  14.013 -0.2295  0.3398 -0.0041
  192DOPC   H7X23763   1.892   5.855  14.048  0.6456 -0.0811  1.9029
  192DOPC   H7Y23764   1.819   5.700  14.041  1.1333 -2.5047 -0.3118
  192DOPC   C3823765   2.035   5.702  14.096  0.0027 -0.3840  0.8932
  192DOPC   H8X23766   2.118   5.764  14.055  1.1151 -2.2973  0.1112
  192DOPC   H8Y23767   2.064   5.599  14.064  4.1010  0.2315  2.0782
  192DOPC   C3923768   2.019   5.726  14.242  0.0831 -0.8502 -0.0428
  192DOPC   H9X23769   2.032   5.828  14.279  0.7251 -1.3682  1.2342
  192DOPC  C31023770   1.967   5.648  14.337  0.2099 -0.3183 -0.3381
  192DOPC  H10X23771   1.951   5.695  14.435  0.6759 -0.4155 -0.2130
  192DOPC  C31123772   1.919   5.509  14.301  0.1130 -0.3449  0.6250
  192DOPC  H11X23773   1.961   5.466  14.207 -0.0173  2.0077 -0.6058
  192DOPC  H11Y23774   1.808   5.508  14.299  0.1082 -0.3973  0.9723
  192DOPC  C31223775   1.947   5.412  14.413  0.1336 -0.3863 -0.0097
  192DOPC  H12X23776   2.054   5.412  14.443  0.0738 -0.6852  0.2161
  192DOPC  H12Y23777   1.934   5.310  14.369  0.2919 -1.1814  1.6921
  192DOPC  C31323778   1.853   5.419  14.532 -0.0043 -0.0428 -1.2767
  192DOPC  H13X23779   1.847   5.522  14.574 -2.1823 -0.1737 -1.1688
  192DOPC  H13Y23780   1.747   5.395  14.508 -0.6989  1.4312  0.1746
  192DOPC  C31423781   1.888   5.303  14.632 -0.7705  0.0966  0.4321
  192DOPC  H14X23782   1.797   5.290  14.695 -1.1306 -2.5478 -0.5041
  192DOPC  H14Y23783   1.909   5.205  14.583  1.6151  0.7656 -0.0356
  192DOPC  C31523784   2.012   5.332  14.718  0.9220  0.8046 -0.0946
  192DOPC  H15X23785   2.010   5.437  14.753 -3.4657  0.6213  0.7963
  192DOPC  H15Y23786   2.094   5.312  14.645  0.4031 -0.7622 -0.2886
  192DOPC  C31623787   2.008   5.241  14.846 -0.3341 -0.4285 -0.1087
  192DOPC  H16X23788   1.942   5.295  14.917 -1.2255 -0.1110 -1.1498
  192DOPC  H16Y23789   1.960   5.147  14.813  0.0905 -1.0876  1.0888
  192DOPC  C31723790   2.144   5.216  14.908  0.6381 -0.0399  0.7156
  192DOPC  H17X23791   2.210   5.163  14.836  0.6826 -0.7692  1.2802
  192DOPC  H17Y23792   2.193   5.315  14.910 -0.1330  0.3437  2.5063
  192DOPC  C31823793   2.154   5.136  15.035  0.1021 -0.1452 -0.9179
  192DOPC  H18X23794   2.246   5.075  15.045 -0.0476 -0.0077  2.6263
  192DOPC  H18Y23795   2.156   5.204  15.123  3.0016  0.8473 -1.6597
  192DOPC  H18Z23796   2.071   5.062  15.033 -0.6953  0.7313 -1.4392
  193DOPC     N23797   0.852   0.786  13.174 -0.4984  0.4241 -0.0233
  193DOPC   C1223798   0.846   0.875  13.297 -0.3030  0.5473  0.5856
  193DOPC  H12A23799   0.872   0.814  13.382  2.9929  0.3565 -0.4309
  193DOPC  H12B23800   0.746   0.914  13.312  0.2496  2.6396 -0.7593
  193DOPC   C1323801   0.818   0.872  13.064 -0.0745  0.5195  0.0273
  193DOPC  H13A23802   0.880   0.960  13.071  0.8385 -0.1376  0.6333
  193DOPC  H13B23803   0.836   0.812  12.976  0.9840  0.9288 -0.0550
  193DOPC  H13C23804   0.715   0.903  13.070 -0.3352 -0.3131  0.0836
  193DOPC   C1423805   0.756   0.675  13.186  0.0085  0.1111 -0.3637
  193DOPC  H14A23806   0.781   0.600  13.261 -1.1746 -0.4009 -0.4608
  193DOPC  H14B23807   0.659   0.714  13.212  0.3723  2.2939 -2.0283
  193DOPC  H14C23808   0.750   0.618  13.095  1.0141  0.2649 -0.5407
  193DOPC   C1523809   0.987   0.733  13.152  0.4195 -0.8037  0.5725
  193DOPC  H15A23810   1.054   0.818  13.146 -1.5280  0.7377 -0.6341
  193DOPC  H15B23811   1.008   0.667  13.070  1.7726 -1.5024  1.4363
  193DOPC  H15C23812   1.023   0.680  13.239  0.2843 -3.0168 -0.6647
  193DOPC   C1123813   0.934   0.998  13.299  0.3403  0.1592  0.0883
  193DOPC  H11A23814   0.924   1.045  13.399 -1.9088 -0.6128  0.2854
  193DOPC  H11B23815   1.044   0.982  13.300  0.4001  0.5258  1.1800
  193DOPC     P23816   0.789   1.201  13.194 -0.0151  0.3768 -0.1469
  193DOPC   O1323817   0.701   1.180  13.081 -0.0406  0.1202  1.2109
  193DOPC   O1423818   0.867   1.326  13.202  0.1390 -0.2159  0.5372
  193DOPC   O1223819   0.905   1.089  13.190 -0.1354 -0.1660 -0.2286
  193DOPC   O1123820   0.721   1.163  13.330 -0.3051  0.1268  0.0581
  193DOPC    C123821   0.637   1.255  13.399  0.3397 -0.9137 -0.0710
  193DOPC    HA23822   0.542   1.264  13.341  1.2776 -1.6634 -1.8114
  193DOPC    HB23823   0.688   1.353  13.410  1.1312 -1.2675 -0.4957
  193DOPC    C223824   0.593   1.189  13.532  0.2520 -0.5441 -0.1955
  193DOPC    HS23825   0.687   1.179  13.591  1.0655  2.4814 -0.8082
  193DOPC   O2123826   0.504   1.075  13.513  0.2538 -0.6290  0.0075
  193DOPC   C2123827   0.563   0.959  13.534  0.1768 -0.4532  0.5790
  193DOPC   O2223828   0.679   0.946  13.570 -0.3723  0.2878 -0.5310
  193DOPC   C2223829   0.472   0.850  13.477 -0.2283  1.1018 -0.5145
  193DOPC   H2R23830   0.480   0.837  13.367  0.4166  0.6449 -0.4144
  193DOPC   H2S23831   0.364   0.869  13.500 -0.8175  1.7784 -3.4130
  193DOPC    C323832   0.515   1.290  13.617 -0.2744 -0.0596  0.5639
  193DOPC    HX23833   0.502   1.241  13.716 -0.7955  1.7354  1.4429
  193DOPC    HY23834   0.422   1.320  13.564  0.5303  0.8783 -0.3675
  193DOPC   O3123835   0.592   1.413  13.626 -0.0239  0.5087 -0.4327
  193DOPC   C3123836   0.654   1.444  13.737  0.5763 -0.7782 -1.0897
  193DOPC   O3223837   0.643   1.376  13.839 -0.2852  0.1009 -0.0785
  193DOPC   C3223838   0.735   1.573  13.720  0.4698  0.0590  0.4834
  193DOPC   H2X23839   0.835   1.544  13.683  0.0732 -0.2978 -0.3420
  193DOPC   H2Y23840   0.689   1.640  13.645  0.4951  2.0831  2.1840
  193DOPC   C2323841   0.497   0.712  13.554 -0.3029  0.2364 -0.4057
  193DOPC   H3R23842   0.608   0.709  13.546 -0.1741  2.7161 -0.3219
  193DOPC   H3S23843   0.447   0.639  13.488  1.6728 -1.0732 -0.5617
  193DOPC   C2423844   0.447   0.700  13.696  0.8137 -0.2547 -0.2490
  193DOPC   H4R23845   0.486   0.781  13.762  2.0371 -0.3731 -0.7978
  193DOPC   H4S23846   0.497   0.608  13.732  0.5338  0.2056  1.4181
  193DOPC   C2523847   0.291   0.679  13.714  0.0044 -0.5788 -0.5529
  193DOPC   H5R23848   0.261   0.607  13.634 -0.5000  0.4691 -1.3288
  193DOPC   H5S23849   0.242   0.774  13.686  0.2044 -0.1068  0.6751
  193DOPC   C2623850   0.244   0.636  13.852  0.6671 -0.0544  0.1308
  193DOPC   H6R23851   0.276   0.715  13.923  0.9924  1.0727 -1.2170
  193DOPC   H6S23852   0.297   0.540  13.868  0.1696 -0.2686  0.5185
  193DOPC   C2723853   0.092   0.606  13.868  0.2950  1.0265 -0.5925
  193DOPC   H7R23854   0.066   0.517  13.808 -1.1838  1.9332 -1.3399
  193DOPC   H7S23855   0.027   0.682  13.820 -0.6240  1.1159  0.7499
  193DOPC   C2823856   0.056   0.600  14.021 -0.1551 -0.6023  0.1870
  193DOPC   H8R23857  -0.055   0.595  14.029 -0.2045  2.1124  2.5938
  193DOPC   H8S23858   0.074   0.693  14.079 -1.2568 -0.3069  0.0808
  193DOPC   C2923859   0.118   0.481  14.092 -0.1391  0.2497 -0.5231
  193DOPC   H9R23860   0.193   0.427  14.033 -1.5673 -0.0652 -2.1477
  193DOPC  C21023861   0.074   0.448  14.215 -1.0180 -0.4338  0.3138
  193DOPC  H10R23862   0.124   0.361  14.260  0.2916  0.7342  1.1611
  193DOPC  C21123863  -0.032   0.515  14.294 -0.2414  0.2420 -0.5371
  193DOPC  H11R23864  -0.114   0.440  14.298  0.5996 -0.7075 -0.7315
  193DOPC  H11S23865  -0.060   0.615  14.255  0.4629  0.7409  0.1934
  193DOPC  C21223866   0.008   0.536  14.444 -0.2672  0.0693  0.1158
  193DOPC  H12R23867  -0.079   0.560  14.508  0.4854  0.3962  1.0325
  193DOPC  H12S23868   0.084   0.616  14.448 -1.3152  1.0338  1.6577
  193DOPC  C21323869   0.054   0.410  14.519  0.0800 -0.0365  0.2316
  193DOPC  H13R23870   0.133   0.373  14.450 -1.0751 -1.0582 -0.5838
  193DOPC  H13S23871  -0.020   0.328  14.524 -0.2434  0.0569 -2.0141
  193DOPC  C21423872   0.110   0.446  14.654  0.0877 -0.1719 -0.0222
  193DOPC  H14R23873   0.025   0.488  14.713 -0.2807 -1.2397  0.2311
  193DOPC  H14S23874   0.184   0.526  14.635  2.1608 -2.1206 -0.5959
  193DOPC  C21523875   0.172   0.332  14.732 -0.9863  0.6027  0.1853
  193DOPC  H15R23876   0.236   0.270  14.665 -0.9957  0.6866  0.0979
  193DOPC  H15S23877   0.080   0.282  14.771  0.3063 -0.6510  1.7346
  193DOPC  C21623878   0.270   0.362  14.856 -0.5070 -0.5131 -0.3231
  193DOPC  H16R23879   0.367   0.403  14.818 -0.3253 -1.9792 -1.5481
  193DOPC  H16S23880   0.291   0.257  14.888  0.5896 -0.3126 -0.3286
  193DOPC  C21723881   0.214   0.452  14.963 -0.7560  1.0257  0.2832
  193DOPC  H17R23882   0.118   0.405  14.992 -0.6900  2.1297  2.4548
  193DOPC  H17S23883   0.176   0.549  14.925 -0.1109  2.0637  2.1560
  193DOPC  C21823884   0.308   0.475  15.086 -0.5278  0.0713  0.2441
  193DOPC  H18R23885   0.251   0.539  15.156 -1.7375 -0.7818  0.0682
  193DOPC  H18S23886   0.401   0.527  15.054 -1.5909  0.2602 -2.8476
  193DOPC  H18T23887   0.325   0.376  15.133  2.7241  0.2804 -0.2057
  193DOPC   C3323888   0.754   1.657  13.848  0.2743  0.1573  0.0569
  193DOPC   H3X23889   0.801   1.590  13.923  0.7072 -1.0902 -1.2867
  193DOPC   H3Y23890   0.656   1.691  13.888 -0.0716 -0.7771  0.0426
  193DOPC   C3423891   0.838   1.782  13.825  0.2929 -0.2692 -0.3955
  193DOPC   H4X23892   0.853   1.822  13.927 -2.7054  2.8530 -0.9959
  193DOPC   H4Y23893   0.782   1.835  13.745 -1.2140 -1.1225  0.0566
  193DOPC   C3523894   0.983   1.768  13.780 -1.0385  0.1580  0.4283
  193DOPC   H5X23895   0.975   1.724  13.679 -1.4180  0.2270  0.4290
  193DOPC   H5Y23896   1.035   1.701  13.852  0.2988 -0.5061 -1.0910
  193DOPC   C3623897   1.062   1.904  13.763  0.0011  0.5525  0.5095
  193DOPC   H6X23898   1.150   1.890  13.696 -0.6591 -2.3824  0.1244
  193DOPC   H6Y23899   0.996   1.980  13.716 -1.2144 -1.4993 -1.2924
  193DOPC   C3723900   1.126   1.954  13.895 -0.1694  0.2748  0.3450
  193DOPC   H7X23901   1.169   2.055  13.880 -0.0685  0.0376 -1.1451
  193DOPC   H7Y23902   1.046   1.953  13.972  1.4518 -2.9288  2.1904
  193DOPC   C3823903   1.244   1.869  13.950 -0.0688 -0.2723  0.2960
  193DOPC   H8X23904   1.203   1.767  13.930 -0.6461  0.0037  0.0614
  193DOPC   H8Y23905   1.237   1.883  14.060 -0.9544  0.0739  0.2081
  193DOPC   C3923906   1.374   1.909  13.881 -0.0011 -0.5465 -0.1580
  193DOPC   H9X23907   1.357   1.977  13.796 -1.3020 -0.1812  0.3637
  193DOPC  C31023908   1.496   1.880  13.928 -0.1358  0.6948 -0.1631
  193DOPC  H10X23909   1.580   1.908  13.862  0.3432  0.2342  0.2467
  193DOPC  C31123910   1.538   1.804  14.055 -0.1019 -0.2747  0.0541
  193DOPC  H11X23911   1.589   1.711  14.021 -0.4121 -1.3370  2.2983
  193DOPC  H11Y23912   1.448   1.777  14.115 -0.4478 -0.0209 -0.3411
  193DOPC  C31223913   1.636   1.876  14.151  0.7462 -0.1406  0.0271
  193DOPC  H12X23914   1.584   1.961  14.201 -0.2120  0.4125 -1.8383
  193DOPC  H12Y23915   1.709   1.925  14.083 -2.1308  2.4068 -1.4888
  193DOPC  C31323916   1.706   1.780  14.253  0.1437 -0.1689  0.0536
  193DOPC  H13X23917   1.755   1.852  14.322  0.2029  2.9628 -3.0456
  193DOPC  H13Y23918   1.638   1.713  14.310  0.6007  0.3999  1.3066
  193DOPC  C31423919   1.828   1.707  14.190 -0.0725 -0.7288  0.8578
  193DOPC  H14X23920   1.805   1.647  14.099  0.5207 -0.4722  0.5338
  193DOPC  H14Y23921   1.898   1.787  14.157  0.5214 -1.5794 -0.0112
  193DOPC  C31523922   1.901   1.618  14.300  0.9177 -0.5724 -0.3969
  193DOPC  H15X23923   1.825   1.550  14.343  0.5230 -0.2694 -0.6043
  193DOPC  H15Y23924   1.936   1.691  14.376 -0.2468  0.2392 -0.6078
  193DOPC  C31623925   2.021   1.538  14.240  0.0290  0.0062  0.2811
  193DOPC  H16X23926   1.978   1.454  14.181  0.5467 -1.5422  2.0317
  193DOPC  H16Y23927   2.079   1.606  14.173 -1.1845 -0.1893 -0.9986
  193DOPC  C31723928   2.117   1.481  14.340  0.3502 -0.7248  0.6455
  193DOPC  H17X23929   2.168   1.559  14.399  0.4201  1.1965 -1.7872
  193DOPC  H17Y23930   2.059   1.425  14.416 -2.4198  0.8451 -0.1647
  193DOPC  C31823931   2.202   1.395  14.246 -0.2844 -0.2006 -0.0830
  193DOPC  H18X23932   2.146   1.302  14.218 -1.4507 -0.0989  1.7374
  193DOPC  H18Y23933   2.234   1.450  14.155 -1.2491 -0.4038 -0.5637
  193DOPC  H18Z23934   2.292   1.373  14.307 -1.5066  1.4141  2.4792
  194DOPC     N23935   2.978   0.094  12.945  0.8282 -0.2836 -0.2027
  194DOPC   C1223936   2.855   0.008  12.969 -0.0399  0.6747  0.3702
  194DOPC  H12A23937   2.818  -0.015  12.869  0.9682 -0.5442  0.2434
  194DOPC  H12B23938   2.783   0.056  13.034  0.4819  1.1398  0.6049
  194DOPC   C1323939   3.052   0.124  13.070  0.0348  0.1499  0.3705
  194DOPC  H13A23940   3.077   0.034  13.125  0.3098  0.7992  1.3465
  194DOPC  H13B23941   3.141   0.184  13.058  1.3013 -1.0823  2.7797
  194DOPC  H13C23942   2.994   0.181  13.141  0.1369  0.2270  0.3925
  194DOPC   C1423943   2.928   0.225  12.882  0.0702 -0.0955 -0.1313
  194DOPC  H14A23944   2.857   0.266  12.952  0.2450 -2.4928  1.5655
  194DOPC  H14B23945   3.009   0.296  12.878  0.4159 -0.2671  2.1464
  194DOPC  H14C23946   2.896   0.213  12.780  2.0581 -3.4525 -0.4880
  194DOPC   C1523947   3.071   0.018  12.858  0.0875  0.0625  0.2694
  194DOPC  H15A23948   3.120  -0.063  12.909 -0.6589  0.2292  1.2660
  194DOPC  H15B23949   3.140   0.080  12.802 -2.7981  0.0823 -3.6962
  194DOPC  H15C23950   3.015  -0.033  12.781 -0.7306  3.3008 -1.4361
  194DOPC   C1123951   2.876  -0.119  13.054 -0.4074  0.7724 -0.9435
  194DOPC  H11A23952   2.788  -0.185  13.048  0.9223 -0.9633 -2.9408
  194DOPC  H11B23953   2.958  -0.173  13.001 -0.2447 -0.2430  0.3244
  194DOPC     P23954   3.007  -0.186  13.275  0.2589 -0.0715 -0.5992
  194DOPC   O1323955   3.119  -0.095  13.306 -0.5485 -0.2294  0.3260
  194DOPC   O1423956   3.050  -0.317  13.213  0.4526  0.2289 -0.5751
  194DOPC   O1223957   2.905  -0.102  13.193 -0.0791 -0.1233  0.2451
  194DOPC   O1123958   2.922  -0.218  13.410  0.1011 -0.5854  0.1119
  194DOPC    C123959   2.905  -0.113  13.511 -0.0667 -0.0317 -0.4775
  194DOPC    HA23960   2.816  -0.131  13.576  1.2049 -1.1355  1.0195
  194DOPC    HB23961   2.889  -0.011  13.468 -0.9645 -0.7030 -1.8131
  194DOPC    C223962   3.019  -0.125  13.617 -0.0890 -0.0850 -0.3347
  194DOPC    HS23963   3.111  -0.121  13.555 -0.7238  0.6666 -1.2487
  194DOPC   O2123964   3.005  -0.257  13.671 -0.0762  0.4340  0.0693
  194DOPC   C2123965   3.118  -0.310  13.721  0.5300  0.0597  0.7418
  194DOPC   O2223966   3.230  -0.272  13.692 -0.6024  0.1359 -0.0749
  194DOPC   C2223967   3.075  -0.419  13.819  0.7863 -0.3654  0.0792
  194DOPC   H2R23968   3.019  -0.496  13.761 -0.0284  1.1204 -1.1932
  194DOPC   H2S23969   2.998  -0.387  13.892  1.0603  1.5465 -0.4213
  194DOPC    C323970   3.025  -0.018  13.722 -0.1847  0.9998 -0.5995
  194DOPC    HX23971   3.114  -0.011  13.789  0.3388 -2.9794 -0.6392
  194DOPC    HY23972   2.952  -0.053  13.798  1.5197 -0.3617  0.4788
  194DOPC   O3123973   2.992   0.112  13.672  0.6831  0.0874 -0.1543
  194DOPC   C3123974   3.084   0.207  13.681  0.5730 -0.1938  0.1892
  194DOPC   O3223975   3.198   0.189  13.711  0.5878 -0.1469 -0.6477
  194DOPC   C3223976   3.026   0.348  13.647  0.1591 -0.0113  0.7120
  194DOPC   H2X23977   3.076   0.386  13.555 -0.5362  0.6425  0.5913
  194DOPC   H2Y23978   2.920   0.339  13.615  0.8695 -0.2741 -1.7983
  194DOPC   C2323979   3.192  -0.464  13.900  0.2978 -0.0365 -0.3692
  194DOPC   H3R23980   3.278  -0.488  13.834  0.3274 -3.4965  0.7549
  194DOPC   H3S23981   3.172  -0.565  13.940  0.6654 -0.6700 -1.7334
  194DOPC   C2423982   3.228  -0.372  14.022  0.1385 -0.1244 -0.6770
  194DOPC   H4R23983   3.142  -0.377  14.091  0.9179 -0.9250  0.2637
  194DOPC   H4S23984   3.242  -0.267  13.988  0.0010  0.1407  0.0630
  194DOPC   C2523985   3.341  -0.422  14.107  0.4751 -0.5798  0.1824
  194DOPC   H5R23986   3.435  -0.430  14.047  0.7787  0.0087  0.5650
  194DOPC   H5S23987   3.329  -0.527  14.141 -0.6174 -0.2830  0.7496
  194DOPC   C2623988   3.373  -0.339  14.234  0.4632 -0.6468 -0.3021
  194DOPC   H6R23989   3.282  -0.331  14.296  0.1597  2.2245 -0.9314
  194DOPC   H6S23990   3.407  -0.240  14.196  3.2738 -1.1906  0.5678
  194DOPC   C2723991   3.490  -0.394  14.311  0.1820  0.1035 -0.9450
  194DOPC   H7R23992   3.581  -0.394  14.246  1.2567  2.4340  0.4190
  194DOPC   H7S23993   3.471  -0.496  14.352  1.4107  1.1735  2.6433
  194DOPC   C2823994   3.538  -0.310  14.430 -0.0139 -0.3608  1.1578
  194DOPC   H8R23995   3.559  -0.211  14.384  0.5414 -1.6282 -1.5378
  194DOPC   H8S23996   3.632  -0.359  14.463 -0.3205 -1.4324  0.4901
  194DOPC   C2923997   3.440  -0.302  14.540  0.3124  0.1495 -0.1683
  194DOPC   H9R23998   3.434  -0.402  14.586 -0.3574 -0.1106 -0.8099
  194DOPC  C21023999   3.385  -0.192  14.592  0.6700  0.0527  0.3715
  194DOPC  H10R24000   3.316  -0.203  14.677  1.1348  1.8692  1.0287
  194DOPC  C21124001   3.411  -0.047  14.552 -0.9413 -0.1975  0.1941
  194DOPC  H11R24002   3.447  -0.032  14.448 -0.5514  1.4485  0.5359
  194DOPC  H11S24003   3.498  -0.018  14.614  0.5291  0.4499 -2.0474
  194DOPC  C21224004   3.296   0.050  14.568 -0.0864 -0.2893  0.2021
  194DOPC  H12R24005   3.201   0.025  14.516  1.6082 -1.5547 -2.4516
  194DOPC  H12S24006   3.319   0.150  14.525 -2.1872  1.2037  2.2779
  194DOPC  C21324007   3.262   0.066  14.713  0.6293 -0.4610  0.3169
  194DOPC  H13R24008   3.232  -0.022  14.773  0.7254  0.1144  1.2275
  194DOPC  H13S24009   3.169   0.127  14.709  0.0732 -1.2849  0.4299
  194DOPC  C21424010   3.365   0.149  14.792  0.2641  0.6848  0.3359
  194DOPC  H14R24011   3.416   0.218  14.721  1.4656 -1.3933 -0.8979
  194DOPC  H14S24012   3.449   0.086  14.828  0.6242  0.7190 -0.4419
  194DOPC  C21524013   3.324   0.225  14.918 -0.0238 -0.6203 -0.6765
  194DOPC  H15R24014   3.275   0.155  14.988 -1.9132  0.3362 -0.9773
  194DOPC  H15S24015   3.245   0.300  14.894 -0.0302 -0.6900 -0.8772
  194DOPC  C21624016   3.437   0.302  14.984 -0.5784 -0.0777  0.0909
  194DOPC  H16R24017   3.475   0.369  14.904  1.4628 -0.6415  0.5204
  194DOPC  H16S24018   3.514   0.229  15.015  0.2493  0.4907 -0.5861
  194DOPC  C21724019   3.386   0.373  15.113  0.2961  0.2106 -0.4395
  194DOPC  H17R24020   3.350   0.296  15.185  0.7371 -0.1203 -0.5738
  194DOPC  H17S24021   3.291   0.427  15.090 -0.0091 -0.4994 -0.8716
  194DOPC  C21824022   3.480   0.466  15.185  0.0219  0.2121  0.2456
  194DOPC  H18R24023   3.514   0.546  15.116  1.1171 -0.2447  0.2391
  194DOPC  H18S24024   3.569   0.412  15.225 -1.9126 -0.8335  3.5771
  194DOPC  H18T24025   3.434   0.505  15.279 -0.3249  0.7294 -0.1376
  194DOPC   C3324026   3.025   0.445  13.769 -0.8253  0.7144 -0.0529
  194DOPC   H3X24027   2.982   0.541  13.732 -1.3249  0.3437 -0.4438
  194DOPC   H3Y24028   3.123   0.452  13.820 -0.5078 -0.9150 -0.3786
  194DOPC   C3424029   2.927   0.389  13.873 -0.2557 -0.0371  0.6456
  194DOPC   H4X24030   2.986   0.306  13.918  2.2744 -0.8072 -3.5618
  194DOPC   H4Y24031   2.838   0.350  13.820  0.7459 -2.0518  0.3764
  194DOPC   C3524032   2.876   0.494  13.973 -0.0104 -0.0120  0.1142
  194DOPC   H5X24033   2.815   0.568  13.917  2.9596  2.7566  0.2841
  194DOPC   H5Y24034   2.963   0.551  14.011 -1.8075  0.7561  3.4177
  194DOPC   C3624035   2.802   0.432  14.094 -0.0942  0.2204 -0.4344
  194DOPC   H6X24036   2.769   0.520  14.153  1.2387  0.9094 -0.6731
  194DOPC   H6Y24037   2.713   0.380  14.054  0.4216  0.3196 -1.7607
  194DOPC   C3724038   2.890   0.337  14.181  0.0550 -0.0457  0.9282
  194DOPC   H7X24039   2.881   0.235  14.138  0.7860  1.2270 -2.5698
  194DOPC   H7Y24040   2.992   0.377  14.162 -0.7482  0.8464 -2.0353
  194DOPC   C3824041   2.873   0.332  14.327 -0.2077 -0.1973 -0.0241
  194DOPC   H8X24042   2.897   0.439  14.349 -0.0239  0.4601 -2.9940
  194DOPC   H8Y24043   2.952   0.270  14.374 -0.0640  1.7559  2.5131
  194DOPC   C3924044   2.730   0.293  14.369  0.1367  0.0490 -0.3484
  194DOPC   H9X24045   2.653   0.330  14.300  0.4048 -0.0772 -0.7169
  194DOPC  C31024046   2.695   0.221  14.477  0.6979  0.8603 -0.0139
  194DOPC  H10X24047   2.587   0.201  14.473  0.5211  1.9246 -1.7397
  194DOPC  C31124048   2.781   0.157  14.583  0.0342 -0.5186  0.6868
  194DOPC  H11X24049   2.872   0.126  14.528  0.2860 -0.1406  0.8881
  194DOPC  H11Y24050   2.730   0.075  14.639  0.3943 -1.1130  0.1581
  194DOPC  C31224051   2.827   0.254  14.696 -0.9570 -0.5581 -0.4047
  194DOPC  H12X24052   2.898   0.334  14.665  1.0884 -2.5073 -1.0783
  194DOPC  H12Y24053   2.890   0.198  14.769 -1.1083  0.1814  0.3077
  194DOPC  C31324054   2.718   0.310  14.784  0.6177 -0.0749 -0.8376
  194DOPC  H13X24055   2.666   0.388  14.726  0.6735  0.5292 -0.0861
  194DOPC  H13Y24056   2.646   0.230  14.814 -0.5095  1.1542 -0.1713
  194DOPC  C31424057   2.779   0.386  14.907 -0.2249  0.7808  0.2298
  194DOPC  H14X24058   2.804   0.311  14.985 -1.6871  0.1059  0.0963
  194DOPC  H14Y24059   2.865   0.453  14.888 -0.1105  0.0971 -1.8994
  194DOPC  C31524060   2.675   0.483  14.975 -0.2413 -0.4121 -0.5491
  194DOPC  H15X24061   2.603   0.412  15.020  1.3015 -1.7206 -0.0658
  194DOPC  H15Y24062   2.642   0.553  14.896  3.1814 -0.6570 -2.4099
  194DOPC  C31624063   2.731   0.566  15.096  0.1702 -0.9511  0.7755
  194DOPC  H16X24064   2.796   0.641  15.046 -0.1725 -1.0539  0.1627
  194DOPC  H16Y24065   2.648   0.632  15.132  1.7935  3.4209 -2.5173
  194DOPC  C31724066   2.799   0.480  15.204  0.1202 -0.2128 -0.0441
  194DOPC  H17X24067   2.903   0.453  15.175  0.2811  0.8252 -0.4782
  194DOPC  H17Y24068   2.812   0.549  15.290 -0.7031 -1.3628  1.0340
  194DOPC  C31824069   2.707   0.360  15.243  0.1231  0.5065 -0.0381
  194DOPC  H18X24070   2.747   0.286  15.317  0.1381  0.3335 -0.2195
  194DOPC  H18Y24071   2.609   0.398  15.279  0.2249 -1.5135  2.7351
  194DOPC  H18Z24072   2.686   0.294  15.156 -0.3387  0.6229 -0.0177
  195DOPC     N24073   6.179   6.127  12.799  0.0163  0.1476  0.5574
  195DOPC   C1224074   6.233   6.088  12.939  0.3536 -0.0055 -0.9049
  195DOPC  H12A24075   6.307   6.161  12.968  0.3281 -0.7210  1.1209
  195DOPC  H12B24076   6.288   5.996  12.939 -0.2157 -0.4443  2.1637
  195DOPC   C1324077   6.067   6.042  12.756  0.9456  0.7586 -0.2008
  195DOPC  H13A24078   6.106   5.943  12.737 -0.3705  0.5752 -2.2415
  195DOPC  H13B24079   5.995   6.037  12.837  2.6085 -0.1086  1.2951
  195DOPC  H13C24080   6.021   6.064  12.661  0.4745  1.5463  0.2010
  195DOPC   C1424081   6.297   6.130  12.704 -0.0468 -0.0244  0.6039
  195DOPC  H14A24082   6.375   6.200  12.731 -0.6045  0.7025  0.3916
  195DOPC  H14B24083   6.343   6.034  12.687 -0.0880  0.1493 -0.5874
  195DOPC  H14C24084   6.265   6.167  12.608  0.6235 -2.5807 -0.6895
  195DOPC   C1524085   6.118   6.265  12.801  0.2578 -0.6287 -0.4230
  195DOPC  H15A24086   6.074   6.292  12.706  0.0771  0.4897 -0.0274
  195DOPC  H15B24087   6.196   6.337  12.821  0.4268 -0.5557 -1.2994
  195DOPC  H15C24088   6.038   6.272  12.873  1.3690 -0.6402  0.8552
  195DOPC   C1124089   6.126   6.076  13.051 -0.9450 -0.4840  0.3860
  195DOPC  H11A24090   6.166   6.091  13.154 -3.2789 -2.1344  1.6352
  195DOPC  H11B24091   6.064   6.169  13.051 -0.2576 -0.0048  1.3121
  195DOPC     P24092   6.089   5.824  13.047 -0.5396  0.5004 -0.2515
  195DOPC   O1324093   6.202   5.799  12.954  0.1177 -0.1995 -0.2330
  195DOPC   O1424094   5.981   5.733  13.020  0.0536  0.3583  0.3111
  195DOPC   O1224095   6.033   5.966  13.037  0.2408 -0.0129  0.0637
  195DOPC   O1124096   6.129   5.822  13.196  0.0094  0.4029  0.9078
  195DOPC    C124097   6.052   5.843  13.309 -0.2251 -0.2773 -0.1969
  195DOPC    HA24098   6.035   5.743  13.356 -1.2902 -0.0050  0.0286
  195DOPC    HB24099   5.953   5.883  13.279  0.0163 -0.4858 -1.3096
  195DOPC    C224100   6.115   5.950  13.398  0.4133 -0.5005  0.6609
  195DOPC    HS24101   6.113   6.044  13.340 -2.1600 -0.6869  0.3373
  195DOPC   O2124102   6.259   5.911  13.416  0.0559  0.5550  0.8219
  195DOPC   C2124103   6.340   6.008  13.458 -0.8186 -0.1689 -0.0892
  195DOPC   O2224104   6.317   6.129  13.456 -0.4160  0.0908  0.0016
  195DOPC   C2224105   6.459   5.934  13.506 -0.2321  0.1552 -0.3274
  195DOPC   H2R24106   6.539   5.923  13.430  1.2176  0.4947  1.0969
  195DOPC   H2S24107   6.434   5.834  13.548  2.5265 -0.7396 -0.6244
  195DOPC    C324108   6.043   5.987  13.528 -0.7679  0.3144  0.0070
  195DOPC    HX24109   5.954   6.048  13.498 -0.7685  1.1117  1.5687
  195DOPC    HY24110   6.117   6.048  13.584 -1.9100  0.6929  1.1534
  195DOPC   O3124111   6.010   5.868  13.600  0.3674  0.3008 -0.1220
  195DOPC   C3124112   6.080   5.834  13.708  0.6214 -0.6217  0.4936
  195DOPC   O3224113   6.174   5.902  13.751  0.7383  0.2433 -0.3082
  195DOPC   C3224114   6.023   5.705  13.768 -0.0397 -0.4700  0.0074
  195DOPC   H2X24115   5.919   5.732  13.798  0.1288 -1.4198  1.5411
  195DOPC   H2Y24116   6.020   5.631  13.684  0.8087 -1.3467  0.7256
  195DOPC   C2324117   6.536   6.016  13.621 -0.5019  0.0588 -0.1389
  195DOPC   H3R24118   6.576   6.113  13.585 -0.6066  0.6037  1.1888
  195DOPC   H3S24119   6.632   5.973  13.656 -1.3585 -1.5368  0.3276
  195DOPC   C2424120   6.451   6.043  13.753 -0.8301 -0.1263 -0.4527
  195DOPC   H4R24121   6.414   5.946  13.792 -2.0313  0.6675  0.4480
  195DOPC   H4S24122   6.365   6.113  13.745 -0.1160  1.1188  1.7539
  195DOPC   C2524123   6.537   6.088  13.871 -0.4072  0.0915  0.1493
  195DOPC   H5R24124   6.596   6.179  13.846  0.7851 -1.0133 -1.2368
  195DOPC   H5S24125   6.610   6.007  13.889 -0.2841  0.2745  0.4922
  195DOPC   C2624126   6.448   6.118  13.990  0.2201 -0.7513  0.6301
  195DOPC   H6R24127   6.362   6.051  14.014 -0.0151  0.1864  2.5755
  195DOPC   H6S24128   6.400   6.214  13.963  0.5753 -0.8439 -0.3870
  195DOPC   C2724129   6.528   6.154  14.125 -0.3266 -0.3523  0.4587
  195DOPC   H7R24130   6.611   6.223  14.098  0.1842  1.0411  4.7868
  195DOPC   H7S24131   6.574   6.060  14.160  0.5562  1.1972  3.8899
  195DOPC   C2824132   6.449   6.223  14.235 -0.0409 -0.2692 -0.3362
  195DOPC   H8R24133   6.416   6.324  14.202  1.4518  0.3286 -0.0755
  195DOPC   H8S24134   6.521   6.231  14.319  0.2826 -1.8349 -0.4492
  195DOPC   C2924135   6.323   6.144  14.268  0.4637  0.3088  0.3511
  195DOPC   H9R24136   6.256   6.149  14.181 -0.4621  0.5893  1.0618
  195DOPC  C21024137   6.289   6.085  14.383  0.8787  0.8442 -0.6239
  195DOPC  H10R24138   6.197   6.025  14.392  2.5911 -1.9400 -0.3274
  195DOPC  C21124139   6.376   6.077  14.508 -0.2417  0.5323  0.8426
  195DOPC  H11R24140   6.353   6.159  14.579  1.3393  0.5788  1.3471
  195DOPC  H11S24141   6.482   6.095  14.479  0.3922 -1.0019  2.0934
  195DOPC  C21224142   6.373   5.944  14.576  0.1052  0.0028 -0.4407
  195DOPC  H12R24143   6.433   5.872  14.516 -1.1430 -0.8271 -0.7269
  195DOPC  H12S24144   6.270   5.904  14.587  0.0920 -0.0967 -0.9003
  195DOPC  C21324145   6.428   5.968  14.721  0.1814 -0.2617 -0.1566
  195DOPC  H13R24146   6.364   6.030  14.788 -0.5874 -2.9865  1.8276
  195DOPC  H13S24147   6.527   6.018  14.711 -0.1417  0.6377  0.9002
  195DOPC  C21424148   6.444   5.833  14.792 -0.2369  0.2923 -0.4543
  195DOPC  H14R24149   6.497   5.767  14.720 -0.5856 -0.9984  0.4472
  195DOPC  H14S24150   6.344   5.788  14.806  0.2145 -1.1323 -1.6017
  195DOPC  C21524151   6.517   5.833  14.932 -0.1949 -0.0440 -0.3182
  195DOPC  H15R24152   6.504   5.730  14.971 -0.2467 -0.5958 -1.7114
  195DOPC  H15S24153   6.469   5.910  14.997 -0.5925 -0.3777 -0.2158
  195DOPC  C21624154   6.662   5.879  14.924  0.5035  0.1461 -0.5040
  195DOPC  H16R24155   6.661   5.988  14.902 -1.5617  0.3842  0.5144
  195DOPC  H16S24156   6.708   5.819  14.842 -0.2020 -0.6889 -0.3046
  195DOPC  C21724157   6.730   5.863  15.056  0.0318 -0.0649 -0.1184
  195DOPC  H17R24158   6.737   5.756  15.086  1.6709  0.0502  0.0193
  195DOPC  H17S24159   6.686   5.927  15.135  0.6588  0.0617  0.1321
  195DOPC  C21824160   6.870   5.919  15.042 -0.1023  0.2009  0.1329
  195DOPC  H18R24161   6.868   6.020  14.997 -2.8215 -0.6506 -1.8844
  195DOPC  H18S24162   6.938   5.856  14.981 -0.1925  1.4672 -1.3425
  195DOPC  H18T24163   6.919   5.918  15.142 -0.9015 -2.2862  0.5554
  195DOPC   C3324164   6.105   5.632  13.881  0.4565 -0.5319 -0.4513
  195DOPC   H3X24165   6.214   5.654  13.877  0.2733  0.4709 -0.0390
  195DOPC   H3Y24166   6.094   5.522  13.871  0.6342 -0.5362 -0.6150
  195DOPC   C3424167   6.042   5.656  14.022 -0.2018 -0.0717  0.1487
  195DOPC   H4X24168   6.089   5.586  14.094  2.0474 -0.4566 -1.5924
  195DOPC   H4Y24169   5.933   5.633  14.022  0.0881 -1.5711  1.0132
  195DOPC   C3524170   6.075   5.797  14.067 -0.7278 -0.3074 -0.9754
  195DOPC   H5X24171   6.026   5.870  13.999  0.4032  3.9805  2.2823
  195DOPC   H5Y24172   6.184   5.817  14.077 -0.8945  0.6327 -0.8864
  195DOPC   C3624173   6.020   5.843  14.207  0.2041 -0.1368  0.2556
  195DOPC   H6X24174   6.063   5.774  14.284 -1.9197 -0.1529  1.5131
  195DOPC   H6Y24175   6.046   5.951  14.212 -0.8931  0.2919 -2.0790
  195DOPC   C3724176   5.866   5.830  14.204  0.0282 -0.4031 -0.1712
  195DOPC   H7X24177   5.814   5.859  14.110  1.3241 -1.2232 -1.1800
  195DOPC   H7Y24178   5.850   5.720  14.215  2.8971 -0.7421  1.6497
  195DOPC   C3824179   5.795   5.895  14.326  1.2762 -0.4045 -0.5000
  195DOPC   H8X24180   5.832   5.835  14.412 -0.6967  2.0609  2.3091
  195DOPC   H8Y24181   5.686   5.877  14.326  0.9706  0.9415  2.1331
  195DOPC   C3924182   5.822   6.041  14.354 -0.2935 -0.4664  0.6717
  195DOPC   H9X24183   5.829   6.100  14.261  1.4565  2.3732  2.4671
  195DOPC  C31024184   5.820   6.109  14.467 -0.5624 -0.3276  0.5761
  195DOPC  H10X24185   5.844   6.216  14.452  2.0399 -1.1607 -2.1905
  195DOPC  C31124186   5.789   6.061  14.607  0.0226  0.0466  1.0798
  195DOPC  H11X24187   5.714   5.979  14.610  0.5560 -0.4733  0.5760
  195DOPC  H11Y24188   5.763   6.145  14.674  2.7055 -0.4405  2.9296
  195DOPC  C31224189   5.912   6.004  14.673 -0.8890  0.4123  0.5807
  195DOPC  H12X24190   6.000   6.072  14.670  1.3766 -2.2932  0.6719
  195DOPC  H12Y24191   5.937   5.906  14.627 -1.1813  0.9839 -0.8294
  195DOPC  C31324192   5.893   5.976  14.820 -0.3872 -0.1101 -0.0311
  195DOPC  H13X24193   5.817   6.042  14.869 -1.9528 -0.2480 -2.1338
  195DOPC  H13Y24194   5.844   5.877  14.831 -1.1038  0.1644 -0.6648
  195DOPC  C31424195   6.024   5.969  14.900  0.0684  0.6232 -0.1058
  195DOPC  H14X24196   6.086   5.900  14.838  0.3458 -0.1571  1.0159
  195DOPC  H14Y24197   6.074   6.068  14.894  1.4213 -0.0916 -2.4558
  195DOPC  C31524198   6.007   5.933  15.043  0.0182  0.4474 -0.2231
  195DOPC  H15X24199   5.935   6.006  15.086 -0.3038 -0.9436  1.7143
  195DOPC  H15Y24200   6.108   5.946  15.088 -0.2024  0.9949  0.1249
  195DOPC  C31624201   5.947   5.787  15.067 -0.4036 -0.0935  0.4124
  195DOPC  H16X24202   5.955   5.761  15.174 -0.8772  2.8006  1.2511
  195DOPC  H16Y24203   5.837   5.800  15.051 -0.4694 -0.6669  0.3901
  195DOPC  C31724204   6.004   5.680  14.979  0.8974 -0.9337 -0.1942
  195DOPC  H17X24205   5.972   5.692  14.874  0.5825  0.2403  0.0292
  195DOPC  H17Y24206   6.115   5.686  14.973  0.7793  0.6613 -1.2002
  195DOPC  C31824207   5.960   5.540  15.041 -0.2601 -0.4357  0.1946
  195DOPC  H18X24208   5.849   5.540  15.045 -0.2865  1.4375  0.4072
  195DOPC  H18Y24209   5.997   5.452  14.984  2.7529  0.7974  0.0556
  195DOPC  H18Z24210   6.010   5.532  15.139 -0.8264 -1.4795  0.4158
  196DOPC     N24211   1.581   1.280  13.266 -0.6715 -0.4136  0.1573
  196DOPC   C1224212   1.531   1.241  13.132  0.4711  0.3222  0.2693
  196DOPC  H12A24213   1.610   1.189  13.079  0.5710  2.2985 -1.6893
  196DOPC  H12B24214   1.501   1.327  13.073  0.3062  0.8424  1.1032
  196DOPC   C1324215   1.703   1.368  13.236  0.3442 -0.0959  0.2302
  196DOPC  H13A24216   1.740   1.431  13.316 -1.5213 -0.1107  1.1510
  196DOPC  H13B24217   1.788   1.311  13.202  0.2621  0.7512 -1.5293
  196DOPC  H13C24218   1.681   1.441  13.160 -0.8428 -0.0653  0.5847
  196DOPC   C1424219   1.616   1.172  13.358 -0.4819 -0.0678 -0.3171
  196DOPC  H14A24220   1.547   1.089  13.359  2.4020 -2.7305  2.0108
  196DOPC  H14B24221   1.708   1.121  13.333 -2.1132 -2.4378 -1.9435
  196DOPC  H14C24222   1.632   1.199  13.461  2.7850 -1.6273 -0.2751
  196DOPC   C1524223   1.484   1.370  13.334  0.3347 -0.0710 -0.4200
  196DOPC  H15A24224   1.445   1.438  13.260  0.4097  1.6049  1.0191
  196DOPC  H15B24225   1.519   1.408  13.429 -0.3771 -1.5422  0.4734
  196DOPC  H15C24226   1.400   1.314  13.375  0.2726  1.9511  2.5180
  196DOPC   C1124227   1.414   1.146  13.134  0.3930  0.4141 -0.2770
  196DOPC  H11A24228   1.324   1.182  13.188 -0.5526  0.7873 -2.0285
  196DOPC  H11B24229   1.374   1.132  13.031  0.2367 -1.8232  0.0323
  196DOPC     P24230   1.351   0.908  13.224 -0.0679  0.0846  0.0047
  196DOPC   O1324231   1.429   0.789  13.264  0.1401 -0.0238 -0.1353
  196DOPC   O1424232   1.255   0.888  13.110 -0.9733  0.2274  0.4475
  196DOPC   O1224233   1.457   1.015  13.180  0.2057  0.2922  0.5719
  196DOPC   O1124234   1.280   0.970  13.342 -0.2383  0.0297 -0.2231
  196DOPC    C124235   1.349   0.983  13.466  0.5492  0.2524  0.1210
  196DOPC    HA24236   1.362   1.092  13.478  1.6231  0.4142 -1.9671
  196DOPC    HB24237   1.453   0.943  13.469 -0.1881 -2.0799 -1.7202
  196DOPC    C224238   1.281   0.914  13.581  0.3555  0.3354 -0.0745
  196DOPC    HS24239   1.241   0.815  13.550 -0.7167  0.7166  0.0378
  196DOPC   O2124240   1.177   0.991  13.636 -0.0054 -0.0210 -0.1258
  196DOPC   C2124241   1.089   0.925  13.710  0.4863  0.4611  0.3172
  196DOPC   O2224242   1.093   0.805  13.735  0.2445 -0.1436 -0.0916
  196DOPC   C2224243   0.988   1.023  13.765  0.4543 -0.3184  0.0496
  196DOPC   H2R24244   0.947   1.073  13.675  0.6710 -0.0840  0.0798
  196DOPC   H2S24245   1.046   1.096  13.826 -1.4964 -0.1415  1.8183
  196DOPC    C324246   1.377   0.879  13.704 -0.2193 -1.0076 -0.2801
  196DOPC    HX24247   1.448   0.808  13.656 -0.9716 -1.4479 -0.7595
  196DOPC    HY24248   1.323   0.828  13.786  0.3091  1.2087  1.5244
  196DOPC   O3124249   1.447   0.988  13.762  0.2977  0.0296  0.1885
  196DOPC   C3124250   1.572   1.020  13.721 -1.0030  1.1865 -0.5836
  196DOPC   O3224251   1.627   0.953  13.638  0.1070 -0.4470  0.2803
  196DOPC   C3224252   1.628   1.137  13.801  0.0667  0.0918  0.4050
  196DOPC   H2X24253   1.723   1.166  13.752 -0.8390  4.3137  0.7686
  196DOPC   H2Y24254   1.548   1.214  13.808 -1.4582 -1.5427  1.9186
  196DOPC   C2324255   0.878   0.969  13.853 -0.3541  0.1419 -0.2523
  196DOPC   H3R24256   0.840   0.872  13.813 -0.0937 -0.0755  0.0215
  196DOPC   H3S24257   0.791   1.038  13.853 -0.6080 -0.1696 -1.0717
  196DOPC   C2424258   0.930   0.957  13.997  0.4224 -0.5786 -0.1279
  196DOPC   H4R24259   0.968   1.053  14.038  0.0590 -0.7178  0.5361
  196DOPC   H4S24260   1.004   0.875  14.008 -0.0654 -0.7711  2.3601
  196DOPC   C2524261   0.807   0.947  14.088 -0.6985  0.4812 -0.8782
  196DOPC   H5R24262   0.730   1.020  14.056 -0.5640  1.4248  0.8447
  196DOPC   H5S24263   0.829   0.961  14.196 -1.6135  0.1343 -0.6348
  196DOPC   C2624264   0.739   0.815  14.076  0.3061  0.9590  0.5135
  196DOPC   H6R24265   0.817   0.745  14.115 -0.1828 -1.1486 -1.9837
  196DOPC   H6S24266   0.703   0.785  13.975 -0.6979  0.1006  1.1114
  196DOPC   C2724267   0.607   0.801  14.153  0.1543 -0.5889  0.3078
  196DOPC   H7R24268   0.546   0.888  14.122  1.4998  0.9274  1.7312
  196DOPC   H7S24269   0.622   0.811  14.263 -0.7435 -0.7107  0.4505
  196DOPC   C2824270   0.522   0.680  14.118  0.0960  0.0067 -0.1530
  196DOPC   H8R24271   0.577   0.584  14.129  0.4091  0.2327  0.3046
  196DOPC   H8S24272   0.490   0.696  14.012  0.6175  1.5530 -0.1072
  196DOPC   C2924273   0.399   0.670  14.201 -0.8516 -0.6252  0.2916
  196DOPC   H9R24274   0.320   0.729  14.153 -0.1921 -0.5253 -0.6979
  196DOPC  C21024275   0.390   0.608  14.319 -0.1085 -0.0707 -0.9567
  196DOPC  H10R24276   0.292   0.597  14.369  1.1512  0.8847  1.9061
  196DOPC  C21124277   0.496   0.530  14.387  0.7338 -0.1184  0.3525
  196DOPC  H11R24278   0.593   0.575  14.357  0.1613  3.2520  2.9138
  196DOPC  H11S24279   0.495   0.423  14.359  2.1704 -0.2170  0.6043
  196DOPC  C21224280   0.501   0.532  14.542  0.6887  0.2018  1.4307
  196DOPC  H12R24281   0.419   0.473  14.588  0.9783 -0.8086  0.6919
  196DOPC  H12S24282   0.499   0.637  14.580 -0.8376  0.8745 -0.3173
  196DOPC  C21324283   0.631   0.474  14.594  0.1096 -0.1097 -0.1286
  196DOPC  H13R24284   0.715   0.514  14.533 -0.0992  1.5479  0.6211
  196DOPC  H13S24285   0.634   0.365  14.570  1.3136  0.1192 -1.1657
  196DOPC  C21424286   0.659   0.512  14.737  0.0839  0.2751 -0.6372
  196DOPC  H14R24287   0.571   0.488  14.801  0.0388 -0.4515 -0.9542
  196DOPC  H14S24288   0.683   0.620  14.743 -1.7127  0.6455  0.4131
  196DOPC  C21524289   0.782   0.433  14.791 -0.1545 -0.2771 -0.6036
  196DOPC  H15R24290   0.870   0.486  14.749 -1.0715  0.5170 -1.5845
  196DOPC  H15S24291   0.775   0.328  14.755 -0.8563 -0.1703 -0.7963
  196DOPC  C21624292   0.806   0.445  14.943  0.5396 -0.0666 -0.8499
  196DOPC  H16R24293   0.911   0.415  14.966  0.7346  2.3942  2.0791
  196DOPC  H16S24294   0.741   0.373  14.998  0.0212 -0.0467 -1.4344
  196DOPC  C21724295   0.784   0.589  14.999  0.3551  0.5117 -0.1463
  196DOPC  H17R24296   0.680   0.621  14.981  0.3251 -0.1180 -1.1532
  196DOPC  H17S24297   0.846   0.669  14.952  1.1262  1.6917  2.6411
  196DOPC  C21824298   0.823   0.591  15.152  0.8847  0.1034  0.5429
  196DOPC  H18R24299   0.808   0.694  15.192 -0.6249  0.1607 -0.1129
  196DOPC  H18S24300   0.931   0.571  15.170  0.5628 -0.5290  1.9624
  196DOPC  H18T24301   0.768   0.509  15.204  0.9774 -0.9834 -1.0093
  196DOPC   C3324302   1.678   1.101  13.945 -0.7106 -0.2716 -0.2545
  196DOPC   H3X24303   1.749   1.017  13.929 -0.1240  0.1939 -0.1034
  196DOPC   H3Y24304   1.591   1.069  14.006  0.3811 -0.5990  1.1814
  196DOPC   C3424305   1.746   1.213  14.020  0.1350 -0.0502  0.2313
  196DOPC   H4X24306   1.677   1.299  14.008 -1.7497 -1.7332 -1.7977
  196DOPC   H4Y24307   1.837   1.247  13.965 -1.1413  1.7330 -0.8806
  196DOPC   C3524308   1.782   1.176  14.163  0.1616  0.0552 -0.2743
  196DOPC   H5X24309   1.815   1.273  14.205  1.5254 -0.9276  1.0235
  196DOPC   H5Y24310   1.870   1.108  14.163  0.5065  0.4791  0.9597
  196DOPC   C3624311   1.679   1.109  14.260 -0.5039  0.2802  0.0311
  196DOPC   H6X24312   1.593   1.178  14.278 -0.0578  0.7451  0.3943
  196DOPC   H6Y24313   1.635   1.018  14.214 -0.5890  1.5429 -2.6005
  196DOPC   C3724314   1.737   1.069  14.396 -0.6027  0.1423  0.0146
  196DOPC   H7X24315   1.662   1.007  14.449 -0.7555  0.2170 -0.1101
  196DOPC   H7Y24316   1.828   1.007  14.384  1.1376  2.3614  0.8431
  196DOPC   C3824317   1.770   1.188  14.487  0.0963 -0.3376  0.3741
  196DOPC   H8X24318   1.863   1.229  14.442 -0.8693  1.9169  0.3339
  196DOPC   H8Y24319   1.802   1.156  14.588 -2.2222  2.2214  2.0403
  196DOPC   C3924320   1.666   1.302  14.489 -0.3950 -0.0043  0.4920
  196DOPC   H9X24321   1.676   1.378  14.410 -0.5416  0.4282  0.8878
  196DOPC  C31024322   1.590   1.338  14.588  0.9703 -0.7390  0.1848
  196DOPC  H10X24323   1.527   1.426  14.570  0.4537 -0.8583  1.3188
  196DOPC  C31124324   1.567   1.281  14.724  1.0967  0.3938 -0.1252
  196DOPC  H11X24325   1.649   1.213  14.756 -0.2969 -0.6010  1.4913
  196DOPC  H11Y24326   1.476   1.218  14.716  2.2571 -1.2063 -2.3744
  196DOPC  C31224327   1.564   1.381  14.840  0.3073  0.9276 -0.9050
  196DOPC  H12X24328   1.496   1.463  14.810  1.2686  2.7052  1.4624
  196DOPC  H12Y24329   1.672   1.405  14.842  0.9517 -1.5893  2.1495
  196DOPC  C31324330   1.533   1.316  14.974 -0.3933  0.7732  0.1133
  196DOPC  H13X24331   1.443   1.251  14.975 -0.3032  0.6533  0.9999
  196DOPC  H13Y24332   1.605   1.233  14.990  0.7657  1.7882  0.3625
  196DOPC  C31424333   1.531   1.413  15.093 -0.2229 -0.3009 -0.1545
  196DOPC  H14X24334   1.517   1.353  15.186  0.6578 -2.2640 -1.2350
  196DOPC  H14Y24335   1.626   1.471  15.095 -0.0781 -0.5482  0.4019
  196DOPC  C31524336   1.416   1.513  15.086  0.3626 -0.5065 -0.0974
  196DOPC  H15X24337   1.315   1.470  15.103 -0.3450  1.3177  0.5899
  196DOPC  H15Y24338   1.417   1.561  14.985 -1.8263 -2.8722 -1.3450
  196DOPC  C31624339   1.420   1.624  15.195  0.0003 -0.4096 -0.2657
  196DOPC  H16X24340   1.521   1.669  15.194  0.9078 -2.1679  1.8660
  196DOPC  H16Y24341   1.353   1.709  15.170  3.1296  2.3708  0.0732
  196DOPC  C31724342   1.386   1.575  15.332 -0.3114 -0.0539 -0.0240
  196DOPC  H17X24343   1.449   1.484  15.341  0.0419  0.1313 -0.5722
  196DOPC  H17Y24344   1.409   1.650  15.410 -0.8625 -0.2264  0.3140
  196DOPC  C31824345   1.246   1.526  15.357  0.2701 -0.0632 -0.1471
  196DOPC  H18X24346   1.178   1.614  15.357 -1.3174 -1.2413 -0.2761
  196DOPC  H18Y24347   1.207   1.471  15.269 -1.3216  1.5207 -0.4994
  196DOPC  H18Z24348   1.225   1.457  15.441  0.0590 -0.3074 -0.3999
  197DOPC     N24349   2.614   6.794  12.778 -0.1323 -0.8798  0.5097
  197DOPC   C1224350   2.516   6.900  12.831 -0.0928  0.0714  0.5466
  197DOPC  H12A24351   2.421   6.852  12.851 -0.4169  1.3314  2.1863
  197DOPC  H12B24352   2.497   6.970  12.751  2.8306 -0.2866 -0.5564
  197DOPC   C1324353   2.743   6.853  12.746 -0.0593 -0.4395 -0.6561
  197DOPC  H13A24354   2.803   6.787  12.685 -1.5736 -4.3893  1.7296
  197DOPC  H13B24355   2.737   6.949  12.697  0.5281 -0.4778 -0.8095
  197DOPC  H13C24356   2.799   6.871  12.837 -2.2007  2.0018  0.3059
  197DOPC   C1424357   2.560   6.747  12.646 -0.8548 -0.1329 -0.0170
  197DOPC  H14A24358   2.458   6.713  12.654 -1.4466  1.6143  0.3149
  197DOPC  H14B24359   2.559   6.819  12.565  2.3892 -1.6522 -1.5849
  197DOPC  H14C24360   2.616   6.662  12.610 -0.5777 -0.2397  0.6464
  197DOPC   C1524361   2.624   6.667  12.858  0.1964 -0.0137 -0.0911
  197DOPC  H15A24362   2.665   6.671  12.957 -3.8128 -1.6575  1.8361
  197DOPC  H15B24363   2.686   6.598  12.803 -1.0697 -1.1311 -0.1570
  197DOPC  H15C24364   2.531   6.613  12.869  1.0056 -1.4303 -0.0345
  197DOPC   C1124365   2.554   6.971  12.960 -0.1267 -0.2129  0.1185
  197DOPC  H11A24366   2.656   7.014  12.958 -1.2198  2.6214  0.7970
  197DOPC  H11B24367   2.490   7.062  12.965 -0.7864 -0.6596 -0.0689
  197DOPC     P24368   2.383   6.860  13.122 -0.6510  0.1952  0.1642
  197DOPC   O1324369   2.385   6.769  13.237 -0.0485 -0.0941  0.3782
  197DOPC   O1424370   2.297   6.816  13.011 -0.4394  0.1230  0.4969
  197DOPC   O1224371   2.536   6.886  13.076  0.1573  0.0426 -0.1555
  197DOPC   O1124372   2.333   7.002  13.167  0.3043  0.2035 -0.4826
  197DOPC    C124373   2.402   7.088  13.261 -0.5783 -0.3377 -0.7269
  197DOPC    HA24374   2.401   7.191  13.220  1.5052  0.1775  0.3911
  197DOPC    HB24375   2.512   7.074  13.266 -0.0226  2.6153 -2.5178
  197DOPC    C224376   2.352   7.070  13.403 -0.6013 -0.1016  0.5933
  197DOPC    HS24377   2.336   6.961  13.420 -1.1815 -0.3669 -1.3860
  197DOPC   O2124378   2.230   7.141  13.409 -0.3958  0.2507 -0.6600
  197DOPC   C2124379   2.160   7.108  13.511 -0.7709 -0.0660  0.0430
  197DOPC   O2224380   2.179   7.016  13.589  0.4042 -0.2577 -0.3419
  197DOPC   C2224381   2.035   7.201  13.516 -0.5157 -0.8488 -0.2565
  197DOPC   H2R24382   1.961   7.162  13.443  1.5767 -1.5872 -2.0992
  197DOPC   H2S24383   2.056   7.309  13.500 -2.4139  0.0129  2.2770
  197DOPC    C324384   2.461   7.131  13.498  0.3802  0.2570 -0.0173
  197DOPC    HX24385   2.468   7.237  13.463  2.0859 -0.0028 -0.5715
  197DOPC    HY24386   2.563   7.089  13.483  1.0573  1.9292 -0.3734
  197DOPC   O3124387   2.433   7.124  13.638 -0.6921 -0.4146  0.1963
  197DOPC   C3124388   2.477   7.018  13.696  0.2884 -0.3049  0.3463
  197DOPC   O3224389   2.510   6.913  13.640  0.1464 -0.2078  0.3470
  197DOPC   C3224390   2.440   7.028  13.847 -0.2171 -0.5316  0.5371
  197DOPC   H2X24391   2.450   7.136  13.869 -2.3006 -0.2213  0.1237
  197DOPC   H2Y24392   2.330   7.011  13.855 -0.2913  0.2281  1.3565
  197DOPC   C2324393   1.973   7.203  13.661 -0.0790  0.4017  0.1416
  197DOPC   H3R24394   1.920   7.299  13.679 -0.8687 -0.0613  0.3134
  197DOPC   H3S24395   2.044   7.203  13.747  0.0331  1.1105  0.0543
  197DOPC   C2424396   1.875   7.084  13.677 -0.2067  0.2896 -0.2997
  197DOPC   H4R24397   1.929   6.987  13.684  1.0747  0.9553 -0.8007
  197DOPC   H4S24398   1.818   7.070  13.583 -1.7057 -0.9702  0.7260
  197DOPC   C2524399   1.756   7.100  13.769  0.2869  0.1099  0.5085
  197DOPC   H5R24400   1.689   7.172  13.716  3.5698  3.1289  0.0373
  197DOPC   H5S24401   1.796   7.156  13.856 -0.4376  0.8321  0.3950
  197DOPC   C2624402   1.679   6.970  13.798 -0.3909 -0.4300 -0.0339
  197DOPC   H6R24403   1.763   6.909  13.838  1.0251  1.7501  0.4995
  197DOPC   H6S24404   1.637   6.912  13.713 -1.1146 -3.4123  2.1903
  197DOPC   C2724405   1.567   7.020  13.888 -0.3404 -0.4077  0.4141
  197DOPC   H7R24406   1.505   7.085  13.823  0.9119  1.1093  0.6907
  197DOPC   H7S24407   1.608   7.096  13.957 -1.4262  2.5796 -1.9972
  197DOPC   C2824408   1.490   6.907  13.953 -0.3031  0.0377 -0.7895
  197DOPC   H8R24409   1.456   6.831  13.880 -1.1354 -2.0163  1.6127
  197DOPC   H8S24410   1.397   6.948  13.998 -0.6474  2.2019 -3.2806
  197DOPC   C2924411   1.582   6.851  14.061  0.2380 -0.1437  0.0706
  197DOPC   H9R24412   1.634   6.767  14.014  0.2943  0.3301 -0.7302
  197DOPC  C21024413   1.580   6.882  14.189  0.3690  0.0826 -0.1849
  197DOPC  H10R24414   1.642   6.829  14.263 -0.0021  0.8802  0.7154
  197DOPC  C21124415   1.486   6.982  14.257  0.2952  0.1383  0.2481
  197DOPC  H11R24416   1.383   6.961  14.221  1.3032 -2.3233 -1.4777
  197DOPC  H11S24417   1.522   7.082  14.225  0.6091 -0.4776 -1.4354
  197DOPC  C21224418   1.499   6.971  14.409  0.2242 -0.5335  0.1133
  197DOPC  H12R24419   1.445   7.062  14.442  0.1031  0.3845 -2.3664
  197DOPC  H12S24420   1.606   6.976  14.440 -0.2612  1.6042  1.7299
  197DOPC  C21324421   1.427   6.845  14.456 -0.7099 -0.4112  0.1855
  197DOPC  H13R24422   1.497   6.762  14.433  0.6954  0.9059 -0.5923
  197DOPC  H13S24423   1.335   6.829  14.397 -2.1452  0.2117  2.1608
  197DOPC  C21424424   1.376   6.848  14.599 -0.0601 -0.6548  0.2386
  197DOPC  H14R24425   1.338   6.744  14.611  0.7112 -0.9089  0.5588
  197DOPC  H14S24426   1.283   6.909  14.604  0.0145 -0.4911 -0.3358
  197DOPC  C21524427   1.479   6.884  14.707  0.0329  0.6336 -0.6376
  197DOPC  H15R24428   1.481   6.995  14.707 -1.3244  0.6821 -0.0921
  197DOPC  H15S24429   1.573   6.831  14.681 -0.1087  0.3539 -0.5837
  197DOPC  C21624430   1.434   6.849  14.855  0.1808 -0.2859  0.2148
  197DOPC  H16R24431   1.348   6.914  14.883  0.3158 -0.5500  1.2652
  197DOPC  H16S24432   1.517   6.874  14.924 -2.0373  0.2079  2.9064
  197DOPC  C21724433   1.382   6.706  14.868  0.0138 -0.9604 -0.0482
  197DOPC  H17R24434   1.463   6.637  14.832  0.7320 -0.0260 -0.2612
  197DOPC  H17S24435   1.301   6.691  14.794  0.0471 -3.8794  0.3829
  197DOPC  C21824436   1.341   6.655  15.008  0.2886 -0.3775  0.1143
  197DOPC  H18R24437   1.280   6.562  15.010 -1.1316  0.5277 -0.3562
  197DOPC  H18S24438   1.280   6.727  15.066  0.8252 -1.0990  1.6163
  197DOPC  H18T24439   1.431   6.631  15.069 -0.3164  0.7896  1.5034
  197DOPC   C3324440   2.516   6.931  13.942  0.2435  1.0880  0.0334
  197DOPC   H3X24441   2.521   6.830  13.897 -1.3902  1.2116 -0.5205
  197DOPC   H3Y24442   2.450   6.934  14.032 -1.5692 -0.0541 -1.1801
  197DOPC   C3424443   2.649   6.986  13.982 -0.6204 -0.0377 -0.1206
  197DOPC   H4X24444   2.632   7.083  14.033 -0.3305 -0.3323  0.5416
  197DOPC   H4Y24445   2.703   7.014  13.888  0.2515  1.1601  0.6931
  197DOPC   C3524446   2.753   6.903  14.063 -0.0547 -0.1142 -0.9652
  197DOPC   H5X24447   2.779   6.805  14.018 -0.2496 -0.3343 -0.6052
  197DOPC   H5Y24448   2.707   6.868  14.158 -1.1053  0.9424 -1.0612
  197DOPC   C3624449   2.882   6.985  14.106  0.4751  0.7267 -0.1364
  197DOPC   H6X24450   2.951   6.902  14.131  0.0043  0.3848  0.0522
  197DOPC   H6Y24451   2.910   7.042  14.014  1.0828  0.3601 -0.1822
  197DOPC   C3724452   2.844   7.072  14.226 -0.7358 -0.0640 -0.5328
  197DOPC   H7X24453   2.899   7.169  14.217  0.3865 -0.6479 -0.1075
  197DOPC   H7Y24454   2.735   7.091  14.227 -1.0791 -1.6661  2.3095
  197DOPC   C3824455   2.885   7.013  14.357 -0.3978 -0.0002  0.0732
  197DOPC   H8X24456   2.991   6.979  14.355 -0.2916  0.3344 -1.2089
  197DOPC   H8Y24457   2.820   6.925  14.378 -3.5996  1.3360 -3.1716
  197DOPC   C3924458   2.872   7.108  14.470  0.3901 -0.1559 -0.1354
  197DOPC   H9X24459   2.767   7.131  14.495  0.9808  1.7205  0.8444
  197DOPC  C31024460   2.964   7.153  14.552 -0.3196  0.4407  0.1803
  197DOPC  H10X24461   2.934   7.227  14.628  0.7685 -0.1644  1.2440
  197DOPC  C31124462   3.106   7.122  14.550  0.0763 -0.0945 -0.2086
  197DOPC  H11X24463   3.157   7.216  14.579  0.6706 -1.3369  3.2014
  197DOPC  H11Y24464   3.135   7.108  14.444 -1.1133 -0.9774 -0.4406
  197DOPC  C31224465   3.159   7.008  14.637  0.3238  0.2052 -0.6301
  197DOPC  H12X24466   3.268   6.994  14.621  0.0618 -1.7866 -0.9210
  197DOPC  H12Y24467   3.110   6.913  14.605 -1.1719  1.3101 -1.7942
  197DOPC  C31324468   3.128   7.027  14.788 -0.9662 -0.0557  0.2859
  197DOPC  H13X24469   3.175   7.124  14.815  1.2713 -0.9196 -0.3474
  197DOPC  H13Y24470   3.017   7.039  14.795 -1.0754  0.0312 -1.2890
  197DOPC  C31424471   3.184   6.924  14.884 -0.8801  0.3360 -0.0450
  197DOPC  H14X24472   3.156   6.821  14.853 -2.9181  0.1066  2.2492
  197DOPC  H14Y24473   3.293   6.943  14.877 -0.6708  0.0608  2.0061
  197DOPC  C31524474   3.135   6.937  15.025 -0.0994  0.4430 -0.6744
  197DOPC  H15X24475   3.027   6.914  15.038  0.2567 -1.8050 -1.2594
  197DOPC  H15Y24476   3.152   7.040  15.063 -0.9175 -0.3370  2.0160
  197DOPC  C31624477   3.213   6.852  15.130 -0.0525  0.0914  0.1115
  197DOPC  H16X24478   3.322   6.855  15.108  0.1311 -0.3462  0.9337
  197DOPC  H16Y24479   3.197   6.905  15.227 -2.9972 -2.1377  0.9609
  197DOPC  C31724480   3.178   6.696  15.135  0.2965 -0.5954  0.6894
  197DOPC  H17X24481   3.069   6.674  15.128  0.0112  0.5711  1.1260
  197DOPC  H17Y24482   3.217   6.671  15.034  0.9478  2.1147  0.1800
  197DOPC  C31824483   3.226   6.614  15.253  0.5259  0.2854  0.7207
  197DOPC  H18X24484   3.184   6.652  15.349  0.4098 -0.1977  0.8629
  197DOPC  H18Y24485   3.195   6.508  15.246 -3.6226  1.4065 -4.8031
  197DOPC  H18Z24486   3.337   6.619  15.264  0.9541 -0.3549 -2.3245
  198DOPC     N24487   0.487   6.244  12.798  0.0192  0.7877  0.0741
  198DOPC   C1224488   0.489   6.319  12.935  0.8008 -0.0362 -0.5183
  198DOPC  H12A24489   0.387   6.349  12.954  0.8693 -0.9867  1.6770
  198DOPC  H12B24490   0.544   6.410  12.914 -1.6737  1.6542 -0.0588
  198DOPC   C1324491   0.397   6.317  12.715  0.0533 -0.3075  0.2980
  198DOPC  H13A24492   0.308   6.349  12.766  0.3367  2.4442 -0.7396
  198DOPC  H13B24493   0.441   6.407  12.674  0.0001 -1.0107 -1.3780
  198DOPC  H13C24494   0.365   6.264  12.626 -0.4323  0.4956 -0.0145
  198DOPC   C1424495   0.428   6.107  12.802  0.1258  0.9483 -0.1751
  198DOPC  H14A24496   0.327   6.110  12.841 -0.3446  1.8973 -1.4307
  198DOPC  H14B24497   0.430   6.064  12.703 -2.1204 -1.8041  0.8208
  198DOPC  H14C24498   0.479   6.055  12.882 -0.4262  0.9205  0.1626
  198DOPC   C1524499   0.627   6.233  12.734 -0.6021  0.3779 -0.5772
  198DOPC  H15A24500   0.643   6.174  12.645  2.1450 -0.7675  0.5656
  198DOPC  H15B24501   0.694   6.185  12.803 -1.3568  0.2328  0.0735
  198DOPC  H15C24502   0.671   6.331  12.720 -0.9767  1.0628  2.4091
  198DOPC   C1124503   0.542   6.246  13.061 -0.1269  0.0664  0.4874
  198DOPC  H11A24504   0.647   6.212  13.048 -0.4561 -1.8622  2.3389
  198DOPC  H11B24505   0.545   6.317  13.147  0.6299  0.3975  0.1989
  198DOPC     P24506   0.326   6.121  13.155  0.2008 -0.0596 -0.1105
  198DOPC   O1324507   0.277   5.989  13.128 -0.0133 -0.3645  0.1852
  198DOPC   O1424508   0.247   6.238  13.122 -0.0638  0.2928 -0.1649
  198DOPC   O1224509   0.466   6.126  13.085  0.0323  0.2131  0.1413
  198DOPC   O1124510   0.378   6.126  13.309  0.1705 -0.1738 -0.0614
  198DOPC    C124511   0.365   6.248  13.386  0.6105  0.6921  0.1544
  198DOPC    HA24512   0.326   6.337  13.330 -1.7480 -0.2960  0.1029
  198DOPC    HB24513   0.467   6.269  13.425  0.9750 -0.2502 -0.2647
  198DOPC    C224514   0.270   6.241  13.504 -0.1545  0.0962  0.5553
  198DOPC    HS24515   0.291   6.316  13.582 -0.8336  0.6200  0.2445
  198DOPC   O2124516   0.276   6.111  13.565 -0.0762 -0.3280 -0.0143
  198DOPC   C2124517   0.382   6.092  13.649  0.8632 -0.5093  0.7259
  198DOPC   O2224518   0.444   6.182  13.697 -0.1177  0.0385 -0.1472
  198DOPC   C2224519   0.416   5.942  13.651  0.9527  0.1799 -0.3412
  198DOPC   H2R24520   0.526   5.930  13.638  1.0353  1.9944 -1.7544
  198DOPC   H2S24521   0.373   5.895  13.560  0.0848  3.9157 -2.0603
  198DOPC    C324522   0.128   6.278  13.448 -0.8986  0.9298  0.4247
  198DOPC    HX24523   0.064   6.251  13.535 -0.4454  0.8648  0.7392
  198DOPC    HY24524   0.108   6.214  13.359  0.8401 -0.2626  0.8385
  198DOPC   O3124525   0.118   6.421  13.424 -0.3954 -0.3189  0.6495
  198DOPC   C3124526   0.036   6.453  13.325 -1.0245  0.5414 -0.0382
  198DOPC   O3224527  -0.026   6.377  13.255 -0.3599  0.5077  0.0429
  198DOPC   C3224528   0.021   6.608  13.316  0.2934 -0.3816  0.1478
  198DOPC   H2X24529   0.125   6.647  13.313  0.6356 -1.2743  0.1882
  198DOPC   H2Y24530  -0.033   6.641  13.225 -0.5796 -0.6909  0.5383
  198DOPC   C2324531   0.360   5.868  13.777 -0.2203 -0.0991  0.5151
  198DOPC   H3R24532   0.356   5.758  13.762 -1.9811  0.1012 -0.8586
  198DOPC   H3S24533   0.257   5.903  13.797 -0.6383 -1.9736  1.8193
  198DOPC   C2424534   0.442   5.901  13.898 -0.1820 -1.2746  0.3951
  198DOPC   H4R24535   0.448   6.007  13.927  1.8012 -2.0851  3.3310
  198DOPC   H4S24536   0.538   5.863  13.856 -1.3189 -2.1005 -1.6328
  198DOPC   C2524537   0.404   5.823  14.024  0.1541  0.2581 -0.2605
  198DOPC   H5R24538   0.391   5.719  13.988 -1.9201  0.8410 -1.3634
  198DOPC   H5S24539   0.308   5.854  14.072  0.1126 -0.9637  0.4926
  198DOPC   C2624540   0.514   5.831  14.132 -0.4457  1.0958  0.1377
  198DOPC   H6R24541   0.531   5.941  14.135  0.5441  0.9630 -0.3020
  198DOPC   H6S24542   0.607   5.780  14.098  1.2732  1.3037  3.9186
  198DOPC   C2724543   0.478   5.770  14.273 -0.0515  0.2947  0.0093
  198DOPC   H7R24544   0.395   5.828  14.318  0.2911 -0.0344  1.0948
  198DOPC   H7S24545   0.564   5.785  14.341 -0.1774  0.5258  0.1182
  198DOPC   C2824546   0.449   5.616  14.250  0.1310  0.3295  0.3024
  198DOPC   H8R24547   0.528   5.577  14.183 -0.6476  0.6863 -0.8454
  198DOPC   H8S24548   0.350   5.612  14.200  0.9983  2.4519 -1.7971
  198DOPC   C2924549   0.426   5.539  14.379 -0.3605  0.3278 -0.1139
  198DOPC   H9R24550   0.336   5.569  14.434 -0.3111 -0.0519  0.1806
  198DOPC  C21024551   0.500   5.440  14.427  0.6094  0.0456  0.1287
  198DOPC  H10R24552   0.462   5.406  14.524  1.4446  1.4616  0.9882
  198DOPC  C21124553   0.631   5.374  14.368 -0.0005 -0.6883  0.1985
  198DOPC  H11R24554   0.686   5.455  14.315 -0.9660 -0.4780 -0.5106
  198DOPC  H11S24555   0.613   5.301  14.286 -1.2795 -1.3878  1.0733
  198DOPC  C21224556   0.704   5.301  14.482  1.1127 -0.5627  0.5567
  198DOPC  H12R24557   0.717   5.371  14.568  0.5015 -0.4284  0.5470
  198DOPC  H12S24558   0.808   5.291  14.445  0.5472  0.9408 -1.6465
  198DOPC  C21324559   0.654   5.158  14.517 -0.3807  0.5312  0.1902
  198DOPC  H13R24560   0.644   5.097  14.425 -0.1821  1.3500 -0.3824
  198DOPC  H13S24561   0.551   5.164  14.557  0.1045 -0.1755  1.6328
  198DOPC  C21424562   0.742   5.079  14.624  0.5893 -0.3420 -0.3086
  198DOPC  H14R24563   0.686   5.004  14.685 -1.2787  2.4358  1.6001
  198DOPC  H14S24564   0.781   5.152  14.698 -1.4431 -2.1191  2.7547
  198DOPC  C21524565   0.866   5.020  14.552  0.3480  0.3572 -0.4662
  198DOPC  H15R24566   0.920   5.105  14.505 -0.7332  1.3357  0.0091
  198DOPC  H15S24567   0.833   4.952  14.471 -0.8148 -0.7932  0.9248
  198DOPC  C21624568   0.961   4.956  14.645  0.2749 -0.2193 -0.1069
  198DOPC  H16R24569   0.908   4.886  14.713  1.1535  1.6377  2.6491
  198DOPC  H16S24570   1.003   5.036  14.710  0.5147  0.1544 -0.7045
  198DOPC  C21724571   1.075   4.889  14.575 -0.6646  0.3797 -0.2394
  198DOPC  H17R24572   1.159   4.887  14.648  1.0260  1.6644 -2.0562
  198DOPC  H17S24573   1.104   4.955  14.490  0.0235  0.7176  0.2491
  198DOPC  C21824574   1.034   4.747  14.533  0.5863 -0.6007  0.2765
  198DOPC  H18R24575   0.999   4.746  14.428  1.2184 -2.5511  0.0465
  198DOPC  H18S24576   0.959   4.701  14.601  0.9876  0.8720  1.7787
  198DOPC  H18T24577   1.123   4.680  14.539  1.2416  0.2674  0.4455
  198DOPC   C3324578  -0.052   6.661  13.443 -0.2933  1.1791  0.3555
  198DOPC   H3X24579  -0.021   6.767  13.452  1.8463  0.9358 -2.7376
  198DOPC   H3Y24580  -0.021   6.602  13.532 -1.1124 -0.7649 -0.5972
  198DOPC   C3424581  -0.211   6.657  13.452  0.1746 -0.1305 -0.3366
  198DOPC   H4X24582  -0.247   6.557  13.419 -1.1997 -0.0179  0.7701
  198DOPC   H4Y24583  -0.246   6.735  13.381  1.3860 -0.9542 -1.9205
  198DOPC   C3524584  -0.245   6.663  13.603 -0.2364 -1.1059  0.2300
  198DOPC   H5X24585  -0.181   6.744  13.645 -1.0578  0.9582 -2.2065
  198DOPC   H5Y24586  -0.199   6.571  13.644 -0.5796 -0.4952  2.1060
  198DOPC   C3624587  -0.389   6.677  13.636  0.6546 -0.3962  0.3900
  198DOPC   H6X24588  -0.416   6.783  13.618 -0.4341 -0.9327 -1.2832
  198DOPC   H6Y24589  -0.460   6.620  13.573  1.0202  1.1177 -1.4630
  198DOPC   C3724590  -0.434   6.627  13.769  0.1349  0.1978 -0.0320
  198DOPC   H7X24591  -0.416   6.518  13.777 -1.0810 -0.1016 -1.1880
  198DOPC   H7Y24592  -0.371   6.677  13.847  1.5893  0.6062 -1.4219
  198DOPC   C3824593  -0.586   6.651  13.798  0.0997 -0.5975  0.2312
  198DOPC   H8X24594  -0.624   6.604  13.890 -1.2315 -0.6907 -0.3415
  198DOPC   H8Y24595  -0.644   6.617  13.710 -0.7486  0.2848  0.4324
  198DOPC   C3924596  -0.621   6.797  13.829 -0.8196 -0.2362  1.1673
  198DOPC   H9X24597  -0.639   6.855  13.737 -0.4789 -0.7794  0.7469
  198DOPC  C31024598  -0.632   6.855  13.950 -0.1790 -0.0214 -0.6801
  198DOPC  H10X24599  -0.638   6.965  13.950  1.0172  0.0628 -0.1947
  198DOPC  C31124600  -0.610   6.797  14.083 -0.7111  0.2001 -0.6826
  198DOPC  H11X24601  -0.548   6.705  14.084 -0.0076  0.6577  0.5822
  198DOPC  H11Y24602  -0.705   6.762  14.129  0.0704 -1.1320 -0.0273
  198DOPC  C31224603  -0.553   6.901  14.184 -0.0272  0.4600  0.6893
  198DOPC  H12X24604  -0.626   6.981  14.208  0.6597  0.7170  1.9762
  198DOPC  H12Y24605  -0.454   6.935  14.145  0.7621 -0.2361  2.0152
  198DOPC  C31324606  -0.527   6.827  14.318 -0.2766 -0.0880 -0.4949
  198DOPC  H13X24607  -0.623   6.812  14.372  0.2208 -0.2952  0.3586
  198DOPC  H13Y24608  -0.479   6.731  14.290  2.4747  1.0922 -0.1193
  198DOPC  C31424609  -0.424   6.903  14.408  0.1167 -0.5256  0.1756
  198DOPC  H14X24610  -0.336   6.932  14.346  0.5503  0.5731  1.2513
  198DOPC  H14Y24611  -0.470   6.999  14.438 -1.7814 -1.5388  0.6577
  198DOPC  C31524612  -0.380   6.824  14.534 -0.7943 -0.6132  0.1927
  198DOPC  H15X24613  -0.318   6.888  14.601 -0.4268  0.4890 -1.1551
  198DOPC  H15Y24614  -0.314   6.740  14.502 -0.1721 -0.6050  1.3953
  198DOPC  C31624615  -0.499   6.785  14.622 -0.0449 -0.3411 -0.3223
  198DOPC  H16X24616  -0.537   6.879  14.668 -4.1923 -2.8110  1.9265
  198DOPC  H16Y24617  -0.579   6.737  14.561 -0.8742  1.4832 -0.7496
  198DOPC  C31724618  -0.466   6.709  14.744  0.4737  0.2397 -0.1015
  198DOPC  H17X24619  -0.399   6.623  14.722  1.6701  0.7813  1.2327
  198DOPC  H17Y24620  -0.403   6.775  14.807  0.9937  0.3349 -0.7079
  198DOPC  C31824621  -0.589   6.668  14.822 -0.9532 -0.3129  0.5569
  198DOPC  H18X24622  -0.637   6.595  14.754  2.3886  0.5548 -3.1034
  198DOPC  H18Y24623  -0.558   6.623  14.918 -1.1603 -0.2905  0.6349
  198DOPC  H18Z24624  -0.664   6.750  14.831  0.9193  1.6856 -0.7610
  199DOPC     N24625   6.856   6.556  13.092  0.1860 -0.4013  0.2860
  199DOPC   C1224626   6.734   6.643  13.108 -0.5959 -0.0406  0.0788
  199DOPC  H12A24627   6.764   6.745  13.091  1.1615  0.0669  3.1121
  199DOPC  H12B24628   6.710   6.643  13.213 -0.7695  1.6169  0.0573
  199DOPC   C1324629   6.978   6.636  13.119 -0.7015 -0.4893 -0.8958
  199DOPC  H13A24630   6.985   6.729  13.064 -2.9145  0.3379  0.1202
  199DOPC  H13B24631   7.000   6.675  13.218  0.5648 -0.1845 -1.2703
  199DOPC  H13C24632   7.066   6.581  13.089  0.5525  1.5897 -1.2610
  199DOPC   C1424633   6.879   6.507  12.948  0.1576 -0.4264 -0.2182
  199DOPC  H14A24634   6.959   6.435  12.944  1.1019  0.5607  0.4128
  199DOPC  H14B24635   6.785   6.468  12.910  0.7489 -1.2125 -0.9116
  199DOPC  H14C24636   6.922   6.579  12.880  0.2159  0.0145  0.2819
  199DOPC   C1524637   6.843   6.438  13.176 -0.4363  0.4289  0.5736
  199DOPC  H15A24638   6.945   6.404  13.184  0.3321  2.2365 -0.8265
  199DOPC  H15B24639   6.779   6.362  13.135  2.3223 -1.3606 -0.6674
  199DOPC  H15C24640   6.825   6.452  13.282 -0.8998  1.0913  0.4136
  199DOPC   C1124641   6.608   6.600  13.026  0.7045 -0.2377  0.1128
  199DOPC  H11A24642   6.627   6.594  12.917  0.3446  1.8032 -0.0943
  199DOPC  H11B24643   6.590   6.494  13.055 -0.4492 -0.6245 -1.8638
  199DOPC     P24644   6.429   6.673  13.192  0.2322 -0.3568 -0.3093
  199DOPC   O1324645   6.399   6.532  13.220 -0.0165 -0.2023  0.2684
  199DOPC   O1424646   6.309   6.762  13.172 -0.4268  0.1957  0.0463
  199DOPC   O1224647   6.501   6.694  13.056 -0.6594  0.3657 -0.2162
  199DOPC   O1124648   6.527   6.733  13.305  0.4342 -0.2970  0.3217
  199DOPC    C124649   6.595   6.860  13.298  0.3188  0.2368 -0.6885
  199DOPC    HA24650   6.572   6.921  13.209  2.1731  3.1218  0.6587
  199DOPC    HB24651   6.705   6.855  13.316  0.3827 -0.3126 -1.1889
  199DOPC    C224652   6.539   6.949  13.414 -0.9883  0.6972 -0.0724
  199DOPC    HS24653   6.582   7.050  13.395  0.3941  0.3310  0.9270
  199DOPC   O2124654   6.580   6.898  13.548 -0.2236  0.0046  0.0419
  199DOPC   C2124655   6.707   6.909  13.597  1.1764  0.2175  0.1065
  199DOPC   O2224656   6.804   6.952  13.541 -0.1571 -0.2827 -0.0007
  199DOPC   C2224657   6.708   6.857  13.743 -0.3854  0.5479  0.5504
  199DOPC   H2R24658   6.783   6.910  13.805 -0.4368  1.7119 -0.3487
  199DOPC   H2S24659   6.741   6.751  13.738 -0.6880  0.4634  0.2686
  199DOPC    C324660   6.385   6.956  13.422 -0.1072  0.4497  0.4562
  199DOPC    HX24661   6.351   6.854  13.450  1.5556 -1.1341 -2.7552
  199DOPC    HY24662   6.349   6.960  13.317 -1.3356  1.1988  0.8880
  199DOPC   O3124663   6.334   7.065  13.507 -0.6592 -0.4772 -0.2813
  199DOPC   C3124664   6.208   7.074  13.516 -0.3452  0.6816 -0.2682
  199DOPC   O3224665   6.122   7.017  13.454  0.3091 -0.0850  0.7785
  199DOPC   C3224666   6.182   7.167  13.639 -0.9020  0.3212 -0.3544
  199DOPC   H2X24667   6.239   7.262  13.633  0.2013 -0.3668 -1.3646
  199DOPC   H2Y24668   6.074   7.194  13.643 -1.0080 -0.1561  0.2481
  199DOPC   C2324669   6.566   6.848  13.807  0.3560 -0.0965  0.1160
  199DOPC   H3R24670   6.485   6.800  13.747  2.0038  0.4153 -2.6871
  199DOPC   H3S24671   6.532   6.953  13.814  0.2966 -0.1495  0.7154
  199DOPC   C2424672   6.554   6.771  13.939 -0.0126  0.4690 -0.2569
  199DOPC   H4R24673   6.604   6.672  13.937  1.4211  1.1623 -2.8483
  199DOPC   H4S24674   6.446   6.755  13.958  0.1700  0.5250  0.8679
  199DOPC   C2524675   6.600   6.869  14.056  0.4139  0.2640  0.1636
  199DOPC   H5R24676   6.550   6.964  14.030 -0.8809 -0.8578 -1.6612
  199DOPC   H5S24677   6.710   6.879  14.052  0.5904  0.0990  2.5931
  199DOPC   C2624678   6.551   6.827  14.196  0.7647  0.5811 -0.6808
  199DOPC   H6R24679   6.440   6.816  14.198  0.6612  1.5420 -0.7363
  199DOPC   H6S24680   6.586   6.900  14.272  0.3698 -0.5666  0.6458
  199DOPC   C2724681   6.586   6.680  14.244 -0.3405 -0.0807  0.6792
  199DOPC   H7R24682   6.519   6.605  14.197 -0.2381 -0.0432  0.4702
  199DOPC   H7S24683   6.563   6.675  14.353  1.0293 -3.4870  0.9251
  199DOPC   C2824684   6.735   6.639  14.223  0.2025  0.0665  0.9748
  199DOPC   H8R24685   6.785   6.696  14.304 -0.8124 -0.6851  2.1853
  199DOPC   H8S24686   6.763   6.658  14.117 -0.5516 -0.4034  0.6801
  199DOPC   C2924687   6.742   6.492  14.239  0.1498  0.4221 -0.1763
  199DOPC   H9R24688   6.675   6.432  14.176  0.5824  1.2809 -1.5017
  199DOPC  C21024689   6.806   6.413  14.333 -0.4292 -0.3961  0.6054
  199DOPC  H10R24690   6.792   6.304  14.333  2.5939 -0.8878 -0.8279
  199DOPC  C21124691   6.890   6.467  14.445  0.2457  0.1900  0.2129
  199DOPC  H11R24692   6.911   6.576  14.447  0.3476  0.1635  0.5770
  199DOPC  H11S24693   6.988   6.414  14.454  1.0460  1.3768 -1.0875
  199DOPC  C21224694   6.827   6.440  14.587 -0.1491  0.3611  0.6334
  199DOPC  H12R24695   6.881   6.489  14.671  0.1280 -0.8163  1.1686
  199DOPC  H12S24696   6.830   6.332  14.613 -0.5298  0.1600 -0.1569
  199DOPC  C21324697   6.673   6.473  14.602 -0.0141  0.6600  0.1082
  199DOPC  H13R24698   6.628   6.418  14.518 -1.4874  0.0233  1.2703
  199DOPC  H13S24699   6.655   6.582  14.585 -2.1783  0.9968  3.5406
  199DOPC  C21424700   6.607   6.443  14.738  0.5136 -0.5929  0.5679
  199DOPC  H14R24701   6.509   6.494  14.752 -0.4859 -2.2557 -0.0107
  199DOPC  H14S24702   6.660   6.491  14.823 -0.8706  1.6883  0.2153
  199DOPC  C21524703   6.575   6.295  14.767  0.2845  0.4453 -0.0702
  199DOPC  H15R24704   6.665   6.231  14.754 -0.2514 -0.6423  1.2972
  199DOPC  H15S24705   6.501   6.275  14.687  0.2039 -0.5979  0.2463
  199DOPC  C21624706   6.497   6.277  14.899 -0.2814 -1.3861  0.2068
  199DOPC  H16R24707   6.493   6.166  14.900  3.3452 -1.6866 -2.0943
  199DOPC  H16S24708   6.397   6.324  14.884  0.6828  1.0442  0.9377
  199DOPC  C21724709   6.564   6.321  15.033  0.3540  0.0652  0.7290
  199DOPC  H17R24710   6.497   6.289  15.116 -0.7364  0.2556 -0.0554
  199DOPC  H17S24711   6.559   6.432  15.028 -2.9496 -0.0142 -0.0562
  199DOPC  C21824712   6.706   6.268  15.054 -0.1492  0.4384 -0.3478
  199DOPC  H18R24713   6.720   6.177  14.991  1.7071 -0.5572  1.3783
  199DOPC  H18S24714   6.716   6.234  15.160  1.3626  2.4650  0.2249
  199DOPC  H18T24715   6.784   6.342  15.026  0.1359 -0.2622 -1.4711
  199DOPC   C3324716   6.226   7.091  13.770  0.1638  0.7662 -0.0795
  199DOPC   H3X24717   6.336   7.072  13.774  0.0909  0.5184  1.5505
  199DOPC   H3Y24718   6.165   6.998  13.772  1.6392 -0.2677  2.3831
  199DOPC   C3424719   6.186   7.166  13.898 -0.0296  0.5090 -1.0485
  199DOPC   H4X24720   6.077   7.148  13.902  0.3769 -2.1193  1.9379
  199DOPC   H4Y24721   6.215   7.272  13.880  2.5306  0.0073 -0.3636
  199DOPC   C3524722   6.235   7.087  14.024  0.0729  0.1569 -0.1704
  199DOPC   H5X24723   6.330   7.134  14.056 -0.1010  1.0369 -0.9157
  199DOPC   H5Y24724   6.251   6.978  14.007  3.0606  0.3921  0.5646
  199DOPC   C3624725   6.142   7.100  14.148 -0.6622  0.8138  0.7121
  199DOPC   H6X24726   6.132   7.210  14.160  0.9901  0.7631  3.2605
  199DOPC   H6Y24727   6.048   7.047  14.122 -0.1182  1.1651 -2.4415
  199DOPC   C3724728   6.201   7.033  14.274 -0.6166  0.0344  0.2865
  199DOPC   H7X24729   6.199   6.924  14.252 -0.7762 -0.2912  1.8382
  199DOPC   H7Y24730   6.306   7.066  14.288 -0.7530 -0.4846  3.0044
  199DOPC   C3824731   6.133   7.067  14.406  0.2447  0.1905 -0.0058
  199DOPC   H8X24732   6.190   7.017  14.487  0.4519 -1.8364 -1.3283
  199DOPC   H8Y24733   6.034   7.022  14.383  1.0678 -0.3899 -2.8097
  199DOPC   C3924734   6.114   7.212  14.435  0.1452 -0.1738 -0.9804
  199DOPC   H9X24735   6.027   7.262  14.390  2.0568  2.2381 -2.3091
  199DOPC  C31024736   6.193   7.298  14.505 -0.1336 -0.1462 -0.1192
  199DOPC  H10X24737   6.171   7.406  14.500  2.1316  0.3009 -2.7726
  199DOPC  C31124738   6.324   7.246  14.559  0.3768 -0.0197  0.1588
  199DOPC  H11X24739   6.367   7.197  14.469  0.1479 -0.6381  0.3746
  199DOPC  H11Y24740   6.316   7.173  14.643 -0.8546 -0.7117 -0.5324
  199DOPC  C31224741   6.425   7.350  14.603 -0.4222 -0.2534 -0.3975
  199DOPC  H12X24742   6.451   7.425  14.525  0.2734  0.8787  0.8906
  199DOPC  H12Y24743   6.514   7.286  14.622 -0.6426 -1.2308 -2.3615
  199DOPC  C31324744   6.377   7.416  14.725  0.1040 -0.6449 -0.3387
  199DOPC  H13X24745   6.292   7.486  14.708  0.6309  0.2279  0.5016
  199DOPC  H13Y24746   6.334   7.333  14.786 -1.3881 -1.2939 -2.1651
  199DOPC  C31424747   6.489   7.500  14.795  0.1745  0.5261 -0.0127
  199DOPC  H14X24748   6.576   7.434  14.815  1.1993  1.8038 -0.1433
  199DOPC  H14Y24749   6.524   7.582  14.728 -0.5063 -0.1576 -1.2563
  199DOPC  C31524750   6.438   7.558  14.926  0.1066 -0.3285 -0.4922
  199DOPC  H15X24751   6.431   7.478  15.003  0.6670 -0.9519 -1.0792
  199DOPC  H15Y24752   6.343   7.612  14.905  0.8913  1.4404  0.2738
  199DOPC  C31624753   6.532   7.666  14.979 -0.1604 -0.5839 -0.3387
  199DOPC  H16X24754   6.624   7.626  15.026 -0.0123 -1.1470 -1.0835
  199DOPC  H16Y24755   6.565   7.723  14.889 -0.8167  0.4978  0.0869
  199DOPC  C31724756   6.460   7.755  15.083 -0.5152  0.0023 -0.0751
  199DOPC  H17X24757   6.369   7.797  15.036  0.2444 -0.4352 -2.0326
  199DOPC  H17Y24758   6.432   7.684  15.164 -1.3696  0.2989 -0.1041
  199DOPC  C31824759   6.545   7.863  15.154  0.9447 -0.1281 -0.2538
  199DOPC  H18X24760   6.490   7.925  15.229 -1.8797 -3.3550  0.5621
  199DOPC  H18Y24761   6.633   7.819  15.205 -0.0100 -2.7524 -0.7379
  199DOPC  H18Z24762   6.582   7.937  15.080 -0.7837  0.6672 -0.3948
  200DOPC     N24763   1.683   0.235  12.882  0.4064 -0.1220  0.3536
  200DOPC   C1224764   1.647   0.208  13.023 -0.3218  0.2355  0.2693
  200DOPC  H12A24765   1.668   0.302  13.070 -1.8376  0.9477 -0.4215
  200DOPC  H12B24766   1.700   0.121  13.061 -2.1998 -1.0145  0.1780
  200DOPC   C1324767   1.645   0.379  12.839  0.5546 -0.2513  0.1414
  200DOPC  H13A24768   1.670   0.395  12.736 -0.3333  0.8426  0.0854
  200DOPC  H13B24769   1.538   0.397  12.840  0.8542  1.7854 -0.9110
  200DOPC  H13C24770   1.690   0.455  12.901  1.5392  0.2558 -1.1601
  200DOPC   C1424771   1.607   0.141  12.789  0.0619  0.2594 -0.9199
  200DOPC  H14A24772   1.501   0.139  12.812  0.6067 -0.0943  1.8658
  200DOPC  H14B24773   1.618   0.177  12.687 -0.4010 -0.6079 -1.2892
  200DOPC  H14C24774   1.647   0.042  12.798 -0.8928 -0.0325  0.3332
  200DOPC   C1524775   1.830   0.230  12.850 -0.8762 -0.0334 -0.3121
  200DOPC  H15A24776   1.877   0.289  12.927 -0.9762 -0.5896  0.1842
  200DOPC  H15B24777   1.855   0.274  12.754  0.8710 -1.5552 -0.6028
  200DOPC  H15C24778   1.887   0.139  12.862 -0.3666  0.0959 -1.5711
  200DOPC   C1124779   1.506   0.170  13.064  0.0688 -0.3312  0.0433
  200DOPC  H11A24780   1.482   0.082  13.001 -0.1161  0.1868 -0.6316
  200DOPC  H11B24781   1.517   0.145  13.171 -0.3700 -3.1957 -0.5084
  200DOPC     P24782   1.403   0.387  13.151 -0.2671 -0.6424  0.0488
  200DOPC   O1324783   1.322   0.500  13.096 -1.1226 -0.2200 -0.0100
  200DOPC   O1424784   1.533   0.413  13.205 -0.2517 -0.1106 -0.1017
  200DOPC   O1224785   1.415   0.277  13.037 -0.5883  0.0629  0.1490
  200DOPC   O1124786   1.321   0.321  13.270 -0.1710  0.0289  0.0584
  200DOPC    C124787   1.202   0.244  13.238  0.7019 -0.0300 -0.5473
  200DOPC    HA24788   1.211   0.182  13.147  0.4758  0.6038 -1.0152
  200DOPC    HB24789   1.109   0.306  13.242  1.5172  1.2376  2.7755
  200DOPC    C224790   1.185   0.136  13.353  0.0656 -0.3526  0.3375
  200DOPC    HS24791   1.090   0.080  13.343  0.7035 -1.4977  0.5119
  200DOPC   O2124792   1.203   0.195  13.483 -0.5968  0.1327  0.2149
  200DOPC   C2124793   1.110   0.281  13.516  1.0322 -0.2714 -0.3933
  200DOPC   O2224794   1.006   0.305  13.455 -0.5472 -0.4137 -0.0520
  200DOPC   C2224795   1.153   0.355  13.650 -0.2503  0.2706  0.0474
  200DOPC   H2R24796   1.105   0.455  13.639 -4.0533 -1.5935 -2.9495
  200DOPC   H2S24797   1.262   0.375  13.653 -0.6940  2.9615  0.5434
  200DOPC    C324798   1.286   0.022  13.335  0.0408 -0.2659 -0.1361
  200DOPC    HX24799   1.387   0.061  13.314  0.0504  0.6739  1.5058
  200DOPC    HY24800   1.249  -0.030  13.245  0.4270 -0.6774 -0.0623
  200DOPC   O3124801   1.284  -0.080  13.437  0.1071  0.1005 -0.0477
  200DOPC   C3124802   1.366  -0.048  13.535  0.3819 -0.3189 -0.7983
  200DOPC   O3224803   1.446   0.048  13.544 -0.3918  0.5385 -0.1119
  200DOPC   C3224804   1.346  -0.158  13.642  0.3147 -0.9531 -0.4042
  200DOPC   H2X24805   1.256  -0.129  13.700  0.0040  0.4070 -1.5160
  200DOPC   H2Y24806   1.339  -0.259  13.598 -0.4101 -0.3945 -1.6069
  200DOPC   C2324807   1.127   0.285  13.788  0.5788 -0.1826 -0.6854
  200DOPC   H3R24808   1.029   0.234  13.778  0.4843  0.3269 -3.0443
  200DOPC   H3S24809   1.119   0.364  13.866  0.0413 -1.0804  0.2008
  200DOPC   C2424810   1.225   0.174  13.823 -1.2194 -0.0964  0.4653
  200DOPC   H4R24811   1.327   0.214  13.844 -0.0823 -0.8345 -2.9352
  200DOPC   H4S24812   1.244   0.131  13.722 -0.2019  2.2771 -0.4472
  200DOPC   C2524813   1.189   0.079  13.939  0.2504 -0.1192 -0.4651
  200DOPC   H5R24814   1.232  -0.023  13.926  1.2639  0.1518  0.5556
  200DOPC   H5S24815   1.081   0.066  13.920  0.3826 -0.2034 -1.2139
  200DOPC   C2624816   1.211   0.129  14.084  0.3951  0.2652 -0.7178
  200DOPC   H6R24817   1.179   0.042  14.145  1.6280 -0.7535 -1.4724
  200DOPC   H6S24818   1.156   0.221  14.112  0.5112 -0.6550  3.1399
  200DOPC   C2724819   1.361   0.129  14.125  0.6187  0.0891 -0.3013
  200DOPC   H7R24820   1.411   0.208  14.064  0.2266  0.2415 -0.4265
  200DOPC   H7S24821   1.404   0.032  14.091 -0.9493 -0.3969 -1.0205
  200DOPC   C2824822   1.388   0.151  14.276  0.4300  0.4850 -0.1829
  200DOPC   H8R24823   1.335   0.073  14.335  0.5464  0.2452 -0.3874
  200DOPC   H8S24824   1.333   0.246  14.289 -1.2304 -0.3017 -1.0687
  200DOPC   C2924825   1.533   0.164  14.313  0.3764 -0.2696  0.0526
  200DOPC   H9R24826   1.564   0.073  14.366 -1.1626 -0.2837  0.9834
  200DOPC  C21024827   1.617   0.266  14.289 -0.1864 -0.3871  0.5465
  200DOPC  H10R24828   1.725   0.261  14.313  0.0044  2.6865  0.8134
  200DOPC  C21124829   1.595   0.396  14.221  0.3138 -0.1980 -0.1545
  200DOPC  H11R24830   1.613   0.480  14.291  2.5718  1.1373 -2.1641
  200DOPC  H11S24831   1.491   0.424  14.195  1.3285  1.7621 -2.6086
  200DOPC  C21224832   1.673   0.428  14.098 -0.5831  0.4323 -0.3703
  200DOPC  H12R24833   1.780   0.411  14.124 -0.5438 -0.7544 -1.2430
  200DOPC  H12S24834   1.647   0.534  14.077 -2.6354 -0.1169 -0.8001
  200DOPC  C21324835   1.641   0.342  13.974  0.0926  0.5766  0.2458
  200DOPC  H13R24836   1.552   0.385  13.923 -0.6365  0.8042  1.6675
  200DOPC  H13S24837   1.598   0.244  14.002 -1.7384  1.4777  0.7695
  200DOPC  C21424838   1.759   0.316  13.882  0.7537 -0.4386  0.0885
  200DOPC  H14R24839   1.852   0.288  13.936 -0.2909 -1.3253  1.4932
  200DOPC  H14S24840   1.777   0.416  13.837  2.1166 -0.2537  1.0138
  200DOPC  C21524841   1.739   0.220  13.768 -0.5786  0.2695 -0.2161
  200DOPC  H15R24842   1.827   0.228  13.701  1.0546  1.2315  1.9225
  200DOPC  H15S24843   1.648   0.250  13.712  1.3304  0.9570 -3.1631
  200DOPC  C21624844   1.748   0.074  13.802 -1.1925 -0.1785 -0.3671
  200DOPC  H16R24845   1.740   0.009  13.713 -2.6033  0.6178 -0.8570
  200DOPC  H16S24846   1.659   0.046  13.864 -0.3418  1.2255  1.5970
  200DOPC  C21724847   1.878   0.040  13.878  0.0715  0.4024  0.8588
  200DOPC  H17R24848   1.875   0.083  13.980 -3.0493 -1.8119  1.8417
  200DOPC  H17S24849   1.964   0.072  13.815 -1.2369  0.7941 -0.8089
  200DOPC  C21824850   1.895  -0.114  13.890  0.3640 -0.5500 -0.2250
  200DOPC  H18R24851   1.902  -0.157  13.788 -0.6069 -2.7620  0.5804
  200DOPC  H18S24852   1.796  -0.146  13.930 -0.3038  1.8935  0.2698
  200DOPC  H18T24853   1.978  -0.143  13.958  0.1586 -1.9445 -0.5346
  200DOPC   C3324854   1.462  -0.170  13.743 -0.5092 -0.0738 -1.2939
  200DOPC   H3X24855   1.469  -0.077  13.804  2.2181 -0.2994 -1.1358
  200DOPC   H3Y24856   1.553  -0.179  13.680 -0.2762  0.7082 -1.0846
  200DOPC   C3424857   1.464  -0.296  13.835  0.8944  0.3142  0.5876
  200DOPC   H4X24858   1.562  -0.325  13.878  1.3514 -1.9246 -1.6757
  200DOPC   H4Y24859   1.434  -0.376  13.764  0.9202  0.2822  0.6136
  200DOPC   C3524860   1.358  -0.277  13.942  0.1158 -0.0934  0.1256
  200DOPC   H5X24861   1.261  -0.307  13.897  1.1314 -2.0103 -0.9231
  200DOPC   H5Y24862   1.358  -0.169  13.970  0.0343 -0.1021  0.1607
  200DOPC   C3624863   1.386  -0.349  14.075  0.1552 -0.3589  0.6191
  200DOPC   H6X24864   1.383  -0.458  14.052 -0.1363 -0.3901  0.8104
  200DOPC   H6Y24865   1.488  -0.321  14.110  1.1061  1.3943 -3.0872
  200DOPC   C3724866   1.290  -0.317  14.185 -0.3621  0.2022 -0.1716
  200DOPC   H7X24867   1.292  -0.211  14.217  1.5367 -0.0965  0.8100
  200DOPC   H7Y24868   1.189  -0.344  14.147 -0.0755 -1.5920  0.2643
  200DOPC   C3824869   1.308  -0.399  14.309  0.4440 -0.5075 -0.2464
  200DOPC   H8X24870   1.411  -0.367  14.337  0.2566  1.6363 -1.7891
  200DOPC   H8Y24871   1.300  -0.509  14.296  1.8881 -0.7785  0.9298
  200DOPC   C3924872   1.216  -0.372  14.429  0.8702  0.0986 -0.1036
  200DOPC   H9X24873   1.108  -0.383  14.414  1.0633 -3.1385  0.2496
  200DOPC  C31024874   1.251  -0.356  14.557  0.4147  0.2125 -0.1213
  200DOPC  H10X24875   1.174  -0.323  14.629  1.6476  2.3103  0.3212
  200DOPC  C31124876   1.382  -0.367  14.629  0.2425  0.1046  0.6430
  200DOPC  H11X24877   1.458  -0.416  14.564 -0.1420  1.2046 -0.6936
  200DOPC  H11Y24878   1.368  -0.425  14.722  0.3021  0.2338  0.7322
  200DOPC  C31224879   1.441  -0.227  14.665 -0.1002  0.6203  0.1917
  200DOPC  H12X24880   1.376  -0.176  14.739 -3.9051 -0.2747 -2.2279
  200DOPC  H12Y24881   1.433  -0.164  14.574  1.2761  2.0115  0.9926
  200DOPC  C31324882   1.592  -0.252  14.711 -0.1328 -0.3545  0.6208
  200DOPC  H13X24883   1.608  -0.304  14.808 -0.6073 -0.4938  0.6242
  200DOPC  H13Y24884   1.644  -0.305  14.629 -1.2630 -1.3405  0.5150
  200DOPC  C31424885   1.674  -0.123  14.720  0.1809  0.1609  0.0613
  200DOPC  H14X24886   1.676  -0.070  14.622 -0.1017 -0.8272 -0.4928
  200DOPC  H14Y24887   1.620  -0.058  14.792 -0.4125 -1.2456  0.9280
  200DOPC  C31524888   1.818  -0.159  14.759  0.4818 -0.2473  0.5471
  200DOPC  H15X24889   1.868  -0.230  14.690  0.6171 -0.7544  1.1549
  200DOPC  H15Y24890   1.825  -0.210  14.857  1.3425 -0.5710  0.3285
  200DOPC  C31624891   1.912  -0.036  14.773 -0.0682  0.2834  0.3430
  200DOPC  H16X24892   1.933   0.012  14.675 -0.2110  0.3317  0.3368
  200DOPC  H16Y24893   1.865   0.047  14.829 -1.1189 -0.3320  0.3975
  200DOPC  C31724894   2.053  -0.074  14.824 -0.3712  0.0016 -0.2593
  200DOPC  H17X24895   2.040  -0.156  14.897 -0.5868  1.5415  1.5184
  200DOPC  H17Y24896   2.100  -0.110  14.730 -3.1285  0.3193 -1.8692
  200DOPC  C31824897   2.121   0.054  14.881  0.3957  0.2005 -0.4296
  200DOPC  H18X24898   2.110   0.134  14.805 -3.3528 -0.2216 -0.5243
  200DOPC  H18Y24899   2.060   0.101  14.961 -1.1731  1.3171 -2.1997
  200DOPC  H18Z24900   2.225   0.039  14.919 -0.6301 -0.1294  2.5402
  201SOD    SOD24901   0.182   5.744  16.856  0.0898  0.3720 -0.5932
  202SOD    SOD24902   1.589   0.792  12.605 -0.1247 -0.1980 -0.5257
  203SOD    SOD24903   3.436   2.352  17.353  0.5090 -0.3951 -0.5251
  204SOD    SOD24904   0.030   4.616  11.250  0.2666 -0.1425  0.3062
  205SOD    SOD24905   0.586   4.332  18.773 -0.2767 -0.1962  0.0247
  206SOD    SOD24906   7.260   0.351  12.744 -0.0823  0.4321  0.8411
  207SOD    SOD24907   3.311   5.302  11.232  0.6113 -0.2693 -0.1309
  208SOD    SOD24908   3.515   3.826  17.195 -0.3172 -0.4283 -0.0813
  209SOD    SOD24909   1.346   2.404  12.306  0.1241 -0.4125  0.0965
  210SOD    SOD24910   0.290   3.527  17.476  0.1944 -0.1546  0.0623
  211SOD    SOD24911   3.848   0.006  18.291 -0.0107  0.0628  0.0164
  212SOD    SOD24912   1.037   1.888  17.827  0.2214  0.6340 -0.2051
  213SOD    SOD24913   3.513   3.036  11.724  0.5058  0.2159  0.0583
  214SOD    SOD24914   6.217   2.441  18.282  0.5347 -0.0253 -0.5694
  215SOD    SOD24915   0.757   7.145  18.477  0.0116 -0.1215 -0.1940
  216SOD    SOD24916   4.335   1.672  18.254  0.3759  0.2583 -0.1058
  217SOD    SOD24917   0.867   4.633  11.347 -0.3531  0.2582  0.5465
  218SOD    SOD24918   1.013   6.472  17.991 -0.0815  0.4699  0.2659
  219SOD    SOD24919   4.223   2.925  18.647  0.2594 -0.2936 -0.1493
  220SOD    SOD24920   7.070   5.716  11.455  0.3207 -0.0313  0.3340
  221SOD    SOD24921   5.330   1.531  11.988  0.5196 -0.4652  0.1002
  222SOD    SOD24922   4.553   1.221  18.116 -0.1945  0.2618 -0.1553
  223SOD    SOD24923   0.521   7.086  11.883 -0.4511 -0.0853  0.1297
  224SOD    SOD24924   4.910   6.367  12.476 -0.3809 -0.8605 -0.0313
  225SOD    SOD24925   2.787   6.823  11.707 -0.4783  0.2042  0.6720
  226SOD    SOD24926   4.202   5.398  18.255  0.1084  0.4354  0.0092
  227CLA    CLA24927   3.065   5.120  11.986  0.0537  0.0858  0.2024
  228CLA    CLA24928   1.645   7.212  11.094  0.2414 -0.2171 -0.0997
  229CLA    CLA24929   0.990   0.635  11.739  0.0969 -0.5798 -0.2199
  230CLA    CLA24930   6.965   6.188  17.698 -0.1574 -0.1034  0.1333
  231CLA    CLA24931   1.307   6.933  17.984  0.3267 -0.0471 -0.1870
  232CLA    CLA24932   6.575   0.360  18.380 -0.0953  0.0913 -0.2664
  233CLA    CLA24933   3.792   1.067  18.958  0.1444 -0.0452  0.5042
  234CLA    CLA24934   3.083   3.509  17.410  0.0581  0.1516  0.4834
  235CLA    CLA24935   4.482   3.205  11.409 -0.4344 -0.3435  0.0041
  236CLA    CLA24936   5.873   5.938  19.006 -0.0055  0.1211 -0.0586
  237CLA    CLA24937   3.891   3.681  17.792  0.5877 -0.0079  0.1766
  238CLA    CLA24938   6.826   7.339  12.231 -0.1936 -0.0490 -0.1331
  239CLA    CLA24939   7.018   6.098  12.046 -0.1473  0.1226 -0.2392
  240CLA    CLA24940   7.587   5.773  18.350  0.0551  0.4637 -0.0219
  241CLA    CLA24941   0.064   5.596  12.118  0.0193 -0.0874  0.0973
  242CLA    CLA24942   3.684   6.269  19.147  0.3032  0.1757 -0.0585
  243CLA    CLA24943   0.971   2.144  12.499 -0.3042 -0.0595 -0.0041
  244CLA    CLA24944   7.340   1.512  12.037 -0.2086  0.1538  0.3218
  245CLA    CLA24945   1.727   0.576  12.550  0.1248 -0.1754 -0.1466
  246CLA    CLA24946   1.019   7.191  17.756 -0.3071  0.1653 -0.9142
  247CLA    CLA24947   4.884   2.744  10.431  0.6656  0.5061 -0.1155
  248CLA    CLA24948   3.696   7.522  12.233 -0.1766  0.3143  0.0772
  249CLA    CLA24949   3.778   2.382  11.950 -0.0758  0.1257 -0.3284
  250CLA    CLA24950   0.463   6.572  17.916 -0.4119  0.0164 -0.4210
  251CLA    CLA24951   0.284   5.412  17.151 -0.0496 -0.3221  0.0083
  252CLA    CLA24952   7.268   5.166  11.314  0.4547 -0.3019 -0.1924
  253TIP3   OH224953   0.266   1.436  18.978  0.0337 -0.0266 -0.5298
  253TIP3    H124954   0.265   1.343  18.998  1.0161  0.1391  0.3913
  253TIP3    H224955   0.209   1.445  18.902  0.3311 -1.4475 -0.9489
  254TIP3   OH224956   4.120   1.354  19.127 -0.4462 -0.3994  0.3558
  254TIP3    H124957   4.154   1.276  19.172 -1.4217 -1.6692 -1.0127
  254TIP3    H224958   4.035   1.369  19.168 -0.4979 -0.3925  0.2448
  255TIP3   OH224959   7.022   4.078  18.794 -0.2036 -0.3917 -0.1502
  255TIP3    H124960   6.983   4.109  18.876  2.0436  0.2661  0.7397
  255TIP3    H224961   7.115   4.070  18.814  0.0162 -3.0089 -1.8196
  256TIP3   OH224962   0.020   0.909  16.993  0.3905  0.1450 -0.2498
  256TIP3    H124963   0.065   0.953  16.920 -1.3696  0.8832 -0.9617
  256TIP3    H224964  -0.059   0.872  16.953  0.9237 -2.2060  0.7024
  257TIP3   OH224965   1.342   0.621  17.947  0.3885  0.4272 -0.4206
  257TIP3    H124966   1.262   0.645  17.900  0.5670 -1.0595 -1.5387
  257TIP3    H224967   1.329   0.530  17.971  1.4341  0.4031  0.1040
  258TIP3   OH224968   3.411   3.618  18.080 -0.7075  0.0191  0.6105
  258TIP3    H124969   3.478   3.593  18.016 -0.9860  1.7869 -0.4416
  258TIP3    H224970   3.459   3.662  18.150 -0.6644  0.6606  0.1923
  259TIP3   OH224971   0.468   3.356  17.448 -0.0418 -0.3366  0.2627
  259TIP3    H124972   0.556   3.390  17.430  0.1389 -1.9143 -2.3263
  259TIP3    H224973   0.473   3.264  17.425 -1.9692 -0.8718  1.7433
  260TIP3   OH224974   2.231   1.729  18.615 -0.4315 -0.3865 -0.2716
  260TIP3    H124975   2.212   1.680  18.535  1.3096 -1.9378  0.2037
  260TIP3    H224976   2.307   1.783  18.593  1.5163 -2.4921  0.8620
  261TIP3   OH224977   1.214   1.055  17.407  0.0747  0.9030 -0.2008
  261TIP3    H124978   1.240   1.025  17.494 -1.4746 -0.0247 -0.0277
  261TIP3    H224979   1.296   1.061  17.358  0.6627 -2.2696  0.1912
  262TIP3   OH224980   2.422   3.945  16.990 -0.3174 -0.0429 -0.0188
  262TIP3    H124981   2.366   3.896  17.050 -0.2850 -0.4263 -0.2987
  262TIP3    H224982   2.393   4.036  16.998  0.4307  0.0940  1.4302
  263TIP3   OH224983   4.990   5.095  18.618  0.4323  0.0553 -0.5040
  263TIP3    H124984   4.997   5.185  18.652 -0.5035 -0.2901  0.6652
  263TIP3    H224985   5.071   5.052  18.647  0.1687  0.0913  0.3002
  264TIP3   OH224986   3.656   3.912  16.393 -0.3706  0.6687 -0.0494
  264TIP3    H124987   3.703   3.890  16.473 -0.4985 -1.1561 -0.4166
  264TIP3    H224988   3.724   3.915  16.325 -0.5811 -0.6930 -0.3532
  265TIP3   OH224989   5.338   0.095  17.416 -0.2415 -0.2477 -0.3402
  265TIP3    H124990   5.397   0.061  17.349  1.1956 -0.2244  0.8611
  265TIP3    H224991   5.337   0.190  17.401  0.9058 -0.1196  0.2729
  266TIP3   OH224992   4.252   2.391  17.999 -0.7307  0.6770 -0.0095
  266TIP3    H124993   4.347   2.402  17.994 -0.3461 -1.4094  1.2774
  266TIP3    H224994   4.219   2.435  17.921  1.3991  0.5239 -1.0778
  267TIP3   OH224995   3.216   3.917  18.327 -0.3223 -0.3095  0.5535
  267TIP3    H124996   3.284   3.933  18.393 -2.1867 -1.2909  2.8311
  267TIP3    H224997   3.217   3.823  18.314 -1.0816 -0.3047  0.4375
  268TIP3   OH224998   4.172   1.129  19.323 -0.0898 -0.4743 -0.3979
  268TIP3    H124999   4.096   1.123  19.381 -0.6171  0.1513 -1.0018
  268TIP3    H225000   4.247   1.129  19.382 -0.5218 -1.6456  0.1804
  269TIP3   OH225001   6.293   6.223  16.845  0.4751  0.1858 -0.4632
  269TIP3    H125002   6.350   6.233  16.769 -0.4961 -1.4917 -1.4662
  269TIP3    H225003   6.314   6.137  16.881 -0.0383  0.3838  0.3546
  270TIP3   OH225004   1.030   1.962  19.401  0.4221  0.0804  0.4711
  270TIP3    H125005   0.954   1.916  19.363  1.0000 -0.8499  0.3961
  270TIP3    H225006   1.032   2.046  19.355 -0.6003  0.1465  0.5212
  271TIP3   OH225007   0.032   6.178  17.520 -0.1159 -0.1481 -0.0989
  271TIP3    H125008  -0.023   6.187  17.597 -1.6456 -1.2255 -1.0075
  271TIP3    H225009   0.019   6.258  17.470  0.4147  0.2919  0.4597
  272TIP3   OH225010   1.771   6.775  18.252  0.4071 -0.1749 -0.5905
  272TIP3    H125011   1.815   6.802  18.172  1.5056 -1.2724 -0.3903
  272TIP3    H225012   1.717   6.700  18.226 -0.3279  0.3288 -0.5626
  273TIP3   OH225013   4.362   3.117  18.663  0.1071  0.5056 -0.2994
  273TIP3    H125014   4.319   3.184  18.610 -0.2397  1.2763  0.9330
  273TIP3    H225015   4.448   3.106  18.622  0.1033  1.5706 -0.6250
  274TIP3   OH225016   5.877   7.391  19.032  0.1281  0.0838 -0.0714
  274TIP3    H125017   5.941   7.321  19.045  0.3811  0.1425 -0.9694
  274TIP3    H225018   5.794   7.353  19.063  0.3607 -0.4193 -0.0482
  275TIP3   OH225019   3.407   4.806  16.641 -0.1941 -0.7714  0.0134
  275TIP3    H125020   3.350   4.877  16.613 -0.6264 -1.1648 -0.1286
  275TIP3    H225021   3.434   4.763  16.559  2.0384  0.6839 -0.0945
  276TIP3   OH225022   2.875   6.329  19.091  0.4984  0.1072  0.0482
  276TIP3    H125023   2.837   6.387  19.157  0.9698 -0.4640  0.8370
  276TIP3    H225024   2.849   6.241  19.118 -0.8193 -0.0370 -1.5313
  277TIP3   OH225025   2.508   1.542  17.726 -0.6270 -0.6017 -0.2350
  277TIP3    H125026   2.514   1.473  17.792 -1.9024 -0.6369 -0.1477
  277TIP3    H225027   2.538   1.621  17.771  0.4793 -0.9952 -0.2298
  278TIP3   OH225028   5.496   3.400  17.501 -0.0593  0.2901 -0.0449
  278TIP3    H125029   5.404   3.426  17.512 -0.1292 -0.1833  0.5673
  278TIP3    H225030   5.493   3.305  17.492  0.3097  0.3447 -0.8505
  279TIP3   OH225031   5.103   2.374  17.338  0.2808  0.0689  0.3967
  279TIP3    H125032   5.147   2.458  17.354  1.7591 -0.9072  1.7512
  279TIP3    H225033   5.137   2.346  17.252  0.9824  0.1461  0.6407
  280TIP3   OH225034   1.588   6.467  19.517 -0.1515  0.3432 -0.1917
  280TIP3    H125035   1.509   6.415  19.527  0.3586 -0.3986  0.0861
  280TIP3    H225036   1.572   6.546  19.568 -0.6492  0.1232 -0.0051
  281TIP3   OH225037   5.222   4.015  17.724 -0.0613  0.2274  0.5280
  281TIP3    H125038   5.149   3.969  17.683  0.1579 -0.2853  0.7083
  281TIP3    H225039   5.289   4.020  17.656  0.8187 -1.7893  1.1720
  282TIP3   OH225040   0.012   5.759  17.851  0.3939  0.2459  0.1536
  282TIP3    H125041  -0.074   5.764  17.809 -0.0690 -0.7438  0.9451
  282TIP3    H225042   0.010   5.825  17.919  0.6358  0.9000 -0.4610
  283TIP3   OH225043   6.596   3.063  18.547 -0.0447 -0.4683 -0.0192
  283TIP3    H125044   6.599   3.111  18.464  2.3499  1.4772  1.0758
  283TIP3    H225045   6.688   3.047  18.569 -0.5897 -0.7185  2.3743
  284TIP3   OH225046   1.430   3.418  11.171 -0.2992  0.0283 -0.0346
  284TIP3    H125047   1.413   3.324  11.166  0.9284 -0.3227  1.4344
  284TIP3    H225048   1.477   3.439  11.091 -1.8331 -0.2948 -1.0495
  285TIP3   OH225049   7.108   5.473  11.878  0.4122 -0.0158  0.0168
  285TIP3    H125050   7.075   5.432  11.958  0.0641 -0.6494 -0.4393
  285TIP3    H225051   7.032   5.478  11.820  0.9368 -0.7910 -0.7660
  286TIP3   OH225052   1.809   5.668  11.028  0.5419 -0.7169 -0.4259
  286TIP3    H125053   1.826   5.620  11.109  1.5220  0.5288  0.1525
  286TIP3    H225054   1.714   5.678  11.024  0.4826 -0.8555  0.5474
  287TIP3   OH225055   2.920   0.853  11.126  0.0103  0.1281 -0.1958
  287TIP3    H125056   2.838   0.806  11.138 -0.2237  0.4945 -0.3438
  287TIP3    H225057   2.898   0.925  11.067  0.4792  0.1194 -0.3864
  288TIP3   OH225058   2.153   2.355  12.729  0.1464 -0.1462 -0.2874
  288TIP3    H125059   2.210   2.290  12.769 -2.1063 -1.4114  1.1195
  288TIP3    H225060   2.196   2.378  12.647  0.9916 -3.6034 -0.9809
  289TIP3   OH225061   5.679   6.169  12.144 -0.0591  0.6362  0.6902
  289TIP3    H125062   5.625   6.115  12.086 -0.4983 -0.3105  1.9335
  289TIP3    H225063   5.727   6.228  12.085  0.3764 -1.0488 -0.7181
  290TIP3   OH225064   1.900   7.037  11.476  0.0081 -0.3179 -0.1122
  290TIP3    H125065   1.914   6.980  11.400 -1.8884  0.6644 -1.2755
  290TIP3    H225066   1.805   7.045  11.482  0.1773  0.7578  1.5333
  291TIP3   OH225067   0.128   7.078  10.677 -0.3223  0.0556 -0.3514
  291TIP3    H125068   0.189   7.007  10.699  0.4877  1.1569  1.0911
  291TIP3    H225069   0.049   7.058  10.728  0.1572  0.5358  0.6022
  292TIP3   OH225070   1.047   4.197  11.430  0.5590  0.0031  0.1003
  292TIP3    H125071   1.014   4.136  11.497  0.8837  0.7470  0.9622
  292TIP3    H225072   1.122   4.152  11.391  0.6215 -0.2740  0.5320
  293TIP3   OH225073   0.573   6.598  12.864 -0.1692 -0.7539 -0.1922
  293TIP3    H125074   0.624   6.676  12.885 -0.7198 -0.5206  0.3174
  293TIP3    H225075   0.554   6.608  12.770  1.9596 -1.6092 -0.7638
  294TIP3   OH225076   6.474   2.965  10.443  0.1686 -0.2214  0.7417
  294TIP3    H125077   6.505   2.908  10.373 -0.1366  0.9381 -0.3743
  294TIP3    H225078   6.533   3.041  10.440 -0.8950  0.6165  0.5945
  295TIP3   OH225079   6.907   0.669  11.048 -0.1598 -0.0580 -0.2663
  295TIP3    H125080   6.935   0.670  11.139  1.1008 -2.2060 -0.5564
  295TIP3    H225081   6.815   0.696  11.050  0.0544  0.6342  1.5193
  296TIP3   OH225082   1.242   2.437  11.009 -0.2163  0.2940  0.5592
  296TIP3    H125083   1.281   2.467  11.091  1.7872  0.6834 -0.4745
  296TIP3    H225084   1.248   2.512  10.950 -1.4538 -0.0344 -0.0109
  297TIP3   OH225085   1.845   4.206  12.067  0.0272  0.3389 -0.3695
  297TIP3    H125086   1.768   4.174  12.114  0.4467 -0.7941 -0.4247
  297TIP3    H225087   1.893   4.258  12.131  0.0334 -0.2824  0.1401
  298TIP3   OH225088   5.872   4.630  12.150 -0.1374 -0.4265  0.0473
  298TIP3    H125089   5.880   4.542  12.115  0.9307 -0.3934  0.1718
  298TIP3    H225090   5.816   4.620  12.227 -0.7058 -0.8505 -0.4132
  299TIP3   OH225091   2.744   4.511  10.749  0.0165  0.0846  0.0255
  299TIP3    H125092   2.806   4.445  10.779  1.7082  1.6579  0.1257
  299TIP3    H225093   2.707   4.547  10.830 -0.7180 -0.5185 -0.0248
  300TIP3   OH225094   3.115   2.090  11.887  0.3547 -0.0315  0.1290
  300TIP3    H125095   3.113   2.129  11.799 -1.2899  1.0327  0.5940
  300TIP3    H225096   3.154   2.004  11.874  2.6101  1.0800 -1.2227
  301TIP3   OH225097   5.333   3.998  11.420  0.1387 -0.4588  0.7317
  301TIP3    H125098   5.387   4.005  11.342  1.4755  2.3909  1.7760
  301TIP3    H225099   5.244   4.014  11.390  0.7550  1.6612 -0.1433
  302TIP3   OH225100   5.443   0.043  10.571  0.5671  0.2128  0.1498
  302TIP3    H125101   5.463   0.055  10.664  1.6148  0.7732 -0.1363
  302TIP3    H225102   5.405   0.127  10.544 -0.8832 -0.3528  0.3384
  303TIP3   OH225103   2.417   0.850  11.374  0.5150 -0.0190  0.1137
  303TIP3    H125104   2.354   0.898  11.319  0.5504  0.4738  0.4923
  303TIP3    H225105   2.368   0.774  11.405  0.8762 -1.0291 -1.6390
  304TIP3   OH225106   2.118   4.417  10.642  0.2566 -0.7102 -0.1400
  304TIP3    H125107   2.122   4.402  10.547 -0.6211 -0.2933 -0.2515
  304TIP3    H225108   2.181   4.355  10.678  1.4445 -0.1011 -1.0836
  305TIP3   OH225109   3.222   3.918  11.734 -0.0875  0.1724 -0.0675
  305TIP3    H125110   3.209   3.992  11.675 -0.1466 -0.0882 -0.3848
  305TIP3    H225111   3.168   3.938  11.811 -1.3546 -0.2819 -0.8112
  306TIP3   OH225112   7.285   3.504  11.916  0.0155  0.3349  0.2308
  306TIP3    H125113   7.295   3.515  11.822 -0.0116  1.3839  0.3303
  306TIP3    H225114   7.305   3.412  11.932  0.3035  0.2088 -0.7596
  307TIP3   OH225115   0.435   4.975  12.007  0.5938 -0.2577  0.2517
  307TIP3    H125116   0.442   4.904  11.944  2.3031 -0.4225  0.5737
  307TIP3    H225117   0.519   4.975  12.052  0.6650  1.9918  0.2323
  308TIP3   OH225118   3.654   3.014  12.510 -0.0594  0.1309 -0.7103
  308TIP3    H125119   3.634   3.104  12.533 -0.1471 -0.0489 -0.0496
  308TIP3    H225120   3.609   2.999  12.427  1.1758  1.1391 -1.6121
  309TIP3   OH225121   3.297   7.563  12.497  0.2542 -0.0211 -0.3165
  309TIP3    H125122   3.212   7.597  12.467  0.1639 -0.1503 -0.2082
  309TIP3    H225123   3.274   7.487  12.550  0.3030  1.1344  1.4563
  310TIP3   OH225124   6.682   1.060  11.631  0.1612  0.0712 -0.1459
  310TIP3    H125125   6.678   0.989  11.696  1.0924 -0.5396 -0.7376
  310TIP3    H225126   6.723   1.020  11.554 -3.3972 -0.0866 -2.2208
  311TIP3   OH225127   7.395   5.430  11.451  0.5172 -1.1160 -0.3755
  311TIP3    H125128   7.330   5.498  11.433  1.6075  0.3308  0.8286
  311TIP3    H225129   7.352   5.348  11.428 -1.4334 -0.1573 -0.3192
  312TIP3   OH225130   5.207   4.333  11.337  0.2413  0.1958 -0.4515
  312TIP3    H125131   5.222   4.422  11.306 -0.6643  1.6271  2.7684
  312TIP3    H225132   5.277   4.318  11.401 -0.7729 -0.5484  0.5351
  313TIP3   OH225133   3.899   3.653  12.341  0.1141 -0.0153 -1.0616
  313TIP3    H125134   3.961   3.587  12.310 -0.1014 -0.6899 -0.0975
  313TIP3    H225135   3.941   3.690  12.419 -2.3961 -3.4971  2.2951
  314TIP3   OH225136   2.532   7.550  10.859 -0.4627 -0.2129  0.0588
  314TIP3    H125137   2.586   7.502  10.922  2.5508 -0.7602 -2.6815
  314TIP3    H225138   2.528   7.639  10.894 -0.9052 -0.9706  2.1145
  315TIP3   OH225139   7.524   5.282  12.450 -0.3958 -0.3329  0.3791
  315TIP3    H125140   7.482   5.203  12.415  0.8897 -0.8857  0.0293
  315TIP3    H225141   7.531   5.340  12.374 -2.2320  0.5448  0.8407
  316TIP3   OH225142   7.121   6.610  12.004  0.0536 -0.4073 -0.4289
  316TIP3    H125143   7.106   6.555  12.081  0.6895  0.1251  0.0855
  316TIP3    H225144   7.036   6.648  11.984  0.0427  0.0472  0.4710
  317TIP3   OH225145   5.885   5.237  12.686  0.1319  0.8499 -0.1469
  317TIP3    H125146   5.959   5.265  12.740 -0.4301  1.9046  0.1112
  317TIP3    H225147   5.832   5.316  12.675 -1.2117  0.0217  0.0887
  318TIP3   OH225148   6.874   3.272  10.697  0.3579 -0.3784  0.0787
  318TIP3    H125149   6.900   3.337  10.632  0.0058 -1.1820 -0.8837
  318TIP3    H225150   6.781   3.288  10.711  0.3393 -0.4858  0.0728
  319TIP3   OH225151   1.603   7.271  12.080  0.7296 -0.1993 -0.1249
  319TIP3    H125152   1.683   7.241  12.038  2.3657  0.6060  2.2030
  319TIP3    H225153   1.609   7.367  12.077 -1.5088 -0.0149 -2.2054
  320TIP3   OH225154   5.517   2.903  11.697 -0.0782 -0.4425  0.1828
  320TIP3    H125155   5.495   2.996  11.711 -3.4125 -1.3131  1.6937
  320TIP3    H225156   5.504   2.890  11.603 -1.2285  0.2915  0.2119
  321TIP3   OH225157   7.497   3.229  13.104 -0.3437 -0.0514 -0.1492
  321TIP3    H125158   7.403   3.216  13.099 -0.5128  0.2593  1.4584
  321TIP3    H225159   7.516   3.293  13.036 -1.3310  0.0345 -0.3570
  322TIP3   OH225160   6.822   5.420  12.221 -0.5574  0.8136 -0.6771
  322TIP3    H125161   6.800   5.510  12.244 -0.5213  0.2528  1.8995
  322TIP3    H225162   6.764   5.399  12.147 -2.4587  2.1396  0.3510
  323TIP3   OH225163   3.877   5.672  17.200 -0.2618 -0.3169  0.7326
  323TIP3    H125164   3.944   5.603  17.200 -1.4832 -1.5495 -0.3841
  323TIP3    H225165   3.802   5.633  17.246 -1.6854 -0.5179 -1.6262
  324TIP3   OH225166   6.032   4.448  17.388 -0.4038 -0.2970 -0.3344
  324TIP3    H125167   6.028   4.475  17.479  0.0627 -0.9476 -0.1116
  324TIP3    H225168   6.114   4.485  17.355 -1.3865  1.3983 -0.9921
  325TIP3   OH225169   0.065   2.887  18.333 -0.2266  0.3786 -0.3208
  325TIP3    H125170   0.133   2.925  18.388 -0.5803 -0.6053  0.8556
  325TIP3    H225171   0.018   2.827  18.391 -0.5164 -0.8519 -1.7452
  326TIP3   OH225172   4.667   2.894  17.914  0.0669 -0.1258  0.2822
  326TIP3    H125173   4.693   2.828  17.978 -2.6259 -2.3488 -0.6940
  326TIP3    H225174   4.612   2.954  17.964  0.2937 -0.1932  0.6220
  327TIP3   OH225175   4.975   7.252  19.073 -0.4150  0.6595  0.0102
  327TIP3    H125176   4.888   7.223  19.047 -0.4949 -1.4319  2.2116
  327TIP3    H225177   5.033   7.218  19.005 -1.1389  0.6696 -0.6302
  328TIP3   OH225178   0.021   2.404  18.444 -0.4660 -0.1286  0.4661
  328TIP3    H125179   0.083   2.332  18.439  1.2413  1.3177 -0.3514
  328TIP3    H225180  -0.044   2.376  18.509  2.1001 -0.9287  2.8834
  329TIP3   OH225181   1.088   2.842  18.034 -0.1527 -0.5005 -0.8167
  329TIP3    H125182   1.015   2.816  18.089 -0.5090  0.7953 -0.6340
  329TIP3    H225183   1.047   2.867  17.951  0.4189 -2.9002 -1.9004
  330TIP3   OH225184   1.103   0.383  17.272 -0.0017  0.1893 -0.4727
  330TIP3    H125185   1.066   0.439  17.204  2.1224  0.1379 -1.7389
  330TIP3    H225186   1.166   0.328  17.227 -1.6182 -2.9870  0.7966
  331TIP3   OH225187   0.939   3.222  17.277  0.2465  0.1403  0.0243
  331TIP3    H125188   0.956   3.219  17.371 -2.1308  0.7957  0.5451
  331TIP3    H225189   0.965   3.310  17.250 -0.0514  0.3059  0.2820
  332TIP3   OH225190   3.013   5.632  17.079 -0.3750 -0.5743 -0.3718
  332TIP3    H125191   3.024   5.682  17.160 -1.3248 -0.2295 -0.4433
  332TIP3    H225192   2.984   5.696  17.015 -2.2858 -1.3181 -0.2911
  333TIP3   OH225193   6.554   1.631  17.074  0.2376  0.5110  0.0565
  333TIP3    H125194   6.511   1.715  17.058  1.4810  0.9914 -0.9056
  333TIP3    H225195   6.646   1.645  17.051  0.3102 -1.3542 -1.0277
  334TIP3   OH225196   7.515   0.978  19.328  0.3780  0.4167  0.5898
  334TIP3    H125197   7.487   0.909  19.268  1.0088 -0.5181  1.3521
  334TIP3    H225198   7.444   1.043  19.324  0.2835  0.2610 -0.9559
  335TIP3   OH225199   3.875   1.109  18.650 -0.0308 -0.5151 -0.3284
  335TIP3    H125200   3.866   1.107  18.745 -1.0610 -0.1932 -0.4121
  335TIP3    H225201   3.833   1.029  18.619  1.4836 -1.3095 -0.4527
  336TIP3   OH225202   5.422   7.623  16.760  0.1948 -0.0604  0.0552
  336TIP3    H125203   5.446   7.597  16.848  0.7933  1.6881  0.4625
  336TIP3    H225204   5.505   7.633  16.714  0.1073  1.9038  0.2135
  337TIP3   OH225205   5.339   0.057  18.861 -0.0209  0.6799 -0.7213
  337TIP3    H125206   5.314   0.010  18.782  0.7837  0.8391 -1.0869
  337TIP3    H225207   5.412   0.113  18.833  0.5850  0.3887  0.2228
  338TIP3   OH225208   3.084   0.675  18.055 -0.7696 -0.4053  0.3680
  338TIP3    H125209   2.989   0.680  18.065 -0.9335  0.3608 -1.2140
  338TIP3    H225210   3.097   0.650  17.964  0.5480  1.3067  0.0290
  339TIP3   OH225211   1.577   1.863  18.707  0.2357  0.5037  0.2728
  339TIP3    H125212   1.626   1.920  18.647  0.6297  1.3111  1.3222
  339TIP3    H225213   1.644   1.808  18.747 -0.0275 -0.0331 -0.0160
  340TIP3   OH225214   3.170   5.924  17.001 -0.0726  0.6051  0.2198
  340TIP3    H125215   3.211   5.959  16.923 -2.4087  1.1584 -0.8475
  340TIP3    H225216   3.091   5.880  16.970 -0.3379 -0.4044  2.1297
  341TIP3   OH225217   0.310   3.836  16.646  0.5618 -0.0036 -0.0508
  341TIP3    H125218   0.244   3.900  16.672 -1.0820 -1.2511 -0.9310
  341TIP3    H225219   0.296   3.823  16.552 -0.8701 -3.3778  0.4802
  342TIP3   OH225220   3.975   2.117  18.200  0.2707  0.3511  0.2092
  342TIP3    H125221   4.026   2.124  18.119  0.2756 -1.2915  0.0344
  342TIP3    H225222   3.970   2.023  18.217 -0.0914  0.6389  1.8983
  343TIP3   OH225223   4.260   4.060  18.338  0.2421  0.2755  0.5852
  343TIP3    H125224   4.263   3.965  18.334 -3.1130  0.1203 -1.0278
  343TIP3    H225225   4.177   4.080  18.381  0.0749  2.4540 -0.5949
  344TIP3   OH225226   0.038   2.343  16.970 -0.4162  0.1371  0.4549
  344TIP3    H125227   0.010   2.425  16.930 -0.5486 -0.2676 -0.2911
  344TIP3    H225228   0.024   2.357  17.064 -0.0390  1.1183  0.3864
  345TIP3   OH225229   4.912   6.219  18.866 -0.1314  0.1913 -0.0702
  345TIP3    H125230   4.996   6.188  18.832  0.1901  0.5799  0.3634
  345TIP3    H225231   4.857   6.140  18.868  0.1444 -0.0224 -0.5753
  346TIP3   OH225232   2.073   0.798  19.416  0.1740  0.0442 -0.6632
  346TIP3    H125233   2.105   0.765  19.332 -1.1643  0.1710 -1.2527
  346TIP3    H225234   2.137   0.864  19.442  0.5879  0.0392 -1.6141
  347TIP3   OH225235   0.818   4.306  17.096 -0.2463 -0.0094 -0.0420
  347TIP3    H125236   0.780   4.350  17.020  0.1608 -2.2066 -1.6158
  347TIP3    H225237   0.766   4.227  17.106  2.2947 -1.9144 -0.8022
  348TIP3   OH225238   0.491   0.082  19.516 -0.6318  0.5182  0.2207
  348TIP3    H125239   0.573   0.092  19.564  0.2829 -0.7771 -1.0310
  348TIP3    H225240   0.464   0.172  19.496  0.6488  0.9463  0.3582
  349TIP3   OH225241   7.312   5.305  17.468 -0.2145 -0.6286 -0.8644
  349TIP3    H125242   7.336   5.372  17.404  2.4206  1.8881  2.4230
  349TIP3    H225243   7.357   5.226  17.437  0.4276  0.2876 -2.4102
  350TIP3   OH225244   0.853   0.215  19.247 -0.4061  0.0963  0.4246
  350TIP3    H125245   0.856   0.129  19.288 -1.3430 -0.1393  0.0206
  350TIP3    H225246   0.916   0.210  19.175 -1.3385 -0.6747 -0.3664
  351TIP3   OH225247   2.180   1.164  16.742  0.3495 -0.3725  0.1739
  351TIP3    H125248   2.273   1.184  16.751  0.2405  0.0323  0.4356
  351TIP3    H225249   2.161   1.174  16.649  1.0063 -2.4104 -0.2322
  352TIP3   OH225250   5.178   0.692  17.630  0.4004  0.1265 -0.4827
  352TIP3    H125251   5.207   0.716  17.542 -0.3998  1.3238 -0.4427
  352TIP3    H225252   5.083   0.684  17.621  0.3753 -0.3009  0.1553
  353TIP3   OH225253   6.253   3.110  17.710 -0.2197 -0.1155  0.3274
  353TIP3    H125254   6.235   3.021  17.680  1.5445  0.2629 -2.1831
  353TIP3    H225255   6.173   3.159  17.691 -0.9276 -0.9739  1.0162
  354TIP3   OH225256   2.962   1.778  19.240  0.1769  0.3933  0.0349
  354TIP3    H125257   2.990   1.719  19.171  3.0601  1.0169  0.5463
  354TIP3    H225258   2.899   1.727  19.291  0.3202 -1.1523 -1.2519
  355TIP3   OH225259   7.312   6.893  17.301  0.0484 -0.1324 -0.7043
  355TIP3    H125260   7.364   6.839  17.360 -0.6321 -1.6389 -1.4222
  355TIP3    H225261   7.222   6.879  17.329 -0.2293 -0.3308 -1.6395
  356TIP3   OH225262   7.239   3.500  18.308  0.3465  0.0311  0.3177
  356TIP3    H125263   7.250   3.429  18.371  0.7237 -0.1863  0.0073
  356TIP3    H225264   7.181   3.464  18.241 -1.8486  0.9433  1.5977
  357TIP3   OH225265   6.913   6.020  19.424  0.5622 -0.0699  0.3041
  357TIP3    H125266   6.947   6.035  19.513  2.8760  5.4222 -1.1038
  357TIP3    H225267   6.822   6.049  19.429  0.6146  0.0112  0.9640
  358TIP3   OH225268   4.438   3.218  19.133 -0.2010 -0.2672 -0.2156
  358TIP3    H125269   4.480   3.264  19.060 -0.0526  0.1548  0.1317
  358TIP3    H225270   4.392   3.145  19.092  0.9341 -0.7988 -0.5996
  359TIP3   OH225271   1.505   6.401  19.240 -0.1027  0.1626 -0.6220
  359TIP3    H125272   1.537   6.371  19.324 -1.9431  0.2871  0.1850
  359TIP3    H225273   1.488   6.321  19.190  0.6000  0.0777 -0.7343
  360TIP3   OH225274   6.396   6.882  19.037 -0.6399  0.0862  0.2181
  360TIP3    H125275   6.487   6.868  19.012 -0.7384 -0.2328  0.0460
  360TIP3    H225276   6.387   6.836  19.120 -0.7606 -0.2426  0.0221
  361TIP3   OH225277   4.454   1.199  17.627  0.2149 -0.2832  1.0010
  361TIP3    H125278   4.383   1.249  17.587  0.4638 -1.1075 -0.5288
  361TIP3    H225279   4.534   1.235  17.590  0.4312 -1.3519  0.3765
  362TIP3   OH225280   4.333   7.477  18.205 -0.2103  0.8274  0.4770
  362TIP3    H125281   4.331   7.573  18.209 -0.1013  0.8671 -0.3072
  362TIP3    H225282   4.418   7.456  18.168 -0.7616  0.4826 -0.6431
  363TIP3   OH225283   4.763   4.528  18.068  0.4335  0.1448  0.2936
  363TIP3    H125284   4.739   4.503  18.157 -1.0062 -2.3984 -0.7025
  363TIP3    H225285   4.842   4.476  18.050 -0.0491 -0.3854 -0.3381
  364TIP3   OH225286   6.888   6.839  18.766  0.4610  0.0979  0.1110
  364TIP3    H125287   6.835   6.790  18.703  1.0982  0.2757 -0.5702
  364TIP3    H225288   6.973   6.794  18.766  0.7572  0.6578  0.1527
  365TIP3   OH225289   7.664   0.824  17.453 -0.1892  0.6925  0.0134
  365TIP3    H125290   7.570   0.815  17.438 -0.1079 -1.9178  0.5696
  365TIP3    H225291   7.697   0.734  17.449  1.8557  1.2365  2.5055
  366TIP3   OH225292   7.593   0.763  18.102  0.4485  0.6041  0.1756
  366TIP3    H125293   7.499   0.763  18.121  0.5830  0.8937  0.8656
  366TIP3    H225294   7.597   0.757  18.006 -0.2431 -0.9010  0.2160
  367TIP3   OH225295   0.258   0.242  17.511 -0.1269 -0.1814 -0.9405
  367TIP3    H125296   0.296   0.275  17.430 -0.7496  1.2048 -0.6958
  367TIP3    H225297   0.167   0.221  17.490 -0.5291  0.9702 -0.4287
  368TIP3   OH225298   3.435   3.316  18.126 -0.1497 -0.0243  0.0290
  368TIP3    H125299   3.473   3.401  18.149 -0.2510 -0.2194  0.9476
  368TIP3    H225300   3.373   3.297  18.196 -1.9062  0.2310 -1.3946
  369TIP3   OH225301   3.449   5.216  17.779 -0.1109  0.4292  0.4863
  369TIP3    H125302   3.447   5.188  17.870  1.0407  1.0396  0.7163
  369TIP3    H225303   3.507   5.292  17.778  0.5120 -0.0275 -0.8722
  370TIP3   OH225304   0.659   6.078  18.674  0.3019  0.0849  0.1401
  370TIP3    H125305   0.661   6.157  18.727 -2.3269 -0.8133  1.7750
  370TIP3    H225306   0.598   6.098  18.603  1.7365  0.3688 -1.0648
  371TIP3   OH225307   6.830   1.980  18.506  0.1537  0.3684  0.2623
  371TIP3    H125308   6.795   1.943  18.425 -0.9480  2.2510 -0.1980
  371TIP3    H225309   6.918   1.945  18.513  0.3373  0.2843 -1.8499
  372TIP3   OH225310   4.830   6.148  17.518  0.2058 -0.4212  0.3467
  372TIP3    H125311   4.793   6.215  17.574 -0.3335 -2.1065  2.1189
  372TIP3    H225312   4.856   6.078  17.578  0.5188 -1.9036 -1.4210
  373TIP3   OH225313   4.462   1.050  16.834 -0.3820 -0.6480 -0.1343
  373TIP3    H125314   4.478   1.140  16.863 -0.7556  0.0007 -1.8438
  373TIP3    H225315   4.501   0.996  16.903  0.4973  0.8220  0.5749
  374TIP3   OH225316   4.610   6.651  19.407 -0.3357  0.2670 -0.5280
  374TIP3    H125317   4.561   6.582  19.452 -0.0255 -0.6092 -1.5057
  374TIP3    H225318   4.665   6.605  19.344 -0.7160  1.4695 -1.7784
  375TIP3   OH225319   2.873   5.264  17.728  0.4155  0.4271  0.7358
  375TIP3    H125320   2.910   5.177  17.713  0.9670  0.9086 -0.9798
  375TIP3    H225321   2.935   5.306  17.788  0.9327  0.1265  0.4182
  376TIP3   OH225322   1.609   4.767  18.619 -0.0273  0.2712  0.1757
  376TIP3    H125323   1.537   4.717  18.578  0.3364 -1.1829  1.2262
  376TIP3    H225324   1.598   4.856  18.585 -1.7340 -0.1269 -0.4563
  377TIP3   OH225325   3.866   0.214  19.299  0.0710 -0.5457 -0.4707
  377TIP3    H125326   3.891   0.121  19.293  1.3881 -0.0953 -2.8674
  377TIP3    H225327   3.949   0.261  19.293 -0.6597  0.8442  0.0147
  378TIP3   OH225328   7.462   3.140  17.869 -0.3217 -0.3359  1.0039
  378TIP3    H125329   7.547   3.125  17.911 -0.2776 -0.8646  0.7235
  378TIP3    H225330   7.463   3.085  17.791 -0.6173  0.2444  0.5840
  379TIP3   OH225331   4.006   2.427  19.348  0.0890  0.4370  0.1000
  379TIP3    H125332   4.025   2.483  19.272  1.2100 -0.2857 -0.1718
  379TIP3    H225333   3.948   2.481  19.403  0.6030  1.6188 -0.4665
  380TIP3   OH225334   1.778   7.208  19.753  0.3077  0.1408 -0.0972
  380TIP3    H125335   1.741   7.145  19.814 -2.5811 -1.0545 -2.8285
  380TIP3    H225336   1.718   7.282  19.755  2.8405  2.3815  1.9335
  381TIP3   OH225337   3.889   4.404  18.749 -0.2319 -0.2252 -0.1303
  381TIP3    H125338   3.883   4.319  18.792 -0.5990  0.1783  0.6168
  381TIP3    H225339   3.984   4.419  18.740 -0.1609 -0.4601  0.2197
  382TIP3   OH225340   5.216   7.152  18.556 -0.2384  0.0298 -0.0343
  382TIP3    H125341   5.281   7.086  18.578 -1.0307 -0.4746  0.8603
  382TIP3    H225342   5.133   7.116  18.588 -0.9869  0.5992 -1.2468
  383TIP3   OH225343   3.352   5.313  17.463 -0.3053 -0.1521  0.0584
  383TIP3    H125344   3.408   5.305  17.540 -1.6983 -1.4448  1.0072
  383TIP3    H225345   3.353   5.406  17.442  2.1535 -0.1099  0.0206
  384TIP3   OH225346   4.903   1.463  18.183  0.3461  0.7678 -0.1085
  384TIP3    H125347   4.830   1.421  18.138  1.0849 -1.4510  0.6462
  384TIP3    H225348   4.892   1.438  18.275  2.1902  0.1786 -0.0284
  385TIP3   OH225349   0.574   0.052  18.856 -0.5555  0.2016 -0.7435
  385TIP3    H125350   0.600   0.032  18.766 -0.8579  0.6885 -0.9463
  385TIP3    H225351   0.588   0.147  18.864 -1.1164  0.2654 -0.4789
  386TIP3   OH225352   3.386   0.513  17.944  0.2548 -0.2233 -0.1858
  386TIP3    H125353   3.425   0.458  17.876 -0.5900 -0.5747 -0.4007
  386TIP3    H225354   3.301   0.540  17.907 -1.5293 -2.6754  1.7570
  387TIP3   OH225355   6.336   7.301  17.059  0.1868  0.2986  0.4082
  387TIP3    H125356   6.364   7.379  17.009 -1.6814  0.7174 -0.0469
  387TIP3    H225357   6.262   7.331  17.111  0.3800 -0.8357  1.3801
  388TIP3   OH225358   3.056   7.035  16.649  0.4692 -0.5754  0.1391
  388TIP3    H125359   3.141   7.041  16.693  0.8991 -0.6364 -0.6799
  388TIP3    H225360   3.075   6.995  16.565  0.4127  3.4467 -2.0410
  389TIP3   OH225361   0.806   7.015  18.872 -0.1853 -0.3205  0.5191
  389TIP3    H125362   0.877   6.970  18.826 -0.5095 -1.5760  1.2007
  389TIP3    H225363   0.787   7.092  18.818  0.1228 -1.2061 -0.9082
  390TIP3   OH225364   4.677   4.219  17.048 -0.0966  0.2650 -0.5861
  390TIP3    H125365   4.675   4.285  16.978 -1.3537  3.7433  2.4238
  390TIP3    H225366   4.629   4.144  17.011 -4.2188  3.3689 -2.2822
  391TIP3   OH225367   1.174   6.046  17.524  0.0770  0.0913  0.1568
  391TIP3    H125368   1.132   6.122  17.484  0.7847  0.5452  0.2579
  391TIP3    H225369   1.212   5.998  17.451 -0.8543 -0.4864  0.0328
  392TIP3   OH225370   0.583   6.230  18.930 -0.5649 -0.8035 -0.5151
  392TIP3    H125371   0.575   6.310  18.879 -1.4205 -0.9213 -0.5709
  392TIP3    H225372   0.523   6.241  19.004  0.8215 -0.5393  0.6097
  393TIP3   OH225373   2.437   5.648  19.084  0.7595  0.0753  0.4665
  393TIP3    H125374   2.489   5.575  19.051  0.1527 -0.0401 -0.2690
  393TIP3    H225375   2.385   5.610  19.155  1.7316  0.2166  1.2707
  394TIP3   OH225376   5.291   6.141  17.439  0.6200 -0.0842 -0.3919
  394TIP3    H125377   5.242   6.195  17.501 -0.1412  0.0462 -1.0885
  394TIP3    H225378   5.349   6.202  17.393  0.0926  0.0677 -0.8579
  395TIP3   OH225379   3.658   3.464  18.239  0.1796 -0.5677 -0.2855
  395TIP3    H125380   3.586   3.462  18.303  1.0925 -0.2146  0.7741
  395TIP3    H225381   3.715   3.392  18.264  1.1753  0.3193  0.0643
  396TIP3   OH225382   2.163   7.516  19.873  0.0577  0.1686  0.9140
  396TIP3    H125383   2.118   7.501  19.790  2.5058 -2.8964 -0.0121
  396TIP3    H225384   2.253   7.536  19.849  0.3351  1.5414  2.8298
  397TIP3   OH225385   3.030   3.834  17.310  0.2939 -0.4050  0.0401
  397TIP3    H125386   3.063   3.747  17.286  1.9175  0.1202  0.2299
  397TIP3    H225387   2.935   3.823  17.313  0.3657 -1.8401 -1.2424
  398TIP3   OH225388   4.744   6.943  17.542 -0.0933  0.0402  0.3934
  398TIP3    H125389   4.781   6.960  17.629 -0.0866 -0.1498  0.4270
  398TIP3    H225390   4.764   6.851  17.525  0.9208  0.3648 -0.2950
  399TIP3   OH225391   4.164   0.142  19.678  0.2298 -0.0511 -0.2245
  399TIP3    H125392   4.149   0.164  19.770 -1.0437 -0.7837 -0.2250
  399TIP3    H225393   4.078   0.152  19.637  0.8750  0.6880 -1.4409
  400TIP3   OH225394   7.281   5.577  17.343  0.5375  0.1769 -0.2625
  400TIP3    H125395   7.217   5.646  17.358 -0.9264 -1.2196  0.2463
  400TIP3    H225396   7.362   5.612  17.379 -0.3017  1.3875  0.5370
  401TIP3   OH225397   6.991   6.633  17.683  0.2142 -0.0081 -0.4164
  401TIP3    H125398   7.040   6.715  17.685 -0.4275  0.4590 -2.2170
  401TIP3    H225399   7.058   6.566  17.669  0.4882  0.5513 -2.0564
  402TIP3   OH225400   1.604   4.949  17.708  0.0732 -0.0737 -0.0499
  402TIP3    H125401   1.608   5.002  17.629 -0.0276 -0.1706 -0.1208
  402TIP3    H225402   1.538   4.993  17.763 -0.5930 -0.5736 -0.4390
  403TIP3   OH225403   1.015   4.366  16.756 -0.0758 -0.4423  0.1111
  403TIP3    H125404   1.100   4.351  16.716 -0.0549  0.1231 -0.0675
  403TIP3    H225405   1.034   4.383  16.848  0.1670  1.2190 -0.2100
  404TIP3   OH225406   7.074   1.348  19.081  0.2318 -0.4796 -0.0500
  404TIP3    H125407   6.982   1.358  19.107  0.6729 -0.2228  1.4991
  404TIP3    H225408   7.070   1.336  18.986 -1.2500  1.8733 -0.3630
  405TIP3   OH225409   1.821   7.091  18.284 -0.0889  0.2637 -0.2074
  405TIP3    H125410   1.845   7.088  18.377 -0.9659  2.5661  0.1384
  405TIP3    H225411   1.749   7.029  18.277  2.2514 -2.7015 -0.1820
  406TIP3   OH225412   5.242   0.694  17.916  0.0466 -0.1847 -0.2617
  406TIP3    H125413   5.213   0.682  17.825  1.2542 -0.5388 -0.6109
  406TIP3    H225414   5.276   0.608  17.942  1.2203  0.3313 -0.0351
  407TIP3   OH225415   3.706   7.254  17.229  1.0106 -0.1858 -0.0660
  407TIP3    H125416   3.682   7.176  17.279  1.1683 -0.0734  0.1839
  407TIP3    H225417   3.691   7.327  17.289  1.2353 -0.0527 -0.1715
  408TIP3   OH225418   1.789   4.437  17.693 -0.9229 -0.6842 -0.0425
  408TIP3    H125419   1.704   4.397  17.708  0.0997 -2.3839  1.6873
  408TIP3    H225420   1.794   4.448  17.598 -4.0560  1.9429 -0.0640
  409TIP3   OH225421   1.895   1.294  19.212  0.4150  0.2602 -0.1632
  409TIP3    H125422   1.961   1.239  19.255  0.0899 -0.1998 -0.2429
  409TIP3    H225423   1.937   1.323  19.131  0.4138 -0.2957 -0.3713
  410TIP3   OH225424   1.280   2.230  18.835  0.1462 -0.0828 -0.3734
  410TIP3    H125425   1.290   2.184  18.752  0.1298 -3.0720  1.1499
  410TIP3    H225426   1.346   2.299  18.833  1.2865 -1.1664 -2.1669
  411TIP3   OH225427   3.375   4.302  16.661 -0.2725 -0.8390  0.5552
  411TIP3    H125428   3.324   4.227  16.689  1.6078 -1.9100  1.3094
  411TIP3    H225429   3.414   4.275  16.578 -0.4902 -0.2502  0.2578
  412TIP3   OH225430   1.240   1.633  17.119  0.2118  0.6906 -0.3170
  412TIP3    H125431   1.321   1.610  17.165  1.0768  2.5477 -0.8508
  412TIP3    H225432   1.229   1.563  17.054  1.3423  0.3581 -0.1730
  413TIP3   OH225433   3.166   3.086  17.897  0.0299  0.2012  0.2905
  413TIP3    H125434   3.205   3.028  17.832 -0.3649  0.3151 -0.0527
  413TIP3    H225435   3.197   3.174  17.872 -0.8264  0.3526 -0.2776
  414TIP3   OH225436   1.600   4.156  16.910 -0.4702 -0.6904  0.1347
  414TIP3    H125437   1.545   4.122  16.840 -1.3898 -1.7198  1.2986
  414TIP3    H225438   1.567   4.244  16.927 -1.3239 -1.0526  0.3743
  415TIP3   OH225439   3.715   4.969  17.923  0.0225 -0.2628 -0.5313
  415TIP3    H125440   3.722   4.878  17.894  2.4836 -0.1401 -0.5375
  415TIP3    H225441   3.704   5.019  17.842  0.8797 -0.3901 -0.7312
  416TIP3   OH225442   1.758   0.415  18.092 -0.6105  0.0261 -0.2898
  416TIP3    H125443   1.682   0.400  18.035 -0.4860  2.0838 -1.0836
  416TIP3    H225444   1.750   0.506  18.119  2.1985  0.6867 -1.3913
  417TIP3   OH225445   7.019   5.745  17.285  0.0541 -0.3173 -0.3398
  417TIP3    H125446   6.971   5.811  17.335  0.0859 -1.3760  1.1521
  417TIP3    H225447   6.969   5.736  17.204 -0.4016  0.9468 -0.2165
  418TIP3   OH225448   2.012   0.925  16.485  0.0882 -0.6686 -0.3833
  418TIP3    H125449   1.958   0.971  16.421 -1.2956 -0.2650  1.0004
  418TIP3    H225450   2.100   0.930  16.450  0.2686  3.9630  0.0152
  419TIP3   OH225451   3.165   0.235  19.374 -0.0717 -0.0301  0.3074
  419TIP3    H125452   3.172   0.235  19.278 -1.1803 -0.4672  0.2198
  419TIP3    H225453   3.074   0.256  19.392 -0.2913 -1.6051  1.2269
  420TIP3   OH225454   3.092   4.484  19.055 -0.3345 -0.1654 -0.4684
  420TIP3    H125455   3.000   4.480  19.029 -0.7072 -0.0326  0.7612
  420TIP3    H225456   3.111   4.577  19.064 -0.5196 -0.2249  0.7025
  421TIP3   OH225457   3.666   2.419  19.421 -0.5429 -0.2561 -0.2762
  421TIP3    H125458   3.692   2.327  19.431 -1.7601 -0.6122 -0.1748
  421TIP3    H225459   3.648   2.448  19.511  0.7125  0.3687 -0.2095
  422TIP3   OH225460   7.483   7.297  18.078 -0.0090  0.1069  0.0982
  422TIP3    H125461   7.518   7.386  18.082 -1.1932  0.5735  0.7307
  422TIP3    H225462   7.506   7.266  17.991 -0.6872  1.5295 -0.6241
  423TIP3   OH225463   5.065   6.622  18.027 -0.7298  0.0504  0.0098
  423TIP3    H125464   5.097   6.599  18.115  2.3211 -2.8583 -1.6263
  423TIP3    H225465   5.106   6.707  18.009  3.0982 -1.6409 -0.3624
  424TIP3   OH225466   2.705   7.146  18.811 -0.2044  0.0159 -0.7056
  424TIP3    H125467   2.678   7.176  18.724  0.4919 -1.1872 -1.3711
  424TIP3    H225468   2.798   7.125  18.800 -0.1440 -0.2662  0.3139
  425TIP3   OH225469   2.293   7.495  17.195 -0.1945  0.1609 -0.0201
  425TIP3    H125470   2.211   7.469  17.238  0.7817 -2.3424  0.4594
  425TIP3    H225471   2.333   7.413  17.167  2.5335  1.2557  0.4010
  426TIP3   OH225472   2.802   6.659  17.898 -0.2658 -0.2743 -0.9410
  426TIP3    H125473   2.770   6.725  17.959  1.2902  0.4136 -0.8059
  426TIP3    H225474   2.794   6.700  17.812  0.1553 -0.1152 -0.9101
  427TIP3   OH225475   2.627   5.794  18.942  0.0157  0.4095 -0.3554
  427TIP3    H125476   2.614   5.872  18.888 -0.1867 -0.3232 -1.3893
  427TIP3    H225477   2.540   5.776  18.979 -0.9882 -1.6303 -3.3511
  428TIP3   OH225478   2.409   1.215  17.733 -0.3581  0.2561  0.2244
  428TIP3    H125479   2.418   1.243  17.824  0.1565 -0.3293  0.3587
  428TIP3    H225480   2.496   1.229  17.695 -0.3023 -0.4127  0.0869
  429TIP3   OH225481   5.326   4.245  17.830  0.2458 -0.0095 -0.2245
  429TIP3    H125482   5.301   4.327  17.788  1.7582  0.7648  0.3105
  429TIP3    H225483   5.311   4.178  17.763 -0.0154  0.8341 -1.0337
  430TIP3   OH225484   0.065   6.400  18.713  0.3401 -0.3060 -0.6925
  430TIP3    H125485   0.026   6.413  18.626 -0.1252 -1.7503 -0.7295
  430TIP3    H225486   0.060   6.306  18.728  0.0301 -0.0452  1.0963
  431TIP3   OH225487   4.944   6.121  19.437  0.0104 -0.7587  0.4040
  431TIP3    H125488   5.028   6.166  19.422 -1.2733  1.4567 -0.7458
  431TIP3    H225489   4.936   6.060  19.364 -0.9050  1.6117 -1.6205
  432TIP3   OH225490   2.221   3.733  19.156  0.8782  0.0566 -0.5889
  432TIP3    H125491   2.159   3.780  19.213  2.3823  1.0236  0.3173
  432TIP3    H225492   2.246   3.798  19.090  1.5328 -0.0580 -0.4599
  433TIP3   OH225493   6.132   1.102  18.605  0.0011 -0.1186  0.1450
  433TIP3    H125494   6.120   1.025  18.550  1.1961 -0.6629  0.6148
  433TIP3    H225495   6.107   1.072  18.693 -1.6492  0.6694 -0.0153
  434TIP3   OH225496   6.868   0.782  18.671  0.0600 -0.0622  0.4095
  434TIP3    H125497   6.818   0.800  18.591 -0.7681 -1.1949  0.6600
  434TIP3    H225498   6.802   0.761  18.737  0.7290  0.9100  1.4310
  435TIP3   OH225499   7.484   4.268  18.850  0.2162  0.2587  0.0846
  435TIP3    H125500   7.539   4.344  18.830  1.1275  0.2254  2.1890
  435TIP3    H225501   7.404   4.306  18.886  0.1195  0.2372 -0.1050
  436TIP3   OH225502   6.483   3.874  19.217  0.3371 -0.1430  0.0086
  436TIP3    H125503   6.423   3.808  19.252 -0.2982  0.3302 -0.1717
  436TIP3    H225504   6.447   3.958  19.247  0.2172  0.2250 -1.1018
  437TIP3   OH225505   5.695   3.012  18.171 -0.1341 -0.2853 -0.0958
  437TIP3    H125506   5.636   2.983  18.102  0.6698 -0.0457 -0.9033
  437TIP3    H225507   5.661   3.098  18.197  0.2482  0.1537 -1.0288
  438TIP3   OH225508   0.742   1.047  18.040 -0.4753 -0.1983 -0.0131
  438TIP3    H125509   0.825   1.020  18.079  0.6624 -0.1774 -2.2446
  438TIP3    H225510   0.690   0.966  18.035 -0.0808 -0.4686  0.2296
  439TIP3   OH225511   4.419   0.696  18.511  0.4389  0.2706 -0.4072
  439TIP3    H125512   4.444   0.621  18.457 -0.3303 -0.0536 -0.3362
  439TIP3    H225513   4.401   0.658  18.597 -0.6423  0.4207 -0.5525
  440TIP3   OH225514   4.147   2.765  17.898 -0.4873  0.3566  0.1384
  440TIP3    H125515   4.101   2.825  17.839 -0.8179  0.0948  0.1230
  440TIP3    H225516   4.236   2.760  17.864 -0.8235 -0.2354 -0.6842
  441TIP3   OH225517   3.025   0.990  19.188  0.0777  0.4204  0.1454
  441TIP3    H125518   3.054   0.903  19.216 -0.5915  0.9406  2.6228
  441TIP3    H225519   3.061   0.999  19.099 -0.3251 -2.5967 -0.4513
  442TIP3   OH225520   2.827   1.525  17.587 -0.2755  0.1766 -0.1075
  442TIP3    H125521   2.793   1.613  17.578  1.4445  1.1175  1.7902
  442TIP3    H225522   2.904   1.534  17.643  1.1625 -2.2540 -1.4817
  443TIP3   OH225523   6.054   3.523  18.187  0.5385 -0.0679 -0.3624
  443TIP3    H125524   5.966   3.550  18.161  0.5827  0.4860  0.0584
  443TIP3    H225525   6.096   3.603  18.219  0.1881 -0.8723  2.3011
  444TIP3   OH225526   3.347   1.865  18.840 -0.2556 -0.6731 -0.1772
  444TIP3    H125527   3.337   1.783  18.792  1.2053  0.1955 -2.0851
  444TIP3    H225528   3.343   1.839  18.932  1.4640 -3.1065 -0.6863
  445TIP3   OH225529   3.746   1.570  18.397 -0.3404  0.4232  0.0980
  445TIP3    H125530   3.698   1.487  18.408  2.2639 -1.2400 -0.2395
  445TIP3    H225531   3.724   1.621  18.475 -0.4643 -1.4516  1.3615
  446TIP3   OH225532   1.409   4.190  16.712  0.4639 -0.1611  0.0634
  446TIP3    H125533   1.319   4.224  16.709  0.1979 -0.8624 -0.4448
  446TIP3    H225534   1.461   4.256  16.666  0.2254  0.2978  0.4435
  447TIP3   OH225535   0.362   2.195  17.650  0.4520 -0.1027  0.1606
  447TIP3    H125536   0.314   2.114  17.671  1.2472 -0.7111 -0.3349
  447TIP3    H225537   0.319   2.227  17.571 -0.2004  0.2499  0.6473
  448TIP3   OH225538   3.137   1.599  18.034  0.1620 -0.2839 -0.4456
  448TIP3    H125539   3.151   1.680  18.084  0.5406  0.8413 -2.2828
  448TIP3    H225540   3.206   1.600  17.967  0.0460 -2.0398 -0.6272
  449TIP3   OH225541   0.176   0.908  17.619 -0.0251 -0.4051 -0.4666
  449TIP3    H125542   0.099   0.866  17.582  0.4919 -0.8991 -1.0069
  449TIP3    H225543   0.157   0.914  17.713 -1.6169  1.4519 -0.8548
  450TIP3   OH225544   3.436   1.111  17.428  0.4201 -0.0628 -0.0052
  450TIP3    H125545   3.361   1.071  17.473 -0.2607  0.3136 -0.7913
  450TIP3    H225546   3.401   1.141  17.344  1.0813  1.5070  0.2463
  451TIP3   OH225547   5.979   3.568  18.712  0.4377 -0.2210 -0.1188
  451TIP3    H125548   6.026   3.617  18.780 -0.2845 -0.5090  0.6060
  451TIP3    H225549   6.020   3.596  18.630  1.0982  0.3949  0.4023
  452TIP3   OH225550   2.393   6.653  17.394 -0.0954  0.2355 -0.5429
  452TIP3    H125551   2.429   6.623  17.478  0.6937  0.8026 -0.6671
  452TIP3    H225552   2.404   6.578  17.336  1.5468  0.6176 -0.7574
  453TIP3   OH225553   2.175   7.167  17.658 -0.0099  0.6640 -0.3975
  453TIP3    H125554   2.146   7.134  17.743  0.5006  2.0161  0.3306
  453TIP3    H225555   2.264   7.132  17.647 -0.1072  0.4217 -0.4233
  454TIP3   OH225556   0.630   4.740  16.908 -0.1716  0.1749  0.2285
  454TIP3    H125557   0.576   4.780  16.977 -1.9301 -1.1547 -0.3036
  454TIP3    H225558   0.575   4.744  16.830  0.6323 -0.9894 -0.4192
  455TIP3   OH225559   0.758   1.327  18.918  0.2774 -0.3255 -0.3987
  455TIP3    H125560   0.704   1.283  18.851  0.1927 -0.4230 -0.2691
  455TIP3    H225561   0.702   1.327  18.996  0.5422 -0.6014 -0.2076
  456TIP3   OH225562   7.496   5.379  17.221  0.0411  0.3168 -0.2555
  456TIP3    H125563   7.572   5.434  17.201  1.3818 -0.9023  1.2007
  456TIP3    H225564   7.489   5.319  17.147 -0.6472  1.5804 -1.2461
  457TIP3   OH225565   0.734   6.604  19.131 -0.2274  0.0191  0.0059
  457TIP3    H125566   0.717   6.693  19.101 -0.4958  0.6247  1.8490
  457TIP3    H225567   0.652   6.556  19.112 -0.1565  0.2033 -0.7914
  458TIP3   OH225568   3.715   2.522  18.393  0.2450  0.6315  0.1078
  458TIP3    H125569   3.655   2.520  18.318 -1.7390 -1.5759  1.5794
  458TIP3    H225570   3.788   2.467  18.366 -0.6406 -0.4822 -0.1125
  459TIP3   OH225571   1.315   1.904  19.362  0.3299  0.0698  0.2486
  459TIP3    H125572   1.223   1.925  19.350  0.1882 -1.8166 -3.0614
  459TIP3    H225573   1.321   1.874  19.452 -2.3299  0.0668  0.5075
  460TIP3   OH225574   6.788   6.120  18.077  0.3301 -0.1654 -0.2378
  460TIP3    H125575   6.723   6.144  18.012  1.8709  1.6658 -1.2091
  460TIP3    H225576   6.786   6.190  18.141  1.7324  0.2867 -0.6336
  461TIP3   OH225577   4.139   1.213  18.680  0.3785 -0.4405 -0.0865
  461TIP3    H125578   4.049   1.190  18.659 -0.1574  1.1512  0.2932
  461TIP3    H225579   4.161   1.160  18.756 -0.3796 -0.5601  0.0547
  462TIP3   OH225580   4.791   3.603  16.671  1.0062  0.3898  0.0708
  462TIP3    H125581   4.735   3.680  16.660  2.1581  0.9734 -2.3984
  462TIP3    H225582   4.846   3.624  16.747 -0.6047  0.7256  1.1867
  463TIP3   OH225583   5.280   0.424  17.996  0.0401 -0.2184  0.4348
  463TIP3    H125584   5.232   0.434  18.078 -2.8094 -2.6782 -0.7496
  463TIP3    H225585   5.339   0.350  18.011 -1.0809 -1.2137  0.0971
  464TIP3   OH225586   2.179   1.676  18.310 -0.0637 -0.0018  0.0130
  464TIP3    H125587   2.219   1.747  18.260  1.5418 -0.6007  0.3912
  464TIP3    H225588   2.180   1.601  18.251 -0.0262 -0.1910  0.2528
  465TIP3   OH225589   2.681   7.213  18.183  0.2676  0.1478 -0.1822
  465TIP3    H125590   2.764   7.174  18.210  0.0466 -0.4554 -0.3615
  465TIP3    H225591   2.702   7.304  18.163  0.6587  0.3157  0.9071
  466TIP3   OH225592   5.749   5.263  17.635  0.0522  0.6073  0.1976
  466TIP3    H125593   5.689   5.275  17.709 -1.4296  1.0038 -1.0171
  466TIP3    H225594   5.776   5.171  17.641  1.7476  1.1755  2.4857
  467TIP3   OH225595   4.106   7.650  17.533 -0.2316 -0.3398  0.2292
  467TIP3    H125596   4.129   7.557  17.534  2.1983  0.1675 -1.1088
  467TIP3    H225597   4.062   7.664  17.449 -0.5120 -0.2369  0.3890
  468TIP3   OH225598   5.265   6.702  16.952 -0.4408 -0.2363  0.4561
  468TIP3    H125599   5.324   6.626  16.949 -1.4113 -1.2305  3.0382
  468TIP3    H225600   5.185   6.672  16.910 -0.5444 -0.3854  0.7535
  469TIP3   OH225601   0.343   4.938  17.825 -0.1211 -0.1594  0.1340
  469TIP3    H125602   0.339   5.007  17.758  0.0687 -0.3738 -0.0960
  469TIP3    H225603   0.259   4.894  17.819  0.3370 -0.9291 -0.7576
  470TIP3   OH225604   0.484   5.567  18.021  0.0487 -0.1952  0.2704
  470TIP3    H125605   0.500   5.645  17.967  0.4636 -0.3637  0.1452
  470TIP3    H225606   0.407   5.526  17.981  1.6963 -1.6017 -1.6916
  471TIP3   OH225607   0.572   2.429  17.988  0.2198  0.3039 -0.3123
  471TIP3    H125608   0.574   2.392  17.900  0.6612  1.0060 -0.6035
  471TIP3    H225609   0.649   2.391  18.031 -1.8902 -2.9194  1.0125
  472TIP3   OH225610   0.943   6.628  19.555 -0.0037  0.1159  0.3818
  472TIP3    H125611   0.868   6.581  19.518 -0.6837 -0.5400  2.4369
  472TIP3    H225612   0.940   6.715  19.515 -1.1396 -0.2911 -0.4608
  473TIP3   OH225613   0.158   0.638  17.884  0.0029  0.1326 -0.1800
  473TIP3    H125614   0.221   0.647  17.956  1.1975  1.8822 -1.3549
  473TIP3    H225615   0.191   0.564  17.833 -0.0010 -0.1780  0.2657
  474TIP3   OH225616   0.372   4.916  18.591 -0.3531  0.7322  0.7214
  474TIP3    H125617   0.363   4.849  18.659  1.5046  0.7635  1.0783
  474TIP3    H225618   0.366   4.999  18.639  0.4932  0.7588  0.8007
  475TIP3   OH225619   5.745   5.213  17.153  0.2536  0.3970 -0.3446
  475TIP3    H125620   5.777   5.287  17.205  0.5205 -1.5022  2.3746
  475TIP3    H225621   5.818   5.192  17.094  0.2276  2.1344 -1.0634
  476TIP3   OH225622   1.807   2.145  17.064  0.1992 -0.1017  0.4233
  476TIP3    H125623   1.752   2.108  17.133 -1.2871 -0.4011 -0.8448
  476TIP3    H225624   1.746   2.198  17.012  0.8438 -1.2562 -1.6396
  477TIP3   OH225625   6.973   2.172  18.198  0.2467 -0.0745 -0.1582
  477TIP3    H125626   6.955   2.082  18.226  1.0023  0.3298  1.7900
  477TIP3    H225627   7.009   2.214  18.276  0.9385  1.6277 -1.3461
  478TIP3   OH225628   6.669   3.164  18.987 -0.3843 -0.5187 -0.3278
  478TIP3    H125629   6.746   3.110  18.970  1.0584  1.4341 -0.3552
  478TIP3    H225630   6.691   3.250  18.950 -1.5487  0.7996  1.8200
  479TIP3   OH225631   4.705   7.273  19.253 -0.3355  0.2052  0.2035
  479TIP3    H125632   4.631   7.259  19.312 -1.4957 -0.1397 -1.2603
  479TIP3    H225633   4.759   7.195  19.264 -1.2886 -0.5349 -0.2013
  480TIP3   OH225634   1.501   6.008  18.150  0.0467 -0.0591  0.0599
  480TIP3    H125635   1.435   5.939  18.137 -0.9092  1.1231 -1.8648
  480TIP3    H225636   1.566   5.991  18.081  0.2766  0.4157  0.1590
  481TIP3   OH225637   2.577   6.065  17.947 -0.3138  0.3590  0.4394
  481TIP3    H125638   2.512   6.065  18.017  0.7755  0.2768  1.4874
  481TIP3    H225639   2.556   5.987  17.896  0.0960 -0.7721  1.9061
  482TIP3   OH225640   4.786   0.230  18.265  0.1796 -0.0891 -0.4725
  482TIP3    H125641   4.856   0.193  18.318  1.1344  1.7980 -0.3546
  482TIP3    H225642   4.813   0.214  18.175 -0.4261 -1.4461 -0.4349
  483TIP3   OH225643   1.890   1.460  18.508  0.1557 -0.2002  0.1703
  483TIP3    H125644   1.838   1.533  18.541  0.0158 -0.5835  0.8077
  483TIP3    H225645   1.972   1.464  18.558 -0.1004 -0.8479  0.6527
  484TIP3   OH225646   7.352   4.384  17.465  0.0397 -0.0977 -0.0463
  484TIP3    H125647   7.355   4.447  17.538 -0.5242  0.9253 -0.8708
  484TIP3    H225648   7.283   4.418  17.408 -0.1594 -1.3946 -0.6102
  485TIP3   OH225649   1.018   6.046  17.907  0.5731  0.0252  0.1855
  485TIP3    H125650   0.948   5.991  17.871  1.3903  0.1556 -1.6858
  485TIP3    H225651   1.020   6.023  18.000 -0.0382 -2.0941 -0.2593
  486TIP3   OH225652   1.246   7.524  17.718  0.3504  0.3777  0.2416
  486TIP3    H125653   1.267   7.436  17.748  0.2325  0.3319  0.1904
  486TIP3    H225654   1.226   7.513  17.625 -1.4488  0.1551  0.6144
  487TIP3   OH225655   0.731   7.211  19.359  0.1486  0.5299  0.2200
  487TIP3    H125656   0.683   7.266  19.297 -0.3486  0.0347  0.1521
  487TIP3    H225657   0.787   7.272  19.407  0.0316  1.0114 -0.2482
  488TIP3   OH225658   1.473   1.089  17.278 -0.3815  0.1069  0.0655
  488TIP3    H125659   1.555   1.070  17.324 -0.4642 -0.7136 -0.1175
  488TIP3    H225660   1.497   1.088  17.186  0.1699  3.5204  0.0480
  489TIP3   OH225661   6.760   5.355  18.209  0.2549 -0.3093 -0.1758
  489TIP3    H125662   6.829   5.414  18.178 -1.1855  0.7486 -1.5903
  489TIP3    H225663   6.716   5.326  18.129 -1.5770 -0.1167  0.7072
  490TIP3   OH225664   7.460   6.001  18.712  0.5466 -0.3424  0.1472
  490TIP3    H125665   7.421   5.997  18.799 -0.9775  0.0390 -0.4973
  490TIP3    H225666   7.480   5.910  18.690  1.3393 -0.4022  1.0469
  491TIP3   OH225667   1.142   7.382  19.673  0.0787 -0.1932  0.0558
  491TIP3    H125668   1.148   7.303  19.728 -1.1860 -1.7586 -1.9266
  491TIP3    H225669   1.088   7.442  19.724  0.0769 -1.0602  1.1206
  492TIP3   OH225670   7.109   5.021  19.743  0.0261  0.6836 -0.4661
  492TIP3    H125671   7.013   5.028  19.745 -0.1039 -0.8302  0.2026
  492TIP3    H225672   7.133   5.037  19.652 -1.1252 -1.3142 -1.1852
  493TIP3   OH225673   3.807   1.675  17.270 -0.6453 -0.1654  0.3066
  493TIP3    H125674   3.888   1.723  17.248  1.7993 -2.9531  2.3653
  493TIP3    H225675   3.737   1.737  17.251  1.7589  1.7518 -3.5650
  494TIP3   OH225676   6.356   2.313  17.786 -0.2999 -0.3400 -0.6568
  494TIP3    H125677   6.419   2.378  17.817  0.4846 -2.2776  2.1709
  494TIP3    H225678   6.274   2.335  17.830 -0.5868 -0.1082 -1.2908
  495TIP3   OH225679   0.541   5.376  16.586 -0.1916 -0.0951 -0.8046
  495TIP3    H125680   0.469   5.323  16.620  0.4548  0.0417  0.8392
  495TIP3    H225681   0.584   5.319  16.522  0.1381 -1.3800  0.4994
  496TIP3   OH225682   1.280   3.409  18.356 -0.1519 -0.2339  0.1041
  496TIP3    H125683   1.231   3.332  18.387  0.4384 -0.3830  0.7069
  496TIP3    H225684   1.309   3.452  18.437  1.0090 -0.3504 -0.2435
  497TIP3   OH225685   5.488   4.946  18.178  0.1676  0.1746  0.2627
  497TIP3    H125686   5.548   4.971  18.107 -0.0543 -1.0490 -0.3889
  497TIP3    H225687   5.513   5.003  18.251  1.5682  0.2700 -0.2477
  498TIP3   OH225688   1.704   0.420  19.283 -0.0049 -0.2616  0.4777
  498TIP3    H125689   1.732   0.509  19.306  0.3706 -0.6545  1.6015
  498TIP3    H225690   1.779   0.382  19.238 -0.2891  0.0885 -0.3176
  499TIP3   OH225691   5.732   4.544  19.294 -0.4906  0.2496 -0.3203
  499TIP3    H125692   5.774   4.581  19.216  0.7339 -0.6594 -0.1121
  499TIP3    H225693   5.684   4.618  19.332 -0.5588  0.8659 -1.5536
  500TIP3   OH225694   6.308   5.715  19.540  0.2188 -0.3036  0.7572
  500TIP3    H125695   6.333   5.625  19.516  1.0778  0.1242 -0.0030
  500TIP3    H225696   6.245   5.741  19.473 -0.9727 -0.7576  1.6766
  501TIP3   OH225697   1.331   1.763  17.513  0.0219 -0.5481  0.0406
  501TIP3    H125698   1.370   1.707  17.445  2.1328  1.7141 -0.7620
  501TIP3    H225699   1.374   1.847  17.502 -2.1073  0.9201  2.0071
  502TIP3   OH225700   6.931   4.685  17.342  0.7474  0.8132 -0.2635
  502TIP3    H125701   6.938   4.648  17.254  0.8681  3.9977 -1.7361
  502TIP3    H225702   7.020   4.683  17.376  0.7231 -0.3312 -0.2409
  503TIP3   OH225703   6.532   4.497  19.423 -0.3298  0.0499  0.2246
  503TIP3    H125704   6.475   4.439  19.472  0.3450 -0.5193  0.3510
  503TIP3    H225705   6.507   4.585  19.451 -1.3373 -0.1721  0.0553
  504TIP3   OH225706   4.302   1.448  18.264  0.1616  0.4269  0.4147
  504TIP3    H125707   4.310   1.392  18.187 -1.7708 -0.5732  0.8693
  504TIP3    H225708   4.267   1.391  18.332  1.4734  1.3746  1.9716
  505TIP3   OH225709   4.157   0.632  17.137 -0.1298  0.0692  0.0642
  505TIP3    H125710   4.216   0.572  17.183 -0.2905 -0.6580 -0.6614
  505TIP3    H225711   4.174   0.616  17.044 -1.0289  0.2953 -0.1474
  506TIP3   OH225712   4.785   6.339  18.639 -0.1025 -0.2386 -0.4586
  506TIP3    H125713   4.842   6.303  18.706  2.2834  1.2085 -1.5631
  506TIP3    H225714   4.706   6.367  18.686  0.2641 -1.8286  1.2158
  507TIP3   OH225715   1.903   5.360  17.973  0.9132  0.2728 -0.8830
  507TIP3    H125716   1.839   5.302  18.013  0.2161  2.1287  0.8553
  507TIP3    H225717   1.860   5.393  17.894  0.0838  0.7691 -0.2344
  508TIP3   OH225718   1.173   2.075  17.466 -0.0063 -0.3706  0.4552
  508TIP3    H125719   1.162   2.092  17.559 -0.6371 -0.6418  0.4358
  508TIP3    H225720   1.266   2.055  17.456  0.7535  2.6181  0.5342
  509TIP3   OH225721   4.791   1.107  17.658  0.1651  0.2674  0.0952
  509TIP3    H125722   4.880   1.073  17.666 -0.2945 -0.6083  2.1175
  509TIP3    H225723   4.789   1.183  17.717 -0.4080  0.2904  0.0492
  510TIP3   OH225724   5.468   0.227  18.027  0.0171  0.3183  0.0136
  510TIP3    H125725   5.516   0.270  18.098  0.0561 -0.1354  0.2652
  510TIP3    H225726   5.499   0.137  18.029 -0.5919  0.1055 -0.0511
  511TIP3   OH225727   1.393   2.325  18.583  0.4614  0.1390  0.4353
  511TIP3    H125728   1.424   2.400  18.532  1.4133  0.1942  1.0751
  511TIP3    H225729   1.472   2.289  18.622 -0.0119 -1.1134  0.2622
  512TIP3   OH225730   2.796   2.009  17.977  0.4925 -0.2241 -0.0059
  512TIP3    H125731   2.706   2.041  17.970  0.9148  1.2609  0.9971
  512TIP3    H225732   2.848   2.087  17.997  1.9251 -1.1570  0.0449
  513TIP3   OH225733   5.709   3.777  17.211 -0.1118  0.6136 -0.3161
  513TIP3    H125734   5.750   3.818  17.135 -1.2282 -0.1733 -1.3878
  513TIP3    H225735   5.615   3.782  17.194 -0.3421 -0.7809  0.3455
  514TIP3   OH225736   3.731   2.963  17.214  0.3934  0.2261  0.3557
  514TIP3    H125737   3.753   2.921  17.131  0.1791 -1.6224  1.1728
  514TIP3    H225738   3.814   2.971  17.260  0.1862 -1.4224  1.0930
  515TIP3   OH225739   5.856   4.194  18.081 -0.0500  0.1125  0.8502
  515TIP3    H125740   5.870   4.283  18.111 -0.6308  1.2497 -1.9604
  515TIP3    H225741   5.816   4.203  17.995 -0.5790 -2.8783  0.6639
  516TIP3   OH225742   0.064   0.589  17.512 -0.3225  0.2583  0.3154
  516TIP3    H125743   0.055   0.498  17.540  0.0961 -0.0197 -0.4323
  516TIP3    H225744   0.150   0.617  17.543  1.0935 -0.7147 -2.3858
  517TIP3   OH225745   6.891   7.460  18.591 -0.4181  0.3935  0.0614
  517TIP3    H125746   6.979   7.424  18.602 -1.1252 -1.4101  0.0550
  517TIP3    H225747   6.856   7.414  18.515 -0.7914  2.3190 -0.9912
  518TIP3   OH225748   6.619   5.685  17.727 -0.1534 -0.0945  0.1575
  518TIP3    H125749   6.545   5.744  17.743  0.3415  1.1688 -1.8494
  518TIP3    H225750   6.600   5.646  17.642  1.3483  0.0591 -0.2737
  519TIP3   OH225751   2.610   4.680  18.682 -0.0399  0.2579  0.8141
  519TIP3    H125752   2.680   4.631  18.639 -0.1790  1.3657 -0.7879
  519TIP3    H225753   2.647   4.708  18.765  0.5870 -1.1270  1.0341
  520TIP3   OH225754   3.480   2.017  19.402 -0.0243  0.3294 -0.1767
  520TIP3    H125755   3.461   2.022  19.308  2.3423 -2.4642 -0.9356
  520TIP3    H225756   3.549   2.082  19.415  1.0500 -0.6490 -0.8414
  521TIP3   OH225757   2.727   5.219  17.951  0.0744  0.0003 -0.1103
  521TIP3    H125758   2.769   5.232  17.867  0.5982  0.8283  0.2681
  521TIP3    H225759   2.633   5.217  17.931  0.2106 -0.2411 -0.7546
  522TIP3   OH225760   0.692   7.451  17.345  0.2765  0.7438 -0.3028
  522TIP3    H125761   0.775   7.425  17.385  0.3028 -1.0062 -1.3917
  522TIP3    H225762   0.626   7.426  17.410  0.4370 -0.3480 -0.5453
  523TIP3   OH225763   3.893   4.198  18.935 -0.2362 -0.2362  0.8259
  523TIP3    H125764   3.829   4.150  18.987 -0.0792  0.2110  1.4436
  523TIP3    H225765   3.976   4.186  18.981  0.1916 -1.0277 -0.1089
  524TIP3   OH225766   3.267   0.226  18.344 -0.2445  0.7083 -0.4630
  524TIP3    H125767   3.207   0.156  18.321 -1.3975  0.9323  1.5564
  524TIP3    H225768   3.332   0.227  18.274  0.2335 -2.8153 -0.2471
  525TIP3   OH225769   1.615   6.976  17.701 -0.5725 -0.5033  0.0233
  525TIP3    H125770   1.521   6.965  17.714 -0.4441 -3.9371 -1.0525
  525TIP3    H225771   1.655   6.920  17.767  0.7874  1.1536  0.6677
  526TIP3   OH225772   6.816   5.963  18.964 -0.3479 -0.2828  0.1555
  526TIP3    H125773   6.744   5.975  19.027  0.2621  0.3958  0.7437
  526TIP3    H225774   6.824   5.868  18.956 -1.4048 -0.3741 -0.0381
  527TIP3   OH225775   4.923   0.872  19.498 -0.5993 -0.3229  0.1128
  527TIP3    H125776   4.961   0.916  19.422  0.8770 -2.1025 -0.2650
  527TIP3    H225777   4.904   0.943  19.559  0.8665  0.9207 -0.7766
  528TIP3   OH225778   6.275   4.484  19.177 -1.0823  0.2823  0.1647
  528TIP3    H125779   6.302   4.414  19.237  0.9280 -1.1360 -2.1911
  528TIP3    H225780   6.226   4.439  19.108 -0.9999  1.4204 -0.6636
  529TIP3   OH225781   2.569   1.500  17.451  0.1395  0.0051  0.2038
  529TIP3    H125782   2.540   1.498  17.542  2.6874 -1.9128  1.1019
  529TIP3    H225783   2.592   1.410  17.431  0.5044  0.5350 -2.0703
  530TIP3   OH225784   7.603   0.589  18.428 -0.0639 -0.1541 -0.1875
  530TIP3    H125785   7.646   0.520  18.377 -0.8218 -1.5504  0.9790
  530TIP3    H225786   7.513   0.589  18.396 -0.7729 -1.6168  1.5948
  531TIP3   OH225787   3.259   5.392  17.986  0.5298 -0.4259  0.1396
  531TIP3    H125788   3.283   5.307  18.022  0.4727 -1.5954 -2.3528
  531TIP3    H225789   3.327   5.451  18.016  1.7080 -1.8076  0.3032
  532TIP3   OH225790   3.152   0.131  16.918  0.1761  0.1914  0.1534
  532TIP3    H125791   3.103   0.061  16.963 -0.5028 -0.9366 -2.1979
  532TIP3    H225792   3.242   0.119  16.947 -0.0656 -1.1398  0.4559
  533TIP3   OH225793   5.243   7.544  17.206  0.1482  0.1347  0.4972
  533TIP3    H125794   5.210   7.455  17.196 -1.0017  0.6423 -0.4571
  533TIP3    H225795   5.258   7.553  17.301 -1.6277 -0.4348  0.8761
  534TIP3   OH225796   0.313   1.815  19.343  0.4005 -0.1558  0.0096
  534TIP3    H125797   0.312   1.767  19.260 -0.9550 -1.9311  0.9743
  534TIP3    H225798   0.286   1.751  19.408 -1.7361  1.9368  1.3805
  535TIP3   OH225799   0.594   3.604  18.600 -0.3608 -0.3617  0.7396
  535TIP3    H125800   0.639   3.686  18.577  0.2317 -0.7077  0.6325
  535TIP3    H225801   0.548   3.579  18.520  0.0358 -0.5007  0.5528
  536TIP3   OH225802   2.046   3.753  18.573 -0.2396 -0.4427 -0.7444
  536TIP3    H125803   2.022   3.838  18.611 -0.2449 -1.6993  2.3373
  536TIP3    H225804   1.962   3.710  18.557 -0.2185 -0.1934 -1.5696
  537TIP3   OH225805   7.185   4.495  17.265  0.0384 -0.0901 -0.0466
  537TIP3    H125806   7.195   4.590  17.266 -0.0522  0.0269 -2.6463
  537TIP3    H225807   7.100   4.480  17.224 -0.3365 -1.3028  1.1326
  538TIP3   OH225808   0.896   4.967  18.133 -0.2858  0.4641 -0.2829
  538TIP3    H125809   0.826   4.902  18.138  0.2936 -0.1426  0.0507
  538TIP3    H225810   0.936   4.954  18.047 -0.5399  0.7746 -0.4517
  539TIP3   OH225811   7.443   2.515  19.198  0.0160  0.0765  0.6666
  539TIP3    H125812   7.527   2.557  19.178 -0.4007  0.1781 -1.0815
  539TIP3    H225813   7.465   2.441  19.254  1.3453 -0.1805 -0.1429
  540TIP3   OH225814   1.714   0.191  18.278  0.3169 -0.0571 -0.3712
  540TIP3    H125815   1.744   0.279  18.303 -0.3885 -0.0325  0.4258
  540TIP3    H225816   1.670   0.203  18.194  0.5310  0.2876 -0.4381
  541TIP3   OH225817   3.661   1.935  16.667 -0.3173 -0.0127 -0.5852
  541TIP3    H125818   3.683   1.881  16.591  0.9794  0.8321 -0.8425
  541TIP3    H225819   3.659   1.874  16.740  1.6261 -0.3882 -0.7800
  542TIP3   OH225820   1.260   3.326  18.844 -0.5887 -0.2205 -0.4229
  542TIP3    H125821   1.212   3.381  18.781 -0.6747  0.4990  0.2587
  542TIP3    H225822   1.352   3.339  18.822 -0.5289  1.3281  0.6270
  543TIP3   OH225823   7.145   0.093  18.031  0.0288 -0.4230 -0.2752
  543TIP3    H125824   7.182   0.005  18.030 -1.7428 -1.2548 -2.8674
  543TIP3    H225825   7.116   0.106  18.122 -0.7706 -2.9987 -0.1007
  544TIP3   OH225826   5.711   4.059  19.430 -0.5920  0.1553 -0.1329
  544TIP3    H125827   5.653   4.001  19.381 -0.6535  0.4100 -0.3669
  544TIP3    H225828   5.694   4.146  19.393  2.5697 -0.1630 -2.8441
  545TIP3   OH225829   5.258   3.011  19.251  0.2760 -0.1122 -0.3070
  545TIP3    H125830   5.348   3.028  19.221 -0.1605  0.8954 -1.0794
  545TIP3    H225831   5.203   3.031  19.175 -0.6327 -0.5347  0.2222
  546TIP3   OH225832   2.210   5.641  17.848  0.0641 -0.2465  0.3589
  546TIP3    H125833   2.296   5.637  17.889 -0.0880 -0.9745  0.6268
  546TIP3    H225834   2.208   5.566  17.788 -0.8612 -1.0572  1.3512
  547TIP3   OH225835   2.256   2.217  19.021 -1.0515  0.3326 -0.0568
  547TIP3    H125836   2.330   2.159  19.040 -0.0498  1.4762 -0.3278
  547TIP3    H225837   2.201   2.166  18.961 -0.9099 -0.8392  0.7675
  548TIP3   OH225838   4.887   3.018  18.480  0.1174 -0.3877  0.0186
  548TIP3    H125839   4.864   3.043  18.391 -2.2929 -0.2912  0.6016
  548TIP3    H225840   4.910   3.100  18.524 -0.0352 -0.2430 -0.1709
  549TIP3   OH225841   1.332   2.502  19.208  0.1751 -0.2161 -0.2060
  549TIP3    H125842   1.258   2.563  19.206  0.2257 -0.0002  2.0832
  549TIP3    H225843   1.404   2.553  19.245  0.0816 -1.7012  2.2901
  550TIP3   OH225844   7.203   1.654  18.074  0.0187 -0.4679 -0.2049
  550TIP3    H125845   7.292   1.681  18.051  0.5576 -1.0124  1.1053
  550TIP3    H225846   7.188   1.692  18.161 -0.2919 -1.9216  0.4076
  551TIP3   OH225847   6.674   6.905  17.833  0.0309  0.4343 -0.1946
  551TIP3    H125848   6.665   6.865  17.920 -0.2079 -1.1701 -0.9421
  551TIP3    H225849   6.587   6.937  17.812 -0.4517 -1.1610 -0.7597
  552TIP3   OH225850   6.085   7.174  19.099 -0.5330  0.4988 -0.5879
  552TIP3    H125851   6.180   7.166  19.093 -0.2561  1.3513  1.6847
  552TIP3    H225852   6.051   7.106  19.041  1.4647 -0.5424 -0.6242
  553TIP3   OH225853   3.574   7.266  17.591  0.2210  0.6533  0.0935
  553TIP3    H125854   3.496   7.269  17.646 -0.6153 -0.8056 -0.9432
  553TIP3    H225855   3.560   7.333  17.525  0.4064  1.2043  0.6108
  554TIP3   OH225856   6.902   2.801  18.780  0.3658  0.1812  0.4178
  554TIP3    H125857   6.847   2.742  18.832 -2.0180 -1.0248 -3.0756
  554TIP3    H225858   6.847   2.878  18.766  0.5398  0.0630 -1.0349
  555TIP3   OH225859   1.883   5.843  17.942  0.1407 -0.1802 -0.0425
  555TIP3    H125860   1.868   5.807  18.029  0.1081 -0.4832 -0.1715
  555TIP3    H225861   1.799   5.878  17.915 -0.0529 -0.8244 -0.2857
  556TIP3   OH225862   0.176   2.838  18.692 -0.7092  0.2287  0.1004
  556TIP3    H125863   0.182   2.933  18.702  0.4832  0.1428  0.4547
  556TIP3    H225864   0.267   2.808  18.696 -1.0069 -0.8625 -0.7264
  557TIP3   OH225865   3.846   1.388  19.167  0.0300  0.0545  0.2322
  557TIP3    H125866   3.831   1.458  19.231 -0.2208  0.8233 -0.6383
  557TIP3    H225867   3.760   1.347  19.156 -0.0220  0.1986  0.0875
  558TIP3   OH225868   3.627   5.897  18.798 -0.2192  0.6189  0.5733
  558TIP3    H125869   3.593   5.808  18.809  0.8290 -0.0418 -1.2057
  558TIP3    H225870   3.548   5.951  18.787 -0.8192 -0.5282 -1.1412
  559TIP3   OH225871   3.585   2.640  16.944 -0.5034  0.1149 -0.2432
  559TIP3    H125872   3.531   2.696  17.000  0.2210  0.3567  0.2216
  559TIP3    H225873   3.619   2.699  16.877  0.6681  0.3577  0.5362
  560TIP3   OH225874   5.535   0.424  18.952  0.7007 -0.1030  0.1149
  560TIP3    H125875   5.604   0.425  19.018  0.6076  0.4919  0.2124
  560TIP3    H225876   5.494   0.510  18.960  0.5908 -0.0815 -0.6225
  561TIP3   OH225877   0.945   0.287  18.118  0.2546  0.9710  0.1205
  561TIP3    H125878   0.967   0.194  18.115 -2.2331  0.2979  0.6511
  561TIP3    H225879   0.976   0.322  18.034 -2.5472 -1.3316 -2.0873
  562TIP3   OH225880   1.564   4.056  17.929 -0.2964  0.1708 -0.2338
  562TIP3    H125881   1.632   3.992  17.947 -0.6364 -0.4644 -1.1505
  562TIP3    H225882   1.606   4.141  17.943 -0.1356 -0.2298  2.0253
  563TIP3   OH225883   1.528   4.824  18.990 -0.0170 -0.0630  0.6474
  563TIP3    H125884   1.592   4.822  19.061 -0.4613  0.3611  1.0684
  563TIP3    H225885   1.497   4.915  18.988 -1.7282 -0.5821  1.4704
  564TIP3   OH225886   3.738   3.541  17.035  0.1314  0.2289 -0.6206
  564TIP3    H125887   3.790   3.585  16.968  0.0218  0.4524 -0.5607
  564TIP3    H225888   3.792   3.467  17.062  1.1496  1.3536  0.5827
  565TIP3   OH225889   0.041   4.473  18.815 -0.3025 -0.5172 -0.1525
  565TIP3    H125890   0.067   4.501  18.727 -0.1386  0.1708  0.1068
  565TIP3    H225891   0.099   4.400  18.835  1.9803  1.4177  0.6895
  566TIP3   OH225892   3.014   6.525  18.352 -0.2834  0.2718  0.0591
  566TIP3    H125893   3.031   6.458  18.418 -1.2723  0.3384  0.3943
  566TIP3    H225894   3.085   6.515  18.289  0.0717 -0.5051  0.5674
  567TIP3   OH225895   5.083   4.402  17.564  0.1428  0.2513 -0.1576
  567TIP3    H125896   5.169   4.381  17.527  0.3575  0.4494  0.2206
  567TIP3    H225897   5.055   4.480  17.516  1.1507  1.5078  1.1538
  568TIP3   OH225898   2.329   0.557  18.538 -0.2748 -0.1845  0.1022
  568TIP3    H125899   2.293   0.607  18.465 -0.5680 -1.7546 -0.8682
  568TIP3    H225900   2.396   0.502  18.498  0.1898 -0.4330  1.1850
  569TIP3   OH225901   2.838   3.017  18.684  0.2613 -0.4598  0.1001
  569TIP3    H125902   2.804   3.105  18.701  0.1422 -0.5701  0.4477
  569TIP3    H225903   2.801   2.993  18.600  0.5685 -0.0413 -0.1577
  570TIP3   OH225904   0.834   3.212  18.418  0.2575 -0.2673  0.4473
  570TIP3    H125905   0.872   3.147  18.360 -0.8641 -0.0715 -0.5313
  570TIP3    H225906   0.762   3.166  18.463  0.6809 -0.2270  1.1877
  571TIP3   OH225907   2.748   0.515  18.967  0.0832 -1.2088  0.7140
  571TIP3    H125908   2.714   0.604  18.953 -1.9785 -2.0529 -0.0536
  571TIP3    H225909   2.693   0.479  19.037  2.5440 -1.1117  2.8816
  572TIP3   OH225910   1.748   3.669  18.548  0.2053 -0.0253 -0.0227
  572TIP3    H125911   1.658   3.668  18.580 -0.5419  0.7240 -1.9348
  572TIP3    H225912   1.758   3.585  18.502  1.8914 -1.9793  3.5121
  573TIP3   OH225913   4.171   2.775  19.126 -0.6505 -0.7662 -0.0793
  573TIP3    H125914   4.141   2.864  19.146  0.9244 -0.0126 -0.9080
  573TIP3    H225915   4.096   2.720  19.148 -2.6425  0.9878 -1.9661
  574TIP3   OH225916   2.867   1.452  18.164 -0.0835  0.3511 -0.1703
  574TIP3    H125917   2.957   1.439  18.194 -0.3797 -1.4841  0.0293
  574TIP3    H225918   2.870   1.440  18.070  0.7153  5.4207 -1.0704
  575TIP3   OH225919   4.814   0.499  16.808  0.6689 -0.0342  0.0877
  575TIP3    H125920   4.908   0.514  16.819  0.9449 -0.6283 -1.3206
  575TIP3    H225921   4.776   0.587  16.812  1.3687  0.2894 -0.1087
  576TIP3   OH225922   4.884   3.744  16.899 -0.1268  0.4749  0.3805
  576TIP3    H125923   4.947   3.709  16.962  0.0603  1.7951  0.9574
  576TIP3    H225924   4.804   3.758  16.950  0.0600  1.6551  0.3751
  577TIP3   OH225925   5.308   5.534  19.179 -0.4606 -0.1489  0.3451
  577TIP3    H125926   5.403   5.534  19.169 -0.4824  1.5281 -0.0747
  577TIP3    H225927   5.294   5.520  19.273  0.1773 -0.6438  0.3748
  578TIP3   OH225928   6.185   6.373  18.224  0.3825 -0.6826 -0.5559
  578TIP3    H125929   6.235   6.454  18.208 -1.6205  0.6485 -0.3819
  578TIP3    H225930   6.247   6.316  18.270  1.4693  1.2445  0.5229
  579TIP3   OH225931   3.463   1.963  17.171  0.2163  0.0676  0.6763
  579TIP3    H125932   3.371   1.982  17.152  0.1263  0.1593  1.1888
  579TIP3    H225933   3.471   1.868  17.161  0.2661  0.1625 -0.2097
  580TIP3   OH225934   0.218   6.200  19.328  0.0768  0.0779 -0.7226
  580TIP3    H125935   0.232   6.114  19.368 -0.6879  0.8325  1.2933
  580TIP3    H225936   0.151   6.241  19.382 -0.0603  1.7067 -2.0420
  581TIP3   OH225937   6.327   2.500  18.093  0.7886 -0.0718  0.4154
  581TIP3    H125938   6.276   2.532  18.019  0.8082  1.9470  1.1958
  581TIP3    H225939   6.418   2.501  18.063  0.8414  1.1441  0.5508
  582TIP3   OH225940   5.337   2.490  17.768 -0.2861 -0.0822 -0.1847
  582TIP3    H125941   5.372   2.495  17.857  1.9214 -1.4879 -0.8862
  582TIP3    H225942   5.356   2.575  17.730 -2.0067  0.8331  0.8908
  583TIP3   OH225943   6.429   7.007  18.045  1.0804  0.1954  0.1430
  583TIP3    H125944   6.508   6.990  18.095  1.3073  0.2662 -0.1844
  583TIP3    H225945   6.361   7.025  18.110  1.0841 -0.8958  0.4560
  584TIP3   OH225946   4.346   7.502  19.270 -0.0361  0.6540 -0.2642
  584TIP3    H125947   4.328   7.441  19.198  0.3052  0.0438  0.1539
  584TIP3    H225948   4.437   7.483  19.294 -0.1888  0.7637  0.4067
  585TIP3   OH225949   2.455   5.765  18.525  0.4066 -0.1129 -0.6733
  585TIP3    H125950   2.406   5.700  18.474  1.0780 -1.2974  0.1512
  585TIP3    H225951   2.414   5.765  18.611  0.1435  0.8851 -0.7850
  586TIP3   OH225952   7.257   7.034  19.103  0.2137  0.0053  0.8821
  586TIP3    H125953   7.200   7.072  19.036  1.4893 -0.6957 -0.6662
  586TIP3    H225954   7.302   7.110  19.141  0.3494  0.3201  0.1093
  587TIP3   OH225955   0.132   7.633  19.269  0.0023 -0.5307  0.4488
  587TIP3    H125956   0.068   7.698  19.239 -0.3919 -1.0936  0.0660
  587TIP3    H225957   0.189   7.618  19.194  1.6722  1.1999  1.2458
  588TIP3   OH225958   3.689   6.212  18.180  0.5949  0.1687  0.1226
  588TIP3    H125959   3.692   6.278  18.111  1.1332 -0.1750 -0.1871
  588TIP3    H225960   3.688   6.263  18.261  0.4139  0.5664 -0.1223
  589TIP3   OH225961   0.058   3.331  18.808 -0.1095  0.4829 -0.0556
  589TIP3    H125962   0.106   3.262  18.762 -0.6389  1.7788 -2.7807
  589TIP3    H225963  -0.026   3.290  18.831 -0.0349 -0.0825 -0.7400
  590TIP3   OH225964   5.333   5.962  18.397  0.5890  0.2292  0.5906
  590TIP3    H125965   5.238   5.954  18.393  0.6909 -0.6359 -0.8583
  590TIP3    H225966   5.356   5.942  18.487 -0.5847  0.3425  0.9240
  591TIP3   OH225967   0.755   4.723  18.615  0.8176 -0.4290  0.7043
  591TIP3    H125968   0.730   4.678  18.534  1.5379  0.2806  0.0719
  591TIP3    H225969   0.721   4.667  18.685 -1.5573 -0.0725 -0.0809
  592TIP3   OH225970   4.124   0.690  18.695 -0.0444 -0.3662 -0.0654
  592TIP3    H125971   4.040   0.709  18.736 -0.1304 -0.9822  0.0600
  592TIP3    H225972   4.189   0.714  18.761 -0.1881 -1.4947  0.5024
  593TIP3   OH225973   5.691   7.222  16.668  0.1157  0.0262 -0.0419
  593TIP3    H125974   5.761   7.231  16.604 -1.3435 -0.1291 -1.7277
  593TIP3    H225975   5.730   7.171  16.740  1.4607 -0.8112 -1.3187
  594TIP3   OH225976   6.343   1.468  18.487  0.2103  0.3095 -0.3486
  594TIP3    H125977   6.393   1.488  18.566  0.7417 -2.8281  0.2557
  594TIP3    H225978   6.405   1.479  18.415  1.2978 -1.6769  0.2166
  595TIP3   OH225979   3.963   2.147  17.274  0.5288 -0.2690  0.3523
  595TIP3    H125980   3.955   2.186  17.187 -2.0459  1.1613  1.1211
  595TIP3    H225981   3.904   2.072  17.272  0.4114 -0.1929  0.8764
  596TIP3   OH225982   0.131   3.762  17.939  0.0332 -0.5771  0.5108
  596TIP3    H125983   0.079   3.793  18.013 -0.4712  0.7913 -0.3630
  596TIP3    H225984   0.221   3.758  17.972 -0.1735  0.0890  1.1932
  597TIP3   OH225985   1.327   6.961  17.663  0.8139 -0.1088  0.4600
  597TIP3    H125986   1.298   6.978  17.752  0.6719  0.8970  0.2292
  597TIP3    H225987   1.280   6.880  17.638 -0.3393  0.4440  0.7613
  598TIP3   OH225988   3.859   2.709  18.809 -0.1501 -0.1259  0.6124
  598TIP3    H125989   3.797   2.649  18.768  1.1364 -0.9068 -0.2978
  598TIP3    H225990   3.917   2.652  18.860  0.5779  0.4268  0.4191
  599TIP3   OH225991   4.039   0.025  19.064  0.1749  0.6372  0.0716
  599TIP3    H125992   4.077   0.113  19.062 -1.2985  1.4195  2.3463
  599TIP3    H225993   4.008   0.014  19.154 -0.9482 -1.6704 -0.5071
  600TIP3   OH225994   5.019   7.281  17.329  0.2195  0.4047 -0.7717
  600TIP3    H125995   5.069   7.279  17.247 -0.8525  0.3360 -1.4427
  600TIP3    H225996   4.945   7.223  17.313 -0.8725  1.6393 -0.3285
  601TIP3   OH225997   6.718   6.916  17.279  0.0288  0.0623  0.6133
  601TIP3    H125998   6.631   6.952  17.300  0.4909  0.7110  1.4461
  601TIP3    H225999   6.761   6.906  17.364  1.0095  0.3380  0.1575
  602TIP3   OH226000   5.148   4.898  18.303  0.2994  0.7038 -0.0464
  602TIP3    H126001   5.112   4.921  18.218 -1.9852  0.7011  0.8459
  602TIP3    H226002   5.233   4.858  18.283 -0.2120  0.6002 -2.2970
  603TIP3   OH226003   1.138   7.109  19.556 -0.2570  0.6966  0.0193
  603TIP3    H126004   1.178   7.196  19.560 -1.0541  1.1413 -1.1235
  603TIP3    H226005   1.171   7.072  19.474  0.2578 -0.1817  0.6090
  604TIP3   OH226006   7.328   4.566  17.686 -0.5148  0.0585 -0.1579
  604TIP3    H126007   7.309   4.651  17.726 -0.2310  0.1150 -0.1386
  604TIP3    H226008   7.288   4.502  17.744 -0.6903  0.1766 -0.1492
  605TIP3   OH226009   3.561   1.415  19.127 -0.5992 -0.4373  0.3472
  605TIP3    H126010   3.563   1.508  19.151  0.0991 -0.1555 -0.7055
  605TIP3    H226011   3.521   1.371  19.202 -1.2803  0.7579  0.7059
  606TIP3   OH226012   3.687   0.181  18.214  0.5220  0.3080  0.3938
  606TIP3    H126013   3.603   0.135  18.216  0.7344 -0.0574  2.0292
  606TIP3    H226014   3.664   0.273  18.201 -0.0462  0.0522 -0.4479
  607TIP3   OH226015   7.162   6.755  18.705  0.4532  0.3785 -0.3797
  607TIP3    H126016   7.158   6.739  18.610 -0.3562  0.2348 -0.3350
  607TIP3    H226017   7.213   6.835  18.714  0.2925  0.5529 -0.9643
  608TIP3   OH226018   3.590   7.452  17.402  0.2617 -0.3161  0.7335
  608TIP3    H126019   3.661   7.508  17.369  0.5784  1.0491  3.4372
  608TIP3    H226020   3.544   7.507  17.465 -0.7078 -2.4880  2.0227
  609TIP3   OH226021   0.049   6.899  18.236  0.2440 -0.3910  0.4198
  609TIP3    H126022   0.067   6.862  18.323  0.2972  0.0420  0.5969
  609TIP3    H226023  -0.017   6.966  18.253  1.5667  0.9469  0.3922
  610TIP3   OH226024   0.358   1.607  17.102  0.1352  0.2155 -0.2725
  610TIP3    H126025   0.360   1.691  17.149 -1.6314  0.8161 -1.1855
  610TIP3    H226026   0.265   1.585  17.098  0.2564 -0.0786 -2.9727
  611TIP3   OH226027   0.419   1.032  16.460  0.6093 -0.1139 -0.0766
  611TIP3    H126028   0.496   0.982  16.432 -0.4871 -2.5785  1.0214
  611TIP3    H226029   0.451   1.085  16.533  1.7991  0.8355 -1.2396
  612TIP3   OH226030   4.023   4.612  17.979  0.1651 -0.0951 -0.2082
  612TIP3    H126031   3.933   4.601  17.949  0.3554  1.7309 -1.6029
  612TIP3    H226032   4.020   4.688  18.038  0.3668 -1.7073  2.0379
  613TIP3   OH226033   5.188   0.717  18.874 -0.5956 -0.4013  0.4136
  613TIP3    H126034   5.151   0.671  18.949 -0.2069 -0.5604  0.5134
  613TIP3    H226035   5.155   0.806  18.881  1.3118  0.2587  2.1425
  614TIP3   OH226036   7.635   0.383  17.657  0.2835 -0.2541  0.1473
  614TIP3    H126037   7.684   0.302  17.673  2.2330  0.8610  0.0676
  614TIP3    H226038   7.655   0.438  17.733 -1.5257 -0.0397  0.5137
  615TIP3   OH226039   7.458   1.196  18.683  0.2200 -0.3620 -0.0159
  615TIP3    H126040   7.420   1.146  18.755 -2.0581  1.0592 -0.1032
  615TIP3    H226041   7.455   1.136  18.608  0.9698 -1.2656  0.6574
  616TIP3   OH226042   6.682   3.855  17.443  0.2610  0.1565  0.0891
  616TIP3    H126043   6.752   3.880  17.383 -0.8352  2.4379 -0.3354
  616TIP3    H226044   6.685   3.922  17.512 -0.7876 -0.3579  0.6520
  617TIP3   OH226045   2.935   5.545  17.665 -0.3551 -0.2462 -0.4166
  617TIP3    H126046   2.868   5.599  17.706 -0.2480 -0.6603  0.3363
  617TIP3    H226047   2.906   5.455  17.682  0.9772 -0.4605  0.9951
  618TIP3   OH226048   5.336   2.361  18.241 -0.7389  0.5410 -0.0231
  618TIP3    H126049   5.282   2.290  18.205 -0.4859  1.0530 -1.4740
  618TIP3    H226050   5.396   2.317  18.302 -2.3169 -0.1261  1.1252
  619TIP3   OH226051   7.563   7.109  17.345  0.1168 -0.4169  0.6150
  619TIP3    H126052   7.504   7.034  17.351 -0.5665 -0.1573 -1.6358
  619TIP3    H226053   7.520   7.168  17.282  2.9058 -0.4073 -1.4840
  620TIP3   OH226054   1.032   6.985  18.732  0.5249  0.4017 -0.1033
  620TIP3    H126055   1.034   7.029  18.817 -1.0643  0.5218 -0.0876
  620TIP3    H226056   1.109   7.018  18.686  1.7828 -0.1897  1.5211
  621TIP3   OH226057   7.160   4.439  18.333 -0.5359 -0.1330 -0.3340
  621TIP3    H126058   7.132   4.347  18.333 -2.0574  0.2978 -0.5045
  621TIP3    H226059   7.160   4.464  18.425 -0.7163 -0.1334 -0.3337
  622TIP3   OH226060   4.057   4.804  19.089  0.2202 -0.0846 -0.0223
  622TIP3    H126061   4.144   4.764  19.082 -0.1847 -0.8960 -0.4305
  622TIP3    H226062   4.060   4.876  19.026  1.3055  1.2391  1.4465
  623TIP3   OH226063   0.650   5.746  18.696  0.1041  0.3359  0.2881
  623TIP3    H126064   0.630   5.818  18.636 -0.5469  1.8612  2.2369
  623TIP3    H226065   0.564   5.716  18.727  0.4320 -0.3103  0.5987
  624TIP3   OH226066   0.120   7.140  18.737 -0.3763 -0.2940  0.8541
  624TIP3    H126067   0.208   7.176  18.727 -1.2620  2.5007  2.2470
  624TIP3    H226068   0.121   7.097  18.823 -0.7420  0.9904  1.5127
  625TIP3   OH226069   2.968   5.826  16.860 -0.1249  0.6571  0.3727
  625TIP3    H126070   2.952   5.901  16.803  2.8262  1.0858 -0.0874
  625TIP3    H226071   2.922   5.753  16.818 -3.5671  2.1744  1.1519
  626TIP3   OH226072   7.026   2.899  17.258 -0.4468  0.3285  0.1026
  626TIP3    H126073   7.015   2.833  17.190 -0.8217  0.6034 -0.1079
  626TIP3    H226074   7.106   2.946  17.234 -0.4778  0.3049 -0.0432
  627TIP3   OH226075   6.399   4.774  19.331 -0.1033 -0.1610 -0.0980
  627TIP3    H126076   6.439   4.830  19.265  0.1908 -0.3419 -0.0764
  627TIP3    H226077   6.457   4.782  19.407  0.3680 -1.0904 -0.3504
  628TIP3   OH226078   2.972   2.039  17.596 -0.0141  1.1580  0.2522
  628TIP3    H126079   2.941   2.084  17.517 -1.0502  2.0354  1.1316
  628TIP3    H226080   2.938   2.091  17.669 -0.0844 -0.2865  1.3015
  629TIP3   OH226081   1.094   3.268  18.098  0.1552  0.4638  0.0035
  629TIP3    H126082   1.057   3.222  18.173  0.5238 -1.1627 -0.7873
  629TIP3    H226083   1.188   3.271  18.114  0.2467  0.0249 -0.4378
  630TIP3   OH226084   5.029   1.175  18.006 -0.3040 -0.2448 -0.1557
  630TIP3    H126085   5.061   1.085  18.014  1.1542  0.3187  0.6387
  630TIP3    H226086   5.108   1.228  17.997 -1.1457  0.9733 -0.6737
  631TIP3   OH226087   1.190   6.386  18.132 -0.5218 -0.3771 -0.0358
  631TIP3    H126088   1.226   6.474  18.146  0.2594 -0.5704 -0.7366
  631TIP3    H226089   1.153   6.362  18.216  0.3834  0.1181  0.5282
  632TIP3   OH226090   2.198   1.386  17.690  0.3613 -0.6261  0.2302
  632TIP3    H126091   2.278   1.340  17.664  1.1504 -0.4464  2.1514
  632TIP3    H226092   2.197   1.464  17.635  0.5914 -1.4548 -0.9906
  633TIP3   OH226093   6.219   6.127  18.014 -0.1242  0.2256 -0.1671
  633TIP3    H126094   6.205   6.104  17.922  0.7443  1.0062 -0.5174
  633TIP3    H226095   6.153   6.077  18.062 -0.4785 -0.3248 -1.1995
  634TIP3   OH226096   6.000   1.786  18.053  0.2420  0.0693  0.0421
  634TIP3    H126097   6.019   1.709  18.107  1.2081 -0.6087 -1.2060
  634TIP3    H226098   5.911   1.771  18.020 -0.7903  1.0006  2.2084
  635TIP3   OH226099   0.561   0.935  17.371 -0.1567 -0.0066 -0.5183
  635TIP3    H126100   0.577   0.841  17.363 -1.6102 -0.4711  1.2765
  635TIP3    H226101   0.649   0.975  17.369  0.9271 -1.8163  2.6796
  636TIP3   OH226102   3.401   4.714  19.043 -0.1550  0.2173 -0.1591
  636TIP3    H126103   3.440   4.627  19.039 -0.5791  0.0256 -0.1254
  636TIP3    H226104   3.440   4.754  19.121 -1.2692 -0.5819  0.8491
  637TIP3   OH226105   4.297   4.891  17.729  0.0308 -0.7914 -0.1029
  637TIP3    H126106   4.296   4.801  17.763 -0.2677 -0.5444  0.5399
  637TIP3    H226107   4.301   4.880  17.634 -2.2556 -1.5234 -0.1817
  638TIP3   OH226108   7.599   1.358  17.433 -0.1095 -0.2607  0.4122
  638TIP3    H126109   7.666   1.418  17.401 -0.3117  0.2758  0.9800
  638TIP3    H226110   7.523   1.414  17.451 -1.6429 -1.1568 -2.6443
  639TIP3   OH226111   6.942   5.459  17.362  0.2650  0.0611  0.2438
  639TIP3    H126112   6.980   5.546  17.352  0.1572  0.3697  2.1427
  639TIP3    H226113   6.852   5.467  17.329  0.9462  0.0368 -1.7168
  640TIP3   OH226114   2.128   3.336  18.195 -0.1991  0.1564  0.2904
  640TIP3    H126115   2.079   3.326  18.277 -0.5425  0.4360  0.1232
  640TIP3    H226116   2.193   3.267  18.198 -2.5874 -2.3579 -0.8830
  641TIP3   OH226117   5.928   0.780  19.087 -0.2731  0.1443  0.2091
  641TIP3    H126118   5.970   0.862  19.111  0.4519 -0.1075 -0.1825
  641TIP3    H226119   5.883   0.752  19.167  0.5820  0.2386  0.7327
  642TIP3   OH226120   7.465   6.328  19.285 -0.0003 -0.6532 -0.0871
  642TIP3    H126121   7.477   6.415  19.246 -1.4011  0.5788  1.9861
  642TIP3    H226122   7.371   6.313  19.280  0.3679 -2.8300 -1.7905
  643TIP3   OH226123   1.571   1.883  19.295 -0.5517 -0.6672 -0.5265
  643TIP3    H126124   1.559   1.850  19.206  0.6819 -0.6400 -0.7296
  643TIP3    H226125   1.485   1.877  19.336 -1.4689  0.6059 -2.1520
  644TIP3   OH226126   4.810   5.981  18.821 -0.2853 -0.4338 -0.4220
  644TIP3    H126127   4.781   5.944  18.737 -2.2890 -1.3560  0.6055
  644TIP3    H226128   4.897   5.943  18.835 -1.2349 -2.8697 -0.6018
  645TIP3   OH226129   1.955   5.239  18.655  0.4897 -0.3233  0.1306
  645TIP3    H126130   1.907   5.322  18.650  0.9311 -0.1413 -3.6872
  645TIP3    H226131   1.890   5.173  18.629  1.0024 -0.7537 -0.0647
  646TIP3   OH226132   3.891   5.309  17.831 -0.0681  0.1183  0.0906
  646TIP3    H126133   3.861   5.347  17.748 -0.9323 -1.1400 -0.1971
  646TIP3    H226134   3.913   5.219  17.809  1.4884  0.2873  0.8683
  647TIP3   OH226135   6.033   5.694  18.884  0.2773 -0.6053  0.1854
  647TIP3    H126136   5.989   5.775  18.909  1.2420 -0.3421  1.1303
  647TIP3    H226137   5.992   5.668  18.802  1.6625  2.2046 -1.5453
  648TIP3   OH226138   3.079   0.733  19.261 -0.3535  0.3716  0.0923
  648TIP3    H126139   3.152   0.748  19.322 -1.4458  1.9947  1.0818
  648TIP3    H226140   3.035   0.655  19.295 -0.7531  1.0682  1.2020
  649TIP3   OH226141   4.540   2.136  19.410 -0.0877 -0.3657 -0.0454
  649TIP3    H126142   4.552   2.229  19.431 -0.9186 -0.2555 -0.0506
  649TIP3    H226143   4.489   2.136  19.329 -1.1302 -0.8270  0.5974
  650TIP3   OH226144   3.059   3.639  16.681  0.4961 -0.2140  0.2952
  650TIP3    H126145   3.045   3.707  16.747  3.4636 -0.1243  0.9869
  650TIP3    H226146   3.026   3.678  16.599 -0.7893  0.7388  1.2201
  651TIP3   OH226147   0.122   1.081  19.177  0.1508 -0.4367  0.2526
  651TIP3    H126148   0.176   1.120  19.245  0.3302 -0.7677  0.3000
  651TIP3    H226149   0.048   1.043  19.224  1.1582 -2.2324  0.4710
  652TIP3   OH226150   1.501   4.058  17.650 -0.2402 -0.0819 -0.0201
  652TIP3    H126151   1.551   4.061  17.731  0.7903 -0.2689 -0.6389
  652TIP3    H226152   1.526   3.976  17.609 -1.6694 -0.5763  0.0251
  653TIP3   OH226153   3.165   1.916  17.301 -0.0938 -0.2325  0.0689
  653TIP3    H126154   3.108   1.976  17.349 -0.3673 -1.0501  0.7810
  653TIP3    H226155   3.253   1.941  17.327 -0.2162 -0.2899  0.5459
  654TIP3   OH226156   4.994   7.316  17.609  0.1287  0.0727 -0.2380
  654TIP3    H126157   5.018   7.292  17.519 -1.1854 -1.8811 -0.1096
  654TIP3    H226158   4.911   7.363  17.599 -1.6454 -2.7894  0.0967
  655TIP3   OH226159   3.401   3.132  18.565 -0.1887 -0.1561 -0.0076
  655TIP3    H126160   3.430   3.054  18.613 -1.0736 -1.1089 -0.9687
  655TIP3    H226161   3.396   3.200  18.631  1.7254 -0.5906  0.6664
  656TIP3   OH226162   0.121   4.035  16.704  0.2291  0.2248  0.2080
  656TIP3    H126163   0.161   4.087  16.774 -1.0405 -1.6679  2.4723
  656TIP3    H226164   0.027   4.047  16.716 -0.0893 -2.1657  0.5194
  657TIP3   OH226165   3.838   3.281  16.986  0.2336  0.3374 -0.0733
  657TIP3    H126166   3.761   3.293  16.930  0.6006  1.6646 -0.3402
  657TIP3    H226167   3.882   3.204  16.952  0.8156  1.4977 -2.1099
  658TIP3   OH226168   0.893   0.003  19.415 -0.0012  0.1946 -0.0774
  658TIP3    H126169   0.895  -0.092  19.428  0.0400 -0.0770 -1.7857
  658TIP3    H226170   0.918   0.040  19.500  0.7365 -1.3356  0.4026
  659TIP3   OH226171   4.176   4.559  17.165  0.5268  0.0786  0.0892
  659TIP3    H126172   4.084   4.561  17.138  0.0607  0.3853  1.5648
  659TIP3    H226173   4.189   4.471  17.200 -0.2604  1.0337  3.0714
  660TIP3   OH226174   6.895   2.642  18.204  0.0237  0.3812  0.0518
  660TIP3    H126175   6.981   2.640  18.247 -0.0476 -0.3960  0.1829
  660TIP3    H226176   6.838   2.595  18.265 -0.7006  1.6419  0.3819
  661TIP3   OH226177   7.539   6.087  19.191  0.1690 -0.2141 -0.7336
  661TIP3    H126178   7.493   6.165  19.223  0.0588  0.7300 -3.0145
  661TIP3    H226179   7.565   6.040  19.270 -1.1032  1.3477  0.6786
  662TIP3   OH226180   3.192   6.880  17.748 -0.1196 -0.3713  0.3537
  662TIP3    H126181   3.214   6.907  17.837  0.3225 -0.4905  0.2822
  662TIP3    H226182   3.192   6.961  17.697  0.1825 -0.3750  0.3480
  663TIP3   OH226183   6.099   3.816  19.314  0.7822  0.2616  0.1030
  663TIP3    H126184   6.161   3.761  19.363 -0.5986 -1.9530 -0.4923
  663TIP3    H226185   6.022   3.821  19.370  1.3273  2.8848  0.7745
  664TIP3   OH226186   0.218   7.112  18.420 -0.7224 -0.2720 -0.1579
  664TIP3    H126187   0.168   7.136  18.342 -0.4967  0.9378  0.0565
  664TIP3    H226188   0.168   7.148  18.493  0.3515  0.8072  0.0703
  665TIP3   OH226189   2.526   7.262  19.533 -0.0819  0.5083 -0.1289
  665TIP3    H126190   2.598   7.227  19.479 -0.9150 -1.1902 -0.1918
  665TIP3    H226191   2.570   7.316  19.598  1.2832 -0.5761 -0.1030
  666TIP3   OH226192   0.110   2.455  17.219  0.2016  0.3604  0.3955
  666TIP3    H126193   0.061   2.504  17.285  1.0324 -0.2153  1.4929
  666TIP3    H226194   0.171   2.519  17.181  0.3056  0.5138  0.8126
  667TIP3   OH226195   5.297   5.550  18.739 -0.0059 -0.1370 -0.3273
  667TIP3    H126196   5.294   5.554  18.835 -2.6819 -1.3626 -0.2806
  667TIP3    H226197   5.342   5.467  18.720 -0.0060 -0.1807 -0.1415
  668TIP3   OH226198   4.741   4.375  17.620 -0.6171  0.2132  0.3106
  668TIP3    H126199   4.836   4.377  17.634 -0.6193  1.2303  0.2895
  668TIP3    H226200   4.708   4.449  17.670 -1.5461 -0.7608  1.1862
  669TIP3   OH226201   4.330   2.701  18.450  0.1968 -0.2894  0.6071
  669TIP3    H126202   4.381   2.720  18.371 -0.7372  1.5305  0.3823
  669TIP3    H226203   4.252   2.655  18.418 -1.1778  2.2026  0.1136
  670TIP3   OH226204   4.769   4.079  17.998  0.1759  0.1538  0.2080
  670TIP3    H126205   4.725   4.031  17.928  0.9528 -0.9087  0.4269
  670TIP3    H226206   4.858   4.093  17.966  0.3490  0.2392  0.7161
  671TIP3   OH226207   0.080   2.024  17.818  0.1808  0.1185  0.5278
  671TIP3    H126208   0.109   2.056  17.904  1.6650  1.5297 -0.4539
  671TIP3    H226209   0.053   2.102  17.771 -0.7654 -0.6658 -0.2672
  672TIP3   OH226210   1.092   2.699  18.977 -0.2379 -0.0038 -0.4302
  672TIP3    H126211   1.178   2.663  18.998 -0.6555 -0.7581 -0.0173
  672TIP3    H226212   1.112   2.786  18.940  0.6963 -0.1732 -0.3545
  673TIP3   OH226213   1.405   5.513  18.482  0.0542  0.5853  0.4546
  673TIP3    H126214   1.325   5.485  18.437  0.4059 -1.0799  0.7943
  673TIP3    H226215   1.374   5.564  18.557 -0.6541  0.6390  0.1303
  674TIP3   OH226216   0.411   4.691  19.100  0.3769  0.0061 -0.2472
  674TIP3    H126217   0.340   4.688  19.163  1.3668 -0.8365  0.8642
  674TIP3    H226218   0.465   4.615  19.121  1.1753  0.1743 -1.5841
  675TIP3   OH226219   5.141   3.856  19.116 -0.3154  0.0264  0.1542
  675TIP3    H126220   5.130   3.762  19.106  0.0319  0.0253 -0.2252
  675TIP3    H226221   5.220   3.866  19.169  0.2129  0.1192 -0.6318
  676TIP3   OH226222   5.121   0.957  18.296 -0.1593 -0.4311  0.1188
  676TIP3    H126223   5.188   0.891  18.310  2.2591  1.6840 -0.8048
  676TIP3    H226224   5.117   0.969  18.201 -0.7823  0.4891  0.2429
  677TIP3   OH226225   0.806   1.749  17.787 -0.0845 -0.8215  0.2108
  677TIP3    H126226   0.880   1.710  17.739  1.2378  1.2188  0.4711
  677TIP3    H226227   0.759   1.674  17.822  0.9121 -2.2604 -1.3353
  678TIP3   OH226228   3.550   4.084  17.291 -0.1712 -0.6264  0.4100
  678TIP3    H126229   3.489   4.150  17.258 -1.6612 -1.2878  1.7407
  678TIP3    H226230   3.553   4.098  17.385  1.4875 -0.8466  0.4184
  679TIP3   OH226231   3.969   6.114  19.099 -0.3396 -0.1051  0.0993
  679TIP3    H126232   3.937   6.197  19.135 -0.1413 -0.2496  0.6236
  679TIP3    H226233   3.903   6.089  19.034 -0.4173  0.4434 -0.0351
  680TIP3   OH226234   0.041   0.355  18.319  0.1323  0.2402  0.0620
  680TIP3    H126235   0.061   0.315  18.235  1.9589 -0.1850  0.6588
  680TIP3    H226236  -0.042   0.315  18.346  0.0185 -0.3246 -1.0729
  681TIP3   OH226237   4.458   2.581  17.741 -0.7968 -0.2314 -0.0340
  681TIP3    H126238   4.434   2.671  17.763  0.6906  0.5507 -1.4274
  681TIP3    H226239   4.380   2.546  17.698 -1.0149  0.7798 -0.4957
  682TIP3   OH226240   0.498   6.200  17.488 -0.1555 -0.3540  0.1978
  682TIP3    H126241   0.535   6.259  17.422  0.7224  2.1773  2.7036
  682TIP3    H226242   0.411   6.235  17.505 -0.1065 -0.5215  0.8350
  683TIP3   OH226243   5.487   4.251  18.786 -0.0100 -0.1353  0.0621
  683TIP3    H126244   5.419   4.266  18.720 -1.6061 -0.6068  1.5083
  683TIP3    H226245   5.438   4.237  18.867  1.8154 -1.3851  1.0106
  684TIP3   OH226246   3.911   1.728  19.554  0.3155 -0.7115 -0.3830
  684TIP3    H126247   3.937   1.661  19.617 -0.2128 -1.2404 -0.7209
  684TIP3    H226248   3.815   1.730  19.559  0.3534  0.9035  0.5314
  685TIP3   OH226249   0.271   6.798  17.759 -0.0227  0.1360 -0.1747
  685TIP3    H126250   0.325   6.740  17.814 -1.4766  0.3148  1.5304
  685TIP3    H226251   0.284   6.766  17.670  4.9206  1.7374 -0.3456
  686TIP3   OH226252   2.703   6.818  18.342  0.0900  0.0173 -0.0336
  686TIP3    H126253   2.790   6.779  18.351 -0.8797 -2.4731 -0.5253
  686TIP3    H226254   2.679   6.844  18.431  0.4352 -1.4256  0.5073
  687TIP3   OH226255   4.799   2.355  18.212  0.2767  0.1702 -0.8083
  687TIP3    H126256   4.876   2.398  18.249 -0.4187  0.2060  0.6843
  687TIP3    H226257   4.828   2.265  18.193  1.2922  0.8003 -2.4512
  688TIP3   OH226258   1.690   2.858  18.343  0.1272  1.0080  0.1343
  688TIP3    H126259   1.740   2.778  18.327 -2.3184 -0.4226 -0.7702
  688TIP3    H226260   1.683   2.863  18.439  0.0221 -0.0716  0.1962
  689TIP3   OH226261   0.915   2.887  19.308  0.0540  0.2946 -0.0879
  689TIP3    H126262   0.858   2.847  19.374  1.5271 -1.1179  0.4006
  689TIP3    H226263   0.864   2.959  19.272 -2.5662 -1.6507 -0.5843
  690TIP3   OH226264   4.912   2.206  17.433  0.0405  1.1192  0.2293
  690TIP3    H126265   4.976   2.166  17.492  0.2937 -0.1741 -0.8605
  690TIP3    H226266   4.964   2.262  17.376  0.5155 -1.1049 -1.6590
  691TIP3   OH226267   1.434   0.276  18.972  0.4960 -0.0955  0.4090
  691TIP3    H126268   1.469   0.226  19.046 -0.0459 -1.2503 -0.0844
  691TIP3    H226269   1.463   0.366  18.987  0.4302 -0.3142  1.9963
  692TIP3   OH226270   4.227   1.896  19.220  0.5359  0.0303 -0.0483
  692TIP3    H126271   4.319   1.904  19.193  0.4811 -0.3592 -0.3443
  692TIP3    H226272   4.197   1.815  19.180 -0.6115  1.3037 -1.8878
  693TIP3   OH226273   5.342   5.181  19.155  0.1092  0.5991  0.2707
  693TIP3    H126274   5.271   5.186  19.091  1.0463  2.4684 -0.7321
  693TIP3    H226275   5.323   5.250  19.218  0.5778  0.5355  0.4892
  694TIP3   OH226276   6.435   6.728  18.731 -0.5181  0.2552  0.3439
  694TIP3    H126277   6.364   6.762  18.785 -0.4706  0.8818  0.0234
  694TIP3    H226278   6.396   6.656  18.682 -0.7367  0.1155  0.7242
  695TIP3   OH226279   5.703   2.519  17.635 -0.2535 -0.2207 -0.0057
  695TIP3    H126280   5.666   2.486  17.553 -0.2127 -1.5473  0.4888
  695TIP3    H226281   5.793   2.487  17.635 -0.1757 -0.0093  0.4362
  696TIP3   OH226282   7.119   1.530  18.328  0.1108  0.1301 -0.4333
  696TIP3    H126283   7.050   1.480  18.284 -0.2899 -1.1708  1.5389
  696TIP3    H226284   7.192   1.469  18.335 -0.3213 -0.2437  1.8577
  697TIP3   OH226285   2.810   0.408  19.657  0.0209  0.2202 -0.1141
  697TIP3    H126286   2.869   0.374  19.590 -0.4413 -1.5966  0.3562
  697TIP3    H226287   2.836   0.500  19.667  3.5040 -0.7299  0.8389
  698TIP3   OH226288   0.504   2.460  18.599  0.4232 -0.3807  0.3364
  698TIP3    H126289   0.591   2.500  18.597  1.0062 -1.6372 -0.5613
  698TIP3    H226290   0.500   2.415  18.684  0.3685  0.2323  0.6678
  699TIP3   OH226291   6.277   5.251  18.675 -0.4349 -0.1540 -0.0839
  699TIP3    H126292   6.190   5.226  18.645  0.4254 -1.7756 -1.3493
  699TIP3    H226293   6.332   5.175  18.656  1.0263  0.3431  1.8472
  700TIP3   OH226294   0.168   5.125  19.216  0.0735 -0.0015  0.4153
  700TIP3    H126295   0.220   5.205  19.221  0.3567 -0.2529  2.5404
  700TIP3    H226296   0.099   5.146  19.153  0.2234  1.8824  0.8041
  701TIP3   OH226297   4.026   3.043  19.120 -0.3136  0.1920 -0.1144
  701TIP3    H126298   4.051   3.105  19.189 -0.3864  0.0182  0.0705
  701TIP3    H226299   3.931   3.031  19.132 -0.0391 -1.2115  0.9036
  702TIP3   OH226300   0.993   6.612  19.220  0.1122 -0.0733  0.2937
  702TIP3    H126301   1.011   6.703  19.197  1.1657 -0.4234 -0.3241
  702TIP3    H226302   0.904   6.597  19.191 -0.2741  0.9194  0.9128
  703TIP3   OH226303   6.318   4.877  17.640  0.4940 -0.2865  0.1371
  703TIP3    H126304   6.386   4.816  17.668  0.4737 -1.3523 -1.9534
  703TIP3    H226305   6.360   4.931  17.573 -0.6496 -0.9570 -1.1904
  704TIP3   OH226306   5.438   5.007  18.915 -0.3525 -0.5850 -0.3988
  704TIP3    H126307   5.494   4.953  18.972  0.3555  0.9263  0.4098
  704TIP3    H226308   5.361   5.026  18.969 -0.3496 -0.3435 -0.4781
  705TIP3   OH226309   5.151   2.303  17.860 -0.1500 -0.2649 -0.3671
  705TIP3    H126310   5.206   2.225  17.856  0.0310 -0.2603  1.3658
  705TIP3    H226311   5.198   2.368  17.807 -1.9188 -2.1331 -4.7701
  706TIP3   OH226312   0.467   3.318  16.680  0.6326  0.3706 -0.5827
  706TIP3    H126313   0.381   3.280  16.699  0.0277  1.0527 -1.8437
  706TIP3    H226314   0.515   3.249  16.635  0.5555  0.1695 -0.3585
  707TIP3   OH226315   1.688   2.580  18.069  0.5701  0.2866  0.0802
  707TIP3    H126316   1.763   2.626  18.030  1.7169  0.0503  1.8907
  707TIP3    H226317   1.711   2.488  18.065 -0.0395  0.1404 -0.1517
  708TIP3   OH226318   3.277   0.330  17.565 -0.3549 -0.1201 -0.5815
  708TIP3    H126319   3.350   0.301  17.509 -0.6835  0.0744 -1.1218
  708TIP3    H226320   3.277   0.426  17.556 -0.3824 -0.0867 -0.2132
  709TIP3   OH226321   1.804   1.317  17.355 -0.0918 -0.2442 -0.2217
  709TIP3    H126322   1.847   1.291  17.274 -0.0881 -0.1046 -0.2632
  709TIP3    H226323   1.731   1.372  17.328 -0.5020 -0.7524 -0.1657
  710TIP3   OH226324   6.519   0.652  18.208 -0.0545 -0.3075  0.3301
  710TIP3    H126325   6.603   0.628  18.248 -1.1349 -2.9460  1.2521
  710TIP3    H226326   6.454   0.623  18.271 -1.7197  1.1568 -0.6325
  711TIP3   OH226327   4.151   2.483  17.767 -0.3724 -0.3678 -0.2448
  711TIP3    H126328   4.163   2.419  17.697 -1.5700 -1.1528  0.2503
  711TIP3    H226329   4.056   2.496  17.773 -0.3144 -0.4787  1.3680
  712TIP3   OH226330   4.296   4.397  18.109 -0.5848  0.3011 -0.3966
  712TIP3    H126331   4.204   4.369  18.103  0.0201 -1.9660 -0.0227
  712TIP3    H226332   4.321   4.417  18.019 -0.5918 -2.1841 -1.0107
  713TIP3   OH226333   4.013   1.865  18.972 -0.3437 -0.3522 -0.1097
  713TIP3    H126334   4.025   1.811  19.051  1.8216  1.0020  0.5571
  713TIP3    H226335   3.996   1.801  18.902  3.7342 -2.1939  0.3118
  714TIP3   OH226336   5.939   7.123  18.360 -0.3013  0.4870  0.0908
  714TIP3    H126337   5.877   7.050  18.368  0.7335 -0.2628  1.8146
  714TIP3    H226338   5.947   7.158  18.448  2.4923 -0.1240  0.1672
  715TIP3   OH226339   7.403   1.353  18.070 -0.1008  0.0244 -0.2352
  715TIP3    H126340   7.483   1.405  18.059 -0.4250  0.2920 -1.4545
  715TIP3    H226341   7.352   1.370  17.991 -0.4778 -1.7049 -0.4126
  716TIP3   OH226342   6.962   2.696  17.088 -0.0816  0.2401  0.6389
  716TIP3    H126343   6.941   2.731  17.002  2.0435 -0.6416 -0.3176
  716TIP3    H226344   6.934   2.604  17.085 -0.1535  0.2490  0.9418
  717TIP3   OH226345   0.396   7.214  19.107  0.1896  0.2875  0.2774
  717TIP3    H126346   0.398   7.145  19.040  0.0461  0.5618 -0.0083
  717TIP3    H226347   0.311   7.256  19.096  0.7985  1.3857 -0.4474
  718TIP3   OH226348   0.529   5.892  18.450  0.0237  0.4017  0.7431
  718TIP3    H126349   0.480   5.962  18.492 -0.4986  0.7603 -0.4411
  718TIP3    H226350   0.465   5.846  18.396  1.1805  1.6885 -1.8841
  719TIP3   OH226351   4.773   6.057  18.261  0.3995 -0.5003 -0.3533
  719TIP3    H126352   4.830   6.019  18.328  1.4632 -0.8221 -1.4032
  719TIP3    H226353   4.701   6.097  18.310  1.6532  0.1318  1.0373
  720TIP3   OH226354   0.156   3.526  19.303  0.0750 -0.0208  0.9695
  720TIP3    H126355   0.085   3.521  19.367 -0.9167 -1.2946 -0.1804
  720TIP3    H226356   0.113   3.547  19.220  1.0154 -0.8445  0.2342
  721TIP3   OH226357   6.924   6.548  18.186  0.5522 -0.7082  0.2299
  721TIP3    H126358   6.946   6.502  18.105  1.8335  0.9336 -0.4172
  721TIP3    H226359   7.004   6.542  18.239 -0.1312 -1.3936  1.2066
  722TIP3   OH226360   4.488   0.476  18.695 -0.0697  0.5628  0.2420
  722TIP3    H126361   4.536   0.495  18.775  1.8864  1.6951 -1.1171
  722TIP3    H226362   4.545   0.416  18.646 -1.4434 -0.5120 -0.1378
  723TIP3   OH226363   3.787   6.104  18.889 -0.2293  0.0563 -0.0992
  723TIP3    H126364   3.735   6.038  18.844  0.5920  0.3370 -1.5103
  723TIP3    H226365   3.725   6.148  18.947 -1.0419 -1.1531 -0.0017
  724TIP3   OH226366   2.541   0.737  19.710 -0.2559  0.7479  0.5772
  724TIP3    H126367   2.623   0.689  19.708 -0.2259  0.8079  0.3443
  724TIP3    H226368   2.566   0.828  19.695 -0.3461  0.7914  0.6877
  725TIP3   OH226369   1.120   0.348  17.548 -0.2011 -0.4108 -0.5691
  725TIP3    H126370   1.136   0.255  17.530 -2.5029 -0.5202 -2.5503
  725TIP3    H226371   1.076   0.381  17.470 -0.3687  2.1275  0.4885
  726TIP3   OH226372   1.799   5.743  17.209 -0.3435  0.0974  0.0443
  726TIP3    H126373   1.856   5.771  17.280 -0.1498 -0.6350  0.1878
  726TIP3    H226374   1.768   5.656  17.235 -0.5252 -0.0447 -0.6091
  727TIP3   OH226375   2.279   4.779  18.905  0.2731  0.3076 -0.4791
  727TIP3    H126376   2.239   4.834  18.972  2.3293  0.2142  0.9076
  727TIP3    H226377   2.320   4.840  18.844 -0.1028  0.3564 -0.6873
  728TIP3   OH226378   4.427   5.503  18.212 -0.1717 -0.0430  0.0872
  728TIP3    H126379   4.450   5.444  18.141 -1.2428  0.7917 -0.9903
  728TIP3    H226380   4.510   5.521  18.257  0.2093 -2.1589  0.3164
  729TIP3   OH226381   2.533   2.286  19.015  0.3622  0.3021 -0.2151
  729TIP3    H126382   2.450   2.320  18.983  0.7086 -0.0569 -1.5268
  729TIP3    H226383   2.587   2.364  19.032 -0.7457  0.6456  2.2371
  730TIP3   OH226384   5.242   0.684  18.310  0.4179 -0.8874  1.1816
  730TIP3    H126385   5.193   0.610  18.274 -1.5879  1.0989 -0.3937
  730TIP3    H226386   5.233   0.674  18.405 -0.9787 -1.9243  0.9726
  731TIP3   OH226387   0.631   1.215  16.579  0.0222  0.7933  0.3439
  731TIP3    H126388   0.725   1.230  16.573  0.1107 -0.1616 -1.2285
  731TIP3    H226389   0.591   1.293  16.539  0.1039  1.3835  1.3749
  732TIP3   OH226390   1.544   4.624  19.253 -0.3191  0.2862 -0.1091
  732TIP3    H126391   1.541   4.528  19.263 -0.9511  0.2766 -0.3683
  732TIP3    H226392   1.469   4.645  19.198 -0.1922  0.9383 -0.0410
  733TIP3   OH226393   6.801   4.564  18.310  0.1776  0.3612  0.9325
  733TIP3    H126394   6.855   4.485  18.309  0.4783  0.5627  0.1402
  733TIP3    H226395   6.713   4.532  18.327  0.0826 -0.3102 -0.6094
  734TIP3   OH226396   6.534   7.600  18.300 -0.7430  0.0957  0.7219
  734TIP3    H126397   6.439   7.610  18.295 -0.8004 -0.8489 -0.4302
  734TIP3    H226398   6.560   7.656  18.373 -2.0343  1.3543  0.2600
  735TIP3   OH226399   0.742   1.036  18.358 -0.4835  0.1963 -0.5553
  735TIP3    H126400   0.703   1.091  18.426  1.7640  0.5602  0.5110
  735TIP3    H226401   0.738   1.089  18.279  1.5580  1.9730  0.4297
  736TIP3   OH226402   6.548   4.083  19.495  0.1896 -0.0994  0.4107
  736TIP3    H126403   6.522   4.171  19.522  1.7978 -0.0351  1.8826
  736TIP3    H226404   6.486   4.025  19.540 -0.5037  0.2421 -0.0930
  737TIP3   OH226405   2.170   0.394  17.841  0.7566 -0.1158  0.3471
  737TIP3    H126406   2.209   0.308  17.823  0.4065 -0.3987  0.8917
  737TIP3    H226407   2.124   0.382  17.925  0.2914  0.4669  0.1829
  738TIP3   OH226408   2.897   4.130  19.299  0.1120  0.1965 -0.0576
  738TIP3    H126409   2.917   4.149  19.207 -0.5413  0.7991 -0.0812
  738TIP3    H226410   2.929   4.206  19.347  0.1668  0.0262  0.1776
  739TIP3   OH226411   2.122   2.297  19.493  0.0908  0.2050  0.5643
  739TIP3    H126412   2.203   2.327  19.452 -0.6425 -0.7320 -1.7621
  739TIP3    H226413   2.130   2.201  19.494 -1.6015 -0.0077 -1.2118
  740TIP3   OH226414   2.849   3.162  17.879 -0.5641 -0.0126 -0.1892
  740TIP3    H126415   2.892   3.085  17.842  0.3303  1.4344 -2.3230
  740TIP3    H226416   2.833   3.138  17.970  2.1468 -1.7285 -0.0437
  741TIP3   OH226417   5.797   4.688  18.327 -0.5626  0.3077 -0.1098
  741TIP3    H126418   5.872   4.711  18.382  2.0204 -0.1457 -3.1123
  741TIP3    H226419   5.725   4.674  18.388  1.8953  0.3393  3.0327
  742TIP3   OH226420   0.468   2.566  17.347  0.2583 -0.0893 -0.0751
  742TIP3    H126421   0.397   2.615  17.388  1.0283  1.1090 -0.1069
  742TIP3    H226422   0.467   2.480  17.390 -0.1202  0.5024  1.1260
  743TIP3   OH226423   1.498   3.305  18.704  0.0132 -0.2541  0.1287
  743TIP3    H126424   1.532   3.216  18.714 -0.5756 -0.7790 -2.0792
  743TIP3    H226425   1.567   3.361  18.740  1.7554 -1.4504 -1.2116
  744TIP3   OH226426   3.879   5.435  18.451  0.3680 -0.1731 -0.2084
  744TIP3    H126427   3.950   5.464  18.508  0.4435 -1.6196  0.4740
  744TIP3    H226428   3.922   5.379  18.387  0.2594  1.3313 -1.6539
  745TIP3   OH226429   4.142   0.252  19.181  0.1734  0.7886 -0.2129
  745TIP3    H126430   4.222   0.224  19.225  0.1988  1.7639  0.3866
  745TIP3    H226431   4.167   0.331  19.133 -0.5153  1.3473  0.3232
  746TIP3   OH226432   3.114   6.024  17.764 -0.0825  0.6741  0.6313
  746TIP3    H126433   3.037   5.974  17.790  0.3754 -0.2448  0.2652
  746TIP3    H226434   3.081   6.113  17.749 -0.8927  0.5119  1.3737
  747TIP3   OH226435   5.937   4.759  19.184 -0.3878  0.2901 -0.4927
  747TIP3    H126436   5.965   4.701  19.113  1.7886  2.0895 -1.2154
  747TIP3    H226437   5.983   4.727  19.261 -3.0298 -1.8900  0.3259
  748TIP3   OH226438   2.119   0.307  18.522  0.4814  0.0170  0.1063
  748TIP3    H126439   2.047   0.369  18.507  0.7665  0.3973  0.2893
  748TIP3    H226440   2.167   0.305  18.439  3.0487  3.3943  1.2642
  749TIP3   OH226441   2.516   3.599  19.071  0.0884  0.1261  0.2229
  749TIP3    H126442   2.437   3.554  19.041 -0.2600 -0.7960  2.3351
  749TIP3    H226443   2.486   3.686  19.097  0.0946  0.3561 -0.5224
  750TIP3   OH226444   3.657   7.501  16.682  0.3656  0.6731  0.1492
  750TIP3    H126445   3.598   7.576  16.693 -0.3577  0.1553 -0.1664
  750TIP3    H226446   3.741   7.532  16.718 -0.5392  0.8172  2.2907
  751TIP3   OH226447   0.978   0.779  19.858 -0.2752 -0.4015  0.2929
  751TIP3    H126448   0.901   0.829  19.885 -1.0803 -2.0204  1.1119
  751TIP3    H226449   0.949   0.732  19.779  0.3088 -0.0032 -0.1666
  752TIP3   OH226450   0.852   6.638  18.737  0.1380 -0.1069  0.5574
  752TIP3    H126451   0.926   6.601  18.690  0.2467 -1.3591  1.6506
  752TIP3    H226452   0.888   6.665  18.822 -0.7886 -1.6716  1.5111
  753TIP3   OH226453   3.321   2.878  16.603 -0.8780  0.5486 -0.0587
  753TIP3    H126454   3.249   2.821  16.632 -1.1511  0.4857 -0.8393
  753TIP3    H226455   3.365   2.827  16.535  0.3206  0.3101  0.8639
  754TIP3   OH226456   3.051   7.157  19.437 -0.0529 -1.3142 -0.1098
  754TIP3    H126457   3.046   7.069  19.401 -0.0961 -0.2679 -2.9964
  754TIP3    H226458   3.142   7.184  19.422 -0.0667 -0.8218  0.6398
  755TIP3   OH226459   2.211   5.653  17.490  0.2382 -0.3039  0.0206
  755TIP3    H126460   2.223   5.577  17.547 -0.2091  0.6036  1.3681
  755TIP3    H226461   2.297   5.665  17.450  1.0475 -0.0323  1.7236
  756TIP3   OH226462   4.810   4.179  19.347  0.1002 -0.1014  0.3796
  756TIP3    H126463   4.755   4.211  19.276  0.0013 -1.9346 -0.4288
  756TIP3    H226464   4.750   4.167  19.421  0.1886  1.7308  0.7880
  757TIP3   OH226465   4.038   6.191  19.469  0.9023 -0.2624  0.6362
  757TIP3    H126466   3.947   6.168  19.454  1.2585 -0.5895 -1.2819
  757TIP3    H226467   4.080   6.110  19.496  1.1529 -0.7895 -1.2222
  758TIP3   OH226468   3.144   3.986  18.062  0.5072  0.9245  0.0534
  758TIP3    H126469   3.212   3.936  18.106 -0.1613  1.2107  1.4488
  758TIP3    H226470   3.146   4.072  18.104  1.8395  2.2853 -2.4757
  759TIP3   OH226471   1.789   6.807  18.520 -0.2914 -0.5474  0.2839
  759TIP3    H126472   1.801   6.781  18.429  0.7848 -0.8919  0.5073
  759TIP3    H226473   1.828   6.894  18.526  0.1474 -0.7547  0.5256
  760TIP3   OH226474   6.898   4.305  18.343 -0.2688 -0.5540 -0.5637
  760TIP3    H126475   6.972   4.246  18.330 -0.1650 -0.7021  0.6174
  760TIP3    H226476   6.911   4.342  18.430 -0.8860  0.4330 -0.8678
  761TIP3   OH226477   4.748   4.912  19.364  0.4893 -0.4140 -0.2507
  761TIP3    H126478   4.785   4.824  19.363  0.0285 -0.6060 -0.7291
  761TIP3    H226479   4.657   4.900  19.393  0.1164 -0.2296 -1.2907
  762TIP3   OH226480   5.303   4.891  17.960  0.4171 -0.0521  0.0918
  762TIP3    H126481   5.231   4.923  18.015  1.2247  0.0610  1.1264
  762TIP3    H226482   5.382   4.910  18.011  1.1977 -0.0700 -1.0665
  763TIP3   OH226483   2.939   1.899  16.628 -0.9407 -0.7986  0.1494
  763TIP3    H126484   3.031   1.886  16.653 -0.3507  2.1685 -0.1601
  763TIP3    H226485   2.929   1.849  16.547  0.6087 -0.6253 -0.1765
  764TIP3   OH226486   2.241   1.023  17.055  0.6088 -0.0449 -0.0152
  764TIP3    H126487   2.195   0.964  16.995  3.3508 -3.0935  0.5467
  764TIP3    H226488   2.319   1.050  17.008  1.1077  0.3225  0.9823
  765TIP3   OH226489   3.767   0.981  17.859 -0.3286 -0.5837 -0.2339
  765TIP3    H126490   3.856   1.004  17.886 -0.0388 -1.4577 -0.4152
  765TIP3    H226491   3.711   1.021  17.926 -0.0234  2.4456 -1.6661
  766TIP3   OH226492   3.118   6.017  19.743 -0.2547 -0.2974  0.4216
  766TIP3    H126493   3.151   6.053  19.826 -0.1834  1.4517 -0.3363
  766TIP3    H226494   3.063   5.943  19.770 -0.7644  0.6301  2.0639
  767TIP3   OH226495   4.184   4.856  16.999 -0.3609 -0.1444  0.2472
  767TIP3    H126496   4.253   4.914  16.965 -2.0534  1.4839 -0.6230
  767TIP3    H226497   4.172   4.791  16.929 -0.2779  0.0721  0.0275
  768TIP3   OH226498   2.712   0.863  17.228 -0.4200 -0.2737  0.6070
  768TIP3    H126499   2.752   0.811  17.158 -1.2772 -1.2534  0.8205
  768TIP3    H226500   2.666   0.798  17.281 -3.4981  0.9172 -0.4132
  769TIP3   OH226501   6.643   4.238  18.381  0.4567  0.1846  0.2611
  769TIP3    H126502   6.665   4.147  18.400  0.4448  0.0229 -0.4979
  769TIP3    H226503   6.727   4.278  18.356  0.3958  0.2920  0.2266
  770TIP3   OH226504   4.835   3.733  18.000 -0.1445 -0.6569  0.2256
  770TIP3    H126505   4.821   3.826  18.021  1.7072 -0.0908 -0.8259
  770TIP3    H226506   4.820   3.687  18.082  2.6830  1.0108  1.8211
  771TIP3   OH226507   4.890   1.148  18.851  0.2911  0.3236 -0.1130
  771TIP3    H126508   4.913   1.241  18.853  0.2580  0.3345 -0.2201
  771TIP3    H226509   4.813   1.141  18.908  0.8987  0.1899  0.7068
  772TIP3   OH226510   0.782   5.155  18.278 -0.1603 -0.0514  0.1358
  772TIP3    H126511   0.857   5.101  18.251  0.0097  1.3476 -2.4837
  772TIP3    H226512   0.706   5.101  18.261  0.1248 -0.4710  0.1729
  773TIP3   OH226513   2.199   2.740  19.080 -0.5745  0.2039 -0.4494
  773TIP3    H126514   2.136   2.811  19.091  1.0047  1.9506 -2.0657
  773TIP3    H226515   2.206   2.728  18.986  0.0087 -1.3680 -0.2306
  774TIP3   OH226516   7.529   7.232  19.187  0.3340 -0.5053 -0.6937
  774TIP3    H126517   7.579   7.304  19.148  0.2910 -0.5312 -0.7986
  774TIP3    H226518   7.592   7.161  19.194  0.3874 -0.4455 -0.5509
  775TIP3   OH226519   5.139   0.107  17.104 -0.1448  0.1201 -0.5764
  775TIP3    H126520   5.162   0.017  17.127  2.0391 -0.1678 -3.3036
  775TIP3    H226521   5.221   0.155  17.115 -0.6789  1.2500 -1.3844
  776TIP3   OH226522   5.031   4.924  18.071  0.3322 -0.4971 -0.2761
  776TIP3    H126523   4.956   4.873  18.039  0.0933 -0.6900  0.5842
  776TIP3    H226524   5.049   4.986  18.000 -0.3175 -0.7860 -0.7042
  777TIP3   OH226525   3.598   5.414  19.382 -0.0251  0.5823 -0.4958
  777TIP3    H126526   3.606   5.362  19.302 -0.4043 -1.3589  0.6678
  777TIP3    H226527   3.544   5.489  19.357  1.0331  0.7924 -2.3791
  778TIP3   OH226528   6.789   7.171  17.665 -0.1035 -0.4408 -0.0334
  778TIP3    H126529   6.779   7.159  17.760  1.2835 -1.1847  0.0392
  778TIP3    H226530   6.870   7.221  17.656 -0.7612  0.5192 -0.8052
  779TIP3   OH226531   7.514   5.014  18.558 -0.1965  0.8420 -0.2778
  779TIP3    H126532   7.513   4.979  18.647  0.0520  1.0836 -0.1788
  779TIP3    H226533   7.556   5.100  18.566  1.8526 -0.0246 -0.9480
  780TIP3   OH226534   7.138   4.953  18.482  0.2211  0.0464 -0.3740
  780TIP3    H126535   7.200   4.985  18.417  0.4630  1.1893  0.3807
  780TIP3    H226536   7.053   4.988  18.454  0.1756 -0.1982 -0.5466
  781TIP3   OH226537   4.127   6.892  18.237 -0.3564  0.4949  0.1197
  781TIP3    H126538   4.036   6.864  18.234 -0.6265  1.2734  0.5184
  781TIP3    H226539   4.130   6.969  18.180  0.2999 -0.1731 -0.7524
  782TIP3   OH226540   3.310   2.815  17.965  0.4634  0.1249 -0.2693
  782TIP3    H126541   3.322   2.724  17.938 -0.1280 -0.2215  0.5893
  782TIP3    H226542   3.351   2.866  17.895  0.3078 -0.7764 -1.0506
  783TIP3   OH226543   3.415   5.760  18.021  0.7241  0.6120  0.2424
  783TIP3    H126544   3.446   5.670  18.017  2.6734  1.2216  0.6097
  783TIP3    H226545   3.350   5.760  18.091  0.2178 -0.6228 -0.2059
  784TIP3   OH226546   4.720   1.069  17.359  0.2800  0.0924  0.0600
  784TIP3    H126547   4.708   0.982  17.396 -2.4399  0.7752  1.0029
  784TIP3    H226548   4.744   1.124  17.434  0.8699  0.3670 -0.3224
  785TIP3   OH226549   6.817   5.034  19.685  0.1145  0.0166 -0.6022
  785TIP3    H126550   6.739   5.060  19.735 -0.7910 -1.4592 -1.1772
  785TIP3    H226551   6.863   5.116  19.667 -0.6639  0.7939  0.7921
  786TIP3   OH226552   1.297   0.067  18.800 -0.9071 -0.4074 -0.0357
  786TIP3    H126553   1.332   0.082  18.713  1.0155 -1.7278  0.4583
  786TIP3    H226554   1.317   0.146  18.849 -2.1901  0.4301 -0.7938
  787TIP3   OH226555   0.687   6.875  19.098 -0.2399  0.4314  0.1808
  787TIP3    H126556   0.705   6.903  19.187 -0.1411  0.1152  0.2596
  787TIP3    H226557   0.761   6.907  19.047  0.1445 -0.1617  0.3649
  788TIP3   OH226558   0.336   3.538  18.389 -0.5237  0.4198 -0.0020
  788TIP3    H126559   0.394   3.485  18.335 -0.8309  0.3124 -0.2311
  788TIP3    H226560   0.249   3.501  18.375 -0.5458  0.0649  0.9557
  789TIP3   OH226561   4.540   3.396  16.892 -0.5962  0.2945  0.0213
  789TIP3    H126562   4.466   3.454  16.910 -1.9131 -0.9421 -1.1030
  789TIP3    H226563   4.516   3.312  16.931  0.1765 -0.1441 -0.4026
  790TIP3   OH226564   1.352   4.508  18.284  0.3341  0.0510  0.1428
  790TIP3    H126565   1.382   4.478  18.198 -2.9710 -0.4800 -1.0098
  790TIP3    H226566   1.384   4.597  18.291 -0.5508  0.6904 -2.4510
  791TIP3   OH226567   2.804   4.955  18.786 -0.2841 -0.3514 -0.1963
  791TIP3    H126568   2.777   4.927  18.873  0.2005  1.0616  0.4363
  791TIP3    H226569   2.882   4.902  18.766 -0.2748 -0.5332  0.3249
  792TIP3   OH226570   3.727   4.836  19.091  0.1525 -0.9634 -0.2306
  792TIP3    H126571   3.714   4.798  19.178 -0.8037 -1.5989 -0.6327
  792TIP3    H226572   3.819   4.862  19.090  0.4241 -1.8181  0.6375
  793TIP3   OH226573   5.715   2.528  19.056 -0.2126  0.0408  0.0174
  793TIP3    H126574   5.770   2.478  19.117  0.2528  0.0375 -0.4045
  793TIP3    H226575   5.687   2.463  18.992  0.9029  0.4321 -0.8924
  794TIP3   OH226576   3.626   6.457  17.488  0.1211  0.3112 -0.0863
  794TIP3    H126577   3.535   6.441  17.463 -0.1874  2.1909 -0.3437
  794TIP3    H226578   3.632   6.428  17.579 -1.0341  1.1502  0.2701
  795TIP3   OH226579   3.747   2.085  18.015  0.0103 -0.3815  0.2747
  795TIP3    H126580   3.786   2.136  18.086  1.1117 -1.7243  0.6762
  795TIP3    H226581   3.778   2.128  17.935  1.0294 -0.4642  0.6079
  796TIP3   OH226582   1.555   4.845  16.834 -0.1384  0.2461 -0.0642
  796TIP3    H126583   1.569   4.800  16.918  0.1578 -0.2042 -0.3449
  796TIP3    H226584   1.524   4.776  16.776  1.1914  0.1889 -0.7516
  797TIP3   OH226585   1.924   3.273  18.427 -0.3197 -0.3920 -0.0130
  797TIP3    H126586   1.833   3.272  18.458 -0.6661 -1.2040 -0.9973
  797TIP3    H226587   1.976   3.258  18.505 -1.0183  0.2861  0.5987
  798TIP3   OH226588   1.110   0.924  17.911 -0.0451  0.9774 -0.2930
  798TIP3    H126589   1.114   0.836  17.876  2.2678  0.9450 -0.0556
  798TIP3    H226590   1.043   0.968  17.858  1.1142  0.0418 -2.6653
  799TIP3   OH226591   4.445   2.170  18.599  0.6280 -0.7407 -0.2766
  799TIP3    H126592   4.520   2.226  18.582  1.3006 -1.1428  1.2233
  799TIP3    H226593   4.468   2.085  18.560  1.2563 -1.0481  0.7205
  800TIP3   OH226594   0.988   6.891  19.435 -0.4843 -0.2811 -0.3465
  800TIP3    H126595   0.960   6.940  19.358 -3.2888 -1.5358 -0.2336
  800TIP3    H226596   1.008   6.958  19.500 -1.7270  0.7736 -1.0036
  801TIP3   OH226597   2.507   6.636  18.334 -0.1371 -0.3635 -0.6198
  801TIP3    H126598   2.502   6.678  18.420 -0.3753 -0.8937 -0.3681
  801TIP3    H226599   2.590   6.666  18.298  1.0150 -1.7922  0.6936
  802TIP3   OH226600   5.149   5.609  17.684 -0.1785  0.7200 -0.2078
  802TIP3    H126601   5.170   5.541  17.748 -0.2954  1.8308  1.0682
  802TIP3    H226602   5.215   5.677  17.699 -1.1586  1.6981 -0.1270
  803TIP3   OH226603   0.689   3.248  17.858 -0.6562 -0.3524 -0.2786
  803TIP3    H126604   0.649   3.184  17.799 -1.2395  0.7098 -1.0734
  803TIP3    H226605   0.672   3.332  17.816 -0.1683  0.3474  0.8983
  804TIP3   OH226606   7.450   3.046  17.602 -0.7912  0.0491  0.4840
  804TIP3    H126607   7.423   3.096  17.525 -2.0824  0.2566  1.0593
  804TIP3    H226608   7.484   2.964  17.567  0.6950  0.9880 -0.4327
  805TIP3   OH226609   1.651   6.721  18.862  0.1796  0.0775 -0.8514
  805TIP3    H126610   1.690   6.806  18.883  0.5040 -0.3509  0.4153
  805TIP3    H226611   1.705   6.686  18.791  0.3236  0.7305 -1.0705
  806TIP3   OH226612   1.446   6.001  18.845 -0.6875 -0.4630  0.3802
  806TIP3    H126613   1.539   5.981  18.847 -0.8404 -1.5625 -1.2560
  806TIP3    H226614   1.403   5.917  18.832 -2.0305 -0.1435  2.3548
  807TIP3   OH226615   4.934   4.165  19.076 -0.2255 -0.0732 -0.5218
  807TIP3    H126616   4.982   4.247  19.075 -0.1506 -0.0446  1.3452
  807TIP3    H226617   4.842   4.191  19.072 -0.1895 -0.1015 -3.4401
  808TIP3   OH226618   7.143   2.294  19.132  0.0382 -0.0332 -0.6153
  808TIP3    H126619   7.230   2.261  19.110  0.0853 -0.1979 -0.1875
  808TIP3    H226620   7.150   2.321  19.224 -0.1202  0.7681 -0.8281
  809TIP3   OH226621   4.849   0.770  17.813  0.5426 -0.0673  0.1974
  809TIP3    H126622   4.888   0.845  17.768  0.9788  0.4262  1.3574
  809TIP3    H226623   4.836   0.705  17.744  0.2626  1.0269 -0.8067
  810TIP3   OH226624   3.520   3.185  17.414  0.3275 -0.3107  0.5649
  810TIP3    H126625   3.609   3.184  17.378  0.1742 -0.7646  0.1842
  810TIP3    H226626   3.529   3.227  17.499  0.5132  1.8811 -0.4691
  811TIP3   OH226627   7.056   5.268  19.254 -0.6769 -0.1825  0.2785
  811TIP3    H126628   6.962   5.273  19.236 -0.9666 -0.4443  1.6287
  811TIP3    H226629   7.062   5.218  19.335  0.6705 -0.6353 -0.0702
  812TIP3   OH226630   1.446   3.508  17.500  0.1174 -0.2561  0.1821
  812TIP3    H126631   1.537   3.502  17.530  1.0714  0.0943 -2.3615
  812TIP3    H226632   1.431   3.426  17.453 -0.1516  0.5144 -1.1318
  813TIP3   OH226633   3.504   4.443  19.052 -0.7128 -0.0355 -0.5751
  813TIP3    H126634   3.469   4.369  19.003 -1.1466  0.8561 -1.6464
  813TIP3    H226635   3.599   4.433  19.046 -0.7673 -0.1656 -1.2386
  814TIP3   OH226636   0.322   4.407  17.949  0.0955 -0.3495  0.4866
  814TIP3    H126637   0.284   4.403  17.861 -0.0532  1.3205  0.4306
  814TIP3    H226638   0.416   4.396  17.935 -0.1116 -2.4425  0.4096
  815TIP3   OH226639   5.764   1.759  17.921  0.0407 -0.4738 -0.5566
  815TIP3    H126640   5.774   1.845  17.881 -1.3627 -0.1695 -0.3103
  815TIP3    H226641   5.697   1.715  17.868 -0.3520 -0.8338  0.2142
  816TIP3   OH226642   4.206   0.882  16.808 -0.3993 -0.5909 -0.0092
  816TIP3    H126643   4.282   0.832  16.837 -1.9069 -1.7076  2.3350
  816TIP3    H226644   4.176   0.836  16.729  0.6611 -0.8349 -0.2823
  817TIP3   OH226645   6.340   4.927  17.013  0.2176  0.3204  0.1801
  817TIP3    H126646   6.417   4.923  16.956 -0.6946 -1.3625 -1.0292
  817TIP3    H226647   6.281   4.989  16.969 -0.0133 -0.0932 -0.0999
  818TIP3   OH226648   1.978   0.619  18.704 -0.3311  0.0909  0.3392
  818TIP3    H126649   1.885   0.627  18.686 -0.7480 -1.6450  1.5427
  818TIP3    H226650   2.015   0.587  18.622 -0.5087  2.1391 -0.6083
  819TIP3   OH226651   4.361   1.304  19.651 -0.0975  0.0584 -0.3886
  819TIP3    H126652   4.311   1.338  19.725  2.1989  0.8468  0.9185
  819TIP3    H226653   4.440   1.359  19.649  0.0527 -0.1212 -3.2690
  820TIP3   OH226654   2.003   4.499  19.098  0.1738 -0.0476 -0.1268
  820TIP3    H126655   1.989   4.576  19.043 -0.7146  1.0622  1.5555
  820TIP3    H226656   1.949   4.515  19.175  1.7361 -1.2965  1.2944
  821TIP3   OH226657   4.559   0.840  19.178 -0.0091  0.6390  0.4696
  821TIP3    H126658   4.647   0.844  19.216  0.5591  0.9126 -0.8297
  821TIP3    H226659   4.573   0.820  19.086 -1.4205 -1.6141  0.6702
  822TIP3   OH226660   0.557   5.013  19.527  0.4124 -0.1009  0.0054
  822TIP3    H126661   0.543   5.105  19.548 -2.6983 -0.5361  0.2765
  822TIP3    H226662   0.507   4.998  19.447  0.2371 -1.7251  0.3811
  823TIP3   OH226663   4.337   3.810  19.015  0.6289 -0.4199  0.0068
  823TIP3    H126664   4.333   3.715  19.018  2.2766 -0.5020  0.9467
  823TIP3    H226665   4.425   3.832  19.047  0.1774  1.4267  0.1450
  824TIP3   OH226666   0.583   4.564  18.727  0.2142  0.0340  0.4335
  824TIP3    H126667   0.556   4.630  18.792  0.6334 -0.6707  1.3458
  824TIP3    H226668   0.531   4.585  18.649 -1.2842  0.1165  1.4022
  825TIP3   OH226669   2.429   6.936  17.258  0.0797 -0.0779  0.2559
  825TIP3    H126670   2.522   6.916  17.250  0.2758  0.2603  1.4633
  825TIP3    H226671   2.412   6.934  17.352 -1.0043  0.4252  0.0875
  826TIP3   OH226672   3.356   5.450  19.051 -0.6092  0.3911 -0.4054
  826TIP3    H126673   3.387   5.466  19.139  0.6843  0.2209 -0.8152
  826TIP3    H226674   3.320   5.534  19.022  0.5935  0.9344 -0.3611
  827TIP3   OH226675   6.485   1.519  18.709  0.5615  0.0471  0.4925
  827TIP3    H126676   6.485   1.608  18.745 -0.4516 -0.0450  0.7596
  827TIP3    H226677   6.432   1.469  18.771 -0.6364 -0.2771 -0.7625
  828TIP3   OH226678   2.542   1.759  19.395 -0.2984 -0.6153 -0.3619
  828TIP3    H126679   2.522   1.728  19.483 -1.7752  1.0351 -0.0523
  828TIP3    H226680   2.550   1.854  19.404  1.2320 -0.5631 -1.7296
  829TIP3   OH226681   1.511   7.150  17.480 -1.0312 -0.1038 -0.4324
  829TIP3    H126682   1.420   7.124  17.494 -1.4799  2.3131  1.9646
  829TIP3    H226683   1.559   7.108  17.552 -0.3927 -0.5348 -1.0932
  830TIP3   OH226684   3.386   7.306  17.790 -0.0808  0.1276 -0.2558
  830TIP3    H126685   3.293   7.285  17.781 -0.0109  0.1350 -1.0944
  830TIP3    H226686   3.391   7.400  17.773  0.0165  0.2281  0.3147
  831TIP3   OH226687   2.054   7.037  18.148  0.2549 -0.0845  0.8323
  831TIP3    H126688   1.973   7.065  18.189 -1.1010 -2.4631 -0.0425
  831TIP3    H226689   2.070   6.949  18.183  2.2498  0.1669  0.6683
  832TIP3   OH226690   2.591   7.423  18.950 -0.1006 -0.1462  0.0958
  832TIP3    H126691   2.619   7.351  19.006 -0.6704 -0.6629 -0.2708
  832TIP3    H226692   2.663   7.486  18.954 -0.0272 -0.2888  1.1981
  833TIP3   OH226693   5.463   5.179  19.657 -0.0223  0.3646  0.3339
  833TIP3    H126694   5.524   5.114  19.623 -2.1844 -0.5935 -2.1328
  833TIP3    H226695   5.506   5.263  19.640  0.8102 -0.2821 -0.9757
  834TIP3   OH226696   0.880   3.767  19.144 -0.2405  0.5068 -0.6296
  834TIP3    H126697   0.870   3.677  19.111 -1.0114 -0.4901  2.0522
  834TIP3    H226698   0.966   3.794  19.113  0.0416 -1.1714 -1.4601
  835TIP3   OH226699   5.985   0.343  18.229  0.3773  0.6145  0.0631
  835TIP3    H126700   5.970   0.321  18.137  2.0591  0.6173 -0.2485
  835TIP3    H226701   5.903   0.382  18.258 -0.5107 -0.2433 -1.1675
  836TIP3   OH226702   3.354   3.003  17.719  0.3578 -0.0456 -0.4065
  836TIP3    H126703   3.432   3.049  17.690 -0.9948  1.3170 -2.0922
  836TIP3    H226704   3.311   2.975  17.638 -1.5475  0.3562  0.4185
  837TIP3   OH226705   3.383   2.957  18.224  0.3223  0.1558  0.1838
  837TIP3    H126706   3.356   2.925  18.138  0.5314 -0.4945  0.3547
  837TIP3    H226707   3.478   2.945  18.225  0.0679 -2.2790  1.4652
  838TIP3   OH226708   6.304   3.343  18.084  0.5547 -0.2567 -0.2453
  838TIP3    H126709   6.258   3.425  18.098  1.1064  0.0057  0.0704
  838TIP3    H226710   6.362   3.334  18.160 -0.2169 -1.4370  0.2308
  839TIP3   OH226711   3.190   3.937  19.364  0.6098  0.0862  0.7202
  839TIP3    H126712   3.197   3.860  19.420 -1.4122  0.6492  1.8356
  839TIP3    H226713   3.151   3.906  19.283  1.8354 -0.4028  0.2862
  840TIP3   OH226714   1.251   5.700  17.458 -0.3421  0.5910  0.0352
  840TIP3    H126715   1.266   5.748  17.539 -0.0588  0.8922 -0.1933
  840TIP3    H226716   1.199   5.624  17.484 -1.1972  1.2662  0.3354
  841TIP3   OH226717   2.721   6.449  19.261  0.1852  0.3248 -0.5580
  841TIP3    H126718   2.666   6.403  19.325 -0.7882  2.0790 -0.0817
  841TIP3    H226719   2.667   6.522  19.231  1.0786  0.2526 -2.5181
  842TIP3   OH226720   5.029   4.109  17.924 -0.8379  0.0053 -0.1561
  842TIP3    H126721   5.091   4.083  17.856  1.2546 -0.3722  1.7571
  842TIP3    H226722   5.008   4.200  17.904  0.6684  0.2631 -0.6798
  843TIP3   OH226723   4.979   7.466  19.251 -0.3505 -0.0222  0.4295
  843TIP3    H126724   5.024   7.530  19.194 -2.3772  0.6474 -0.4975
  843TIP3    H226725   4.974   7.387  19.198 -2.2758  0.6141 -0.3974
  844TIP3   OH226726   0.714   7.659  18.319 -0.0886  0.4181 -0.0951
  844TIP3    H126727   0.798   7.614  18.315 -0.8308 -0.9903 -0.3385
  844TIP3    H226728   0.659   7.613  18.255 -1.4375  0.4588  0.9952
  845TIP3   OH226729   4.428   1.414  18.586 -0.7333 -0.3451  0.2197
  845TIP3    H126730   4.332   1.413  18.587 -0.7560  0.2434 -0.4599
  845TIP3    H226731   4.453   1.366  18.665 -1.5664 -1.7400 -0.3290
  846TIP3   OH226732   2.892   2.728  18.843 -0.3540 -0.3059 -0.1898
  846TIP3    H126733   2.951   2.708  18.916 -0.6156 -1.6290 -0.3203
  846TIP3    H226734   2.951   2.743  18.769 -0.1221 -2.8501 -0.6278
  847TIP3   OH226735   2.546   5.651  16.960 -0.2044  0.3222  0.5486
  847TIP3    H126736   2.472   5.711  16.949 -1.1745 -0.9497  0.0069
  847TIP3    H226737   2.532   5.582  16.895  1.0832 -0.3106  0.9118
  848TIP3   OH226738   6.596   5.226  18.542  0.1062 -0.3329 -0.6472
  848TIP3    H126739   6.553   5.254  18.461 -1.5379 -0.7800  0.0150
  848TIP3    H226740   6.567   5.290  18.607  0.7263 -0.4690 -0.2337
  849TIP3   OH226741   2.938   6.229  18.811 -0.8415  0.4291  0.2007
  849TIP3    H126742   2.939   6.165  18.881 -1.5169  0.6828  0.4541
  849TIP3    H226743   2.878   6.297  18.842  1.1222  2.0402  0.6954
  850TIP3   OH226744   3.857   7.538  18.924 -0.2373 -0.3451 -0.0894
  850TIP3    H126745   3.927   7.592  18.960 -2.6366  1.8853  1.5776
  850TIP3    H226746   3.850   7.564  18.832 -0.6213  1.4800  0.4226
  851TIP3   OH226747   6.282   5.849  18.476 -0.5612  0.0903 -0.1385
  851TIP3    H126748   6.360   5.796  18.456 -0.7831 -0.1282 -0.4345
  851TIP3    H226749   6.211   5.805  18.429 -0.6334  1.0204 -0.9063
  852TIP3   OH226750   0.636   6.788  18.714  0.5927 -0.3949 -0.8654
  852TIP3    H126751   0.713   6.737  18.739  0.2245 -0.2306  0.7268
  852TIP3    H226752   0.570   6.723  18.691  1.0410 -0.5450 -1.7900
  853TIP3   OH226753   5.775   0.105  17.881 -0.3995  0.2339  0.0994
  853TIP3    H126754   5.723   0.045  17.828  2.7397 -2.5711 -0.1261
  853TIP3    H226755   5.751   0.085  17.971  0.4889 -1.3824  0.0191
  854TIP3   OH226756   7.414   3.745  17.359  0.0857  0.3572  0.1263
  854TIP3    H126757   7.449   3.737  17.448  3.6621 -3.2303 -1.3314
  854TIP3    H226758   7.326   3.707  17.365  0.6607 -0.8115  1.9418
  855TIP3   OH226759   5.944   6.420  18.077 -0.2187  0.0131 -0.0700
  855TIP3    H126760   5.897   6.340  18.054  1.5299 -1.5059  1.2502
  855TIP3    H226761   6.023   6.389  18.122  1.9462  2.3599 -1.9117
  856TIP3   OH226762   6.395   4.741  18.986 -0.1287 -0.4759 -0.0270
  856TIP3    H126763   6.351   4.665  18.949 -1.2214  0.5005 -0.7880
  856TIP3    H226764   6.445   4.705  19.059 -0.0105 -2.0366 -0.8217
  857TIP3   OH226765   5.680   2.898  19.012 -0.0028  0.1799  0.4073
  857TIP3    H126766   5.626   2.919  18.935  0.6892  0.7722  0.0622
  857TIP3    H226767   5.762   2.866  18.974 -0.1577 -0.8828  0.9257
  858TIP3   OH226768   1.465   2.420  18.939 -0.4679 -0.4620 -0.0817
  858TIP3    H126769   1.498   2.330  18.937  1.2933  0.1049  1.4137
  858TIP3    H226770   1.432   2.431  19.028 -2.5402 -0.2131 -0.8245
  859TIP3   OH226771   3.938   4.013  17.368 -0.1349  0.0976 -0.4312
  859TIP3    H126772   3.963   4.065  17.445  0.8361  0.8113 -1.2108
  859TIP3    H226773   3.897   3.935  17.405 -2.1072  1.5897  0.8022
  860TIP3   OH226774   7.266   3.754  17.777 -0.4429  0.2608  0.3767
  860TIP3    H126775   7.206   3.803  17.833  0.0876 -0.5113  1.6699
  860TIP3    H226776   7.209   3.712  17.712 -1.1289  0.7750  0.6336
  861TIP3   OH226777   7.169   1.672  17.809 -0.0261  0.3628  0.5277
  861TIP3    H126778   7.208   1.654  17.894 -0.2831  0.2773  0.6283
  861TIP3    H226779   7.229   1.734  17.768  0.3494  0.0414  0.5784
  862TIP3   OH226780   3.341   3.420  18.991  0.3511 -0.0756  0.2361
  862TIP3    H126781   3.295   3.336  18.982 -0.3581  0.3051  0.2855
  862TIP3    H226782   3.306   3.458  19.072 -0.2996  0.8659 -0.4670
  863TIP3   OH226783   7.264   2.777  17.567  0.4077  0.3852 -0.1167
  863TIP3    H126784   7.215   2.859  17.564  2.4463  1.8066  1.7198
  863TIP3    H226785   7.353   2.802  17.543  0.5196 -1.9292 -2.4906
  864TIP3   OH226786   3.484   3.596  17.125 -0.5430  0.4591  0.9942
  864TIP3    H126787   3.438   3.516  17.151 -1.6012  0.7456  0.0835
  864TIP3    H226788   3.569   3.565  17.094 -0.2596 -0.1280  2.2703
  865TIP3   OH226789   5.358   7.605  18.625  0.2773  0.5914 -0.1711
  865TIP3    H126790   5.360   7.547  18.550 -3.1812 -1.0645  0.7998
  865TIP3    H226791   5.351   7.693  18.588  0.0713 -0.0587 -1.7423
  866TIP3   OH226792   4.714   4.639  17.494 -0.3885 -0.0717  0.1099
  866TIP3    H126793   4.809   4.645  17.484 -0.3430 -0.9396 -0.0566
  866TIP3    H226794   4.680   4.669  17.410 -0.3222  1.3748  0.5626
  867TIP3   OH226795   0.467   2.768  18.737 -0.3912  0.4890  0.5741
  867TIP3    H126796   0.547   2.733  18.697 -0.3631 -0.5805  1.4974
  867TIP3    H226797   0.434   2.695  18.789 -2.6796  0.4748 -0.7988
  868TIP3   OH226798   5.750   6.191  17.233  0.8017 -0.5786 -0.2410
  868TIP3    H126799   5.753   6.149  17.146  0.1797  0.3520 -0.7262
  868TIP3    H226800   5.803   6.270  17.223 -0.4675  0.3069 -0.2206
  869TIP3   OH226801   0.041   1.963  19.348 -0.2921 -0.3305 -0.3789
  869TIP3    H126802   0.108   1.895  19.336  0.3127  0.3924 -1.2517
  869TIP3    H226803  -0.042   1.915  19.349  0.1685 -1.1531 -0.2338
  870TIP3   OH226804   7.319   0.258  17.167  0.1923  0.1103 -0.1752
  870TIP3    H126805   7.349   0.265  17.077  0.8143 -1.7728 -0.1576
  870TIP3    H226806   7.378   0.314  17.217  0.0735  0.8731 -0.8718
  871TIP3   OH226807   6.066   4.280  18.570  0.5380  0.0193 -0.0203
  871TIP3    H126808   5.999   4.317  18.513  1.6564 -1.7224 -2.6395
  871TIP3    H226809   6.071   4.188  18.545  2.2966 -0.4264  1.7183
  872TIP3   OH226810   3.044   2.288  18.272  0.0236  0.3775 -0.1642
  872TIP3    H126811   3.045   2.227  18.346 -0.4006 -0.2411 -0.6545
  872TIP3    H226812   3.136   2.309  18.257  0.2146 -0.4655 -0.2466
  873TIP3   OH226813   0.641   3.552  17.015  0.1308  0.1773  1.1392
  873TIP3    H126814   0.712   3.533  16.953 -0.7183 -1.1768  0.5090
  873TIP3    H226815   0.567   3.579  16.959 -0.3397 -0.0664  1.6305
  874TIP3   OH226816   3.034   5.540  17.950  0.5522 -0.0925 -0.2245
  874TIP3    H126817   3.105   5.477  17.942  1.3784  0.4532  2.1536
  874TIP3    H226818   2.995   5.522  18.035  0.1246  1.9045  0.0516
  875TIP3   OH226819   7.417   4.222  17.226  0.4864 -0.0784 -0.5977
  875TIP3    H126820   7.406   4.243  17.319  1.2173 -1.7255 -0.1150
  875TIP3    H226821   7.366   4.142  17.213  0.6345 -0.0340 -1.5634
  876TIP3   OH226822   0.849   6.945  18.539  0.0928  0.2180  0.4981
  876TIP3    H126823   0.804   6.861  18.528 -0.9996  0.7089  1.0279
  876TIP3    H226824   0.915   6.927  18.606  0.6431 -0.4922 -0.2167
  877TIP3   OH226825   4.793   4.427  18.371 -0.4002 -0.5111  0.0481
  877TIP3    H126826   4.843   4.507  18.387 -2.0676  0.5389  0.2294
  877TIP3    H226827   4.759   4.402  18.457 -1.6046 -0.2042 -0.3218
  878TIP3   OH226828   6.543   5.813  18.651 -0.0820  0.0140  0.1150
  878TIP3    H126829   6.547   5.771  18.565  1.5882  0.8482 -0.2426
  878TIP3    H226830   6.561   5.906  18.634 -0.5348  0.3416  1.2848
  879TIP3   OH226831   3.802   6.726  16.712  0.5722  0.3161 -0.1083
  879TIP3    H126832   3.808   6.780  16.633 -0.3543  1.6906  0.7118
  879TIP3    H226833   3.768   6.642  16.681 -0.6307  1.1174 -1.0820
  880TIP3   OH226834   7.345   7.259  17.193  0.5152  0.5242  0.1648
  880TIP3    H126835   7.318   7.344  17.158 -1.5606  0.7816  2.1287
  880TIP3    H226836   7.305   7.195  17.134 -1.8787  0.9518  1.1938
  881TIP3   OH226837   3.950   3.401  18.279 -0.0257  0.6767  0.0028
  881TIP3    H126838   3.926   3.476  18.225  2.9349  2.0507  0.3755
  881TIP3    H226839   4.022   3.359  18.230  1.0608  0.5112  1.6629
  882TIP3   OH226840   3.007   0.677  18.516 -0.2111 -0.5623  0.2533
  882TIP3    H126841   2.967   0.606  18.567 -0.6115 -0.6115 -0.1278
  882TIP3    H226842   3.092   0.691  18.558  0.5343 -2.2823 -0.5535
  883TIP3   OH226843   5.254   2.948  16.915  0.2894 -0.3305 -0.3185
  883TIP3    H126844   5.337   2.901  16.926 -0.7800 -1.8833  2.1554
  883TIP3    H226845   5.267   3.031  16.960  0.4378 -0.7079  0.3522
  884TIP3   OH226846   0.386   1.934  17.912 -0.1493  0.2906  0.4421
  884TIP3    H126847   0.319   1.904  17.851  0.8658 -0.1075 -0.5223
  884TIP3    H226848   0.358   2.022  17.937 -0.2087  0.7881 -1.2255
  885TIP3   OH226849   4.361   2.246  19.120 -0.3098 -0.0833 -0.3879
  885TIP3    H126850   4.293   2.199  19.072 -0.3862 -0.2302 -0.1380
  885TIP3    H226851   4.324   2.259  19.207 -0.4912  0.8788 -0.5970
  886TIP3   OH226852   6.653   3.816  18.687 -0.1387 -0.0263  0.4226
  886TIP3    H126853   6.569   3.852  18.659 -1.3845 -3.4899 -0.8467
  886TIP3    H226854   6.640   3.794  18.779 -0.1438  0.6558  0.5891
  887TIP3   OH226855   2.860   4.349  18.748  0.5490 -0.0238  0.5120
  887TIP3    H126856   2.797   4.292  18.703 -0.6110  1.6751 -0.1031
  887TIP3    H226857   2.941   4.337  18.698 -0.8174  2.2054 -2.6191
  888TIP3   OH226858   4.308   0.595  16.627  0.2437  0.1868  0.3839
  888TIP3    H126859   4.375   0.639  16.680  0.0327 -0.2673  1.0298
  888TIP3    H226860   4.260   0.667  16.585 -0.7640  0.6462  2.2271
  889TIP3   OH226861   3.933   6.251  17.939 -0.4756  0.3248  0.0175
  889TIP3    H126862   3.977   6.212  18.015  0.7128  1.5881  0.0268
  889TIP3    H226863   3.972   6.207  17.864 -0.7389 -0.0468  0.0995
  890TIP3   OH226864   3.472   5.424  18.745  0.0732  0.2962 -0.7341
  890TIP3    H126865   3.523   5.382  18.676 -1.4541 -0.7739 -1.2591
  890TIP3    H226866   3.420   5.353  18.784 -0.1583  1.1381  0.5630
  891TIP3   OH226867   0.264   6.775  18.778 -0.4669  0.2858  0.3180
  891TIP3    H126868   0.317   6.697  18.765 -1.4102 -0.5659  1.4474
  891TIP3    H226869   0.327   6.846  18.789  0.4119 -0.5017  0.4326
  892TIP3   OH226870   1.169   5.663  18.566  0.2114  0.1519 -0.5199
  892TIP3    H126871   1.184   5.697  18.654 -1.8227  0.5814 -0.2718
  892TIP3    H226872   1.079   5.630  18.569  0.4415 -0.6927 -2.1753
  893TIP3   OH226873   3.903   6.829  18.458 -0.2970 -0.7088 -0.5778
  893TIP3    H126874   3.820   6.848  18.502 -0.1150  0.1394 -0.5959
  893TIP3    H226875   3.917   6.735  18.473 -0.9679 -0.7353 -0.0854
  894TIP3   OH226876   5.120   2.254  19.002 -0.3332 -0.1628 -0.2082
  894TIP3    H126877   5.100   2.329  19.058 -0.1338  0.0844 -0.4557
  894TIP3    H226878   5.184   2.203  19.051 -0.0800  0.1084 -0.2493
  895TIP3   OH226879   5.132   5.717  19.061  0.1875 -0.2460 -0.3498
  895TIP3    H126880   5.186   5.784  19.019 -1.3435  1.7151  0.6244
  895TIP3    H226881   5.194   5.656  19.099  1.7480  1.4875  0.0552
  896TIP3   OH226882   2.788   5.774  17.777  0.7648  0.2538  0.0612
  896TIP3    H126883   2.693   5.786  17.781  0.6923 -0.4891  0.8760
  896TIP3    H226884   2.814   5.753  17.867  1.8242  1.2251  0.0102
  897TIP3   OH226885   0.604   3.490  18.102  0.0661 -0.3634  0.5044
  897TIP3    H126886   0.566   3.564  18.149  2.6195  0.1519  1.9080
  897TIP3    H226887   0.681   3.526  18.058  1.1227 -2.0875  0.8619
  898TIP3   OH226888   3.244   6.073  19.196  0.3067  0.0214  0.0232
  898TIP3    H126889   3.176   6.006  19.209  1.3332 -0.7674  1.6340
  898TIP3    H226890   3.202   6.140  19.142 -1.4314 -0.8986  0.1697
  899TIP3   OH226891   2.738   4.755  19.226  0.3422 -0.2049  0.2614
  899TIP3    H126892   2.698   4.679  19.185  1.3062 -0.9705  0.7042
  899TIP3    H226893   2.771   4.808  19.153 -2.3264  0.9905 -0.1845
  900TIP3   OH226894   6.217   6.057  18.645  0.1228 -0.0099  0.0769
  900TIP3    H126895   6.223   5.978  18.590  0.3636  0.3099 -0.3638
  900TIP3    H226896   6.308   6.081  18.661  0.0546  0.8595 -0.7845
  901TIP3   OH226897   2.225   6.882  17.057 -0.0628 -0.0844 -0.0676
  901TIP3    H126898   2.295   6.879  17.123  1.4487  1.1409 -1.5414
  901TIP3    H226899   2.217   6.791  17.028  1.1455 -0.2072 -0.0823
  902TIP3   OH226900   0.078   2.063  18.305  0.5578 -0.1626  0.4312
  902TIP3    H126901   0.096   2.079  18.398 -0.1227  0.7894  0.4167
  902TIP3    H226902   0.002   2.004  18.305 -1.9257  2.7521  0.5734
  903TIP3   OH226903   7.271   6.236  17.422  0.3697  0.5047 -0.1321
  903TIP3    H126904   7.312   6.322  17.436 -1.9259  1.7214 -0.3577
  903TIP3    H226905   7.292   6.186  17.501  0.1946  1.9499  0.8658
  904TIP3   OH226906   0.752   1.812  16.790 -0.0860  0.2291  0.1611
  904TIP3    H126907   0.731   1.854  16.707 -1.4749 -1.4756 -0.4164
  904TIP3    H226908   0.668   1.779  16.823  0.8400 -1.7074  0.7453
  905TIP3   OH226909   5.911   6.595  18.868  0.0639  0.2265 -0.0850
  905TIP3    H126910   5.990   6.592  18.815 -0.0255 -1.9366 -0.1850
  905TIP3    H226911   5.860   6.667  18.831  2.8634  3.2196  1.4044
  906TIP3   OH226912   3.163   4.476  17.224 -0.4943 -0.1994  0.0059
  906TIP3    H126913   3.243   4.424  17.222  1.0157  1.9191  1.0323
  906TIP3    H226914   3.115   4.450  17.145  1.1461 -1.6148 -0.5813
  907TIP3   OH226915   5.991   0.382  17.667  0.5944 -0.2124 -0.0089
  907TIP3    H126916   5.998   0.385  17.571  0.3241 -0.8153 -0.0492
  907TIP3    H226917   5.898   0.401  17.684  0.1395 -2.2343  0.0140
  908TIP3   OH226918   7.185   6.418  17.685 -0.1862 -0.3107  0.0121
  908TIP3    H126919   7.267   6.415  17.734  0.6101 -0.4315 -1.2754
  908TIP3    H226920   7.135   6.343  17.717  0.4845 -0.6310  0.3352
  909TIP3   OH226921   5.588   6.040  18.976  0.1053 -0.4223  0.0098
  909TIP3    H126922   5.599   6.066  18.885 -1.9700 -0.8576 -0.4068
  909TIP3    H226923   5.677   6.025  19.007  0.9635  1.3680 -1.4326
  910TIP3   OH226924   3.824   0.422  17.213 -0.0464 -0.5853 -0.1374
  910TIP3    H126925   3.734   0.453  17.224 -0.0040 -0.5808  0.2040
  910TIP3    H226926   3.839   0.426  17.119 -0.7660 -1.5860 -0.3203
  911TIP3   OH226927   3.717   2.813  16.725 -0.6197  0.8823  0.3841
  911TIP3    H126928   3.725   2.768  16.641 -1.2168 -0.1228  0.8473
  911TIP3    H226929   3.743   2.903  16.706  1.2194  0.2391 -0.4412
  912TIP3   OH226930   5.398   1.227  18.807  0.0559  0.2135 -0.2401
  912TIP3    H126931   5.340   1.190  18.740 -0.5360  1.3095 -0.3650
  912TIP3    H226932   5.467   1.271  18.757  0.6344 -0.5133 -0.0968
  913TIP3   OH226933   0.737   2.024  18.827  0.2226 -0.3873 -0.0185
  913TIP3    H126934   0.801   2.053  18.892 -0.4447 -0.0856  0.5246
  913TIP3    H226935   0.734   1.929  18.837 -0.3742 -0.2940  0.9058
  914TIP3   OH226936   5.737   1.981  17.755 -0.0850 -0.6926  0.0756
  914TIP3    H126937   5.643   1.968  17.748 -0.1189 -0.9761  0.8973
  914TIP3    H226938   5.767   1.992  17.665 -1.2562  1.9729 -0.0828
  915TIP3   OH226939   6.908   2.153  17.445  0.3805 -0.5280 -0.0809
  915TIP3    H126940   6.845   2.093  17.405  1.1563  0.0305 -2.2715
  915TIP3    H226941   6.859   2.196  17.515 -1.2122 -1.2018 -0.7287
  916TIP3   OH226942   0.765   5.395  18.066 -0.4737 -0.0395 -0.1730
  916TIP3    H126943   0.762   5.303  18.095 -0.2840  0.3068  1.0027
  916TIP3    H226944   0.678   5.429  18.087  0.1638  0.6452  1.5443
  917TIP3   OH226945   1.296   1.563  18.112 -0.3247 -0.5578  0.1804
  917TIP3    H126946   1.241   1.632  18.148  1.9384  0.9875  0.8930
  917TIP3    H226947   1.311   1.503  18.185 -0.1645 -0.3731  0.2996
  918TIP3   OH226948   2.602   4.887  17.000 -0.0909 -0.4229 -0.9928
  918TIP3    H126949   2.682   4.925  17.035 -1.1870  0.5024  0.6641
  918TIP3    H226950   2.606   4.905  16.906  0.7927  1.2460 -0.6778
  919TIP3   OH226951   0.520   0.372  18.385 -0.2086  0.3049  0.4121
  919TIP3    H126952   0.596   0.314  18.370  0.5885  1.3428  0.3493
  919TIP3    H226953   0.555   0.445  18.436 -0.8828  1.4276 -0.6891
  920TIP3   OH226954   1.043   7.060  18.075  0.2792 -0.0379 -0.1097
  920TIP3    H126955   0.981   7.063  18.001  0.1135  0.9139  0.0484
  920TIP3    H226956   1.124   7.027  18.037 -0.0302 -0.2974 -0.5521
  921TIP3   OH226957   3.061   5.484  18.917  0.5279 -0.3577 -0.3066
  921TIP3    H126958   3.006   5.464  18.993 -0.0468  1.0491 -0.3271
  921TIP3    H226959   3.119   5.554  18.947 -0.2029  0.7262 -1.3629
  922TIP3   OH226960   0.002   3.573  19.092 -0.3150 -0.2735 -0.2811
  922TIP3    H126961  -0.020   3.481  19.080 -0.3756 -0.0413 -2.3102
  922TIP3    H226962  -0.065   3.620  19.043  0.0851  0.8284  0.1959
  923TIP3   OH226963   2.531   4.297  19.082 -0.1066  0.3620  0.4030
  923TIP3    H126964   2.505   4.348  19.004 -2.2187 -1.4747 -0.1778
  923TIP3    H226965   2.455   4.299  19.139  1.6120  2.2046  2.8670
  924TIP3   OH226966   2.853   5.894  17.544  0.4681 -0.3102 -0.2571
  924TIP3    H126967   2.770   5.889  17.496 -0.1156 -2.5171  0.8658
  924TIP3    H226968   2.837   5.846  17.625  2.3942  0.5691  0.7007
  925TIP3   OH226969   0.123   4.800  17.904  0.7971 -0.1398 -0.2466
  925TIP3    H126970   0.077   4.736  17.849  1.6600 -0.5653 -0.4941
  925TIP3    H226971   0.056   4.831  17.965  0.4843 -1.7726  0.3058
  926TIP3   OH226972   0.665   7.050  18.272 -0.3735 -0.6135  0.0045
  926TIP3    H126973   0.581   7.064  18.227 -0.1392 -0.9505 -0.5459
  926TIP3    H226974   0.684   6.958  18.258  0.0350 -0.5658  0.2417
  927TIP3   OH226975   5.660   4.019  18.160  0.5248  0.5030 -0.0068
  927TIP3    H126976   5.656   3.949  18.095  1.9184 -0.5056  0.9289
  927TIP3    H226977   5.737   4.071  18.134 -0.2817  1.4854 -0.4791
  928TIP3   OH226978   2.317   0.960  18.459  0.2512  0.2632 -0.9019
  928TIP3    H126979   2.306   0.866  18.443  0.6512 -0.5725  2.7803
  928TIP3    H226980   2.227   0.994  18.464 -0.0871 -0.7708  1.3183
  929TIP3   OH226981   2.478   5.995  18.817 -0.1645  0.1828  0.3455
  929TIP3    H126982   2.405   5.943  18.850 -1.3356  1.9626  0.6699
  929TIP3    H226983   2.477   6.075  18.870  3.4806 -0.6221  2.0070
  930TIP3   OH226984   7.303   4.046  17.958  0.2187  0.0050  0.1382
  930TIP3    H126985   7.381   4.001  17.925 -0.8692 -2.7789  1.0503
  930TIP3    H226986   7.332   4.091  18.037  1.3172  0.8948 -0.7274
  931TIP3   OH226987   5.929   5.156  17.904 -0.5020 -0.1493  0.0241
  931TIP3    H126988   5.976   5.216  17.962 -0.9117 -0.7652  1.0113
  931TIP3    H226989   5.998   5.114  17.853  0.4020 -2.9035  3.1737
  932TIP3   OH226990   6.913   1.841  17.762 -0.0809  0.1265 -0.4602
  932TIP3    H126991   6.948   1.930  17.769  0.5462 -0.0169 -1.5772
  932TIP3    H226992   6.990   1.787  17.747 -0.4381 -0.6479  0.3953
  933TIP3   OH226993   3.163   4.041  18.925  0.3969  0.0272  0.1255
  933TIP3    H126994   3.169   4.001  19.012 -1.0226 -0.2785  0.1064
  933TIP3    H226995   3.213   3.982  18.868 -0.0305 -0.6640  0.4527
  934TIP3   OH226996   5.804   0.638  18.226 -0.3416 -0.3607 -0.3552
  934TIP3    H126997   5.840   0.681  18.303  0.7273 -0.5994 -0.7019
  934TIP3    H226998   5.710   0.634  18.242 -0.0578 -1.1529  1.3058
  935TIP3   OH226999   0.633   4.163  19.272 -0.0946  0.1069 -0.9602
  935TIP3    H127000   0.543   4.174  19.242 -0.0432 -0.7692 -1.4736
  935TIP3    H227001   0.640   4.070  19.293  0.4641  0.3213 -0.1607
  936TIP3   OH227002   0.356   3.112  17.293 -0.2707  0.2882  0.2865
  936TIP3    H127003   0.374   3.118  17.199 -1.1266 -0.9774  0.0126
  936TIP3    H227004   0.373   3.020  17.314  2.3721  1.0504  1.9392
  937TIP3   OH227005   0.079   3.494  17.882 -0.3873  0.4816  0.1488
  937TIP3    H127006   0.100   3.586  17.901  0.8256  0.0351  1.1745
  937TIP3    H227007   0.068   3.454  17.969  1.5716 -0.8435 -0.1505
  938TIP3   OH227008   6.996   5.859  16.684  0.1768  0.1028 -0.4054
  938TIP3    H127009   6.989   5.919  16.759  0.7799  1.2451 -1.2317
  938TIP3    H227010   6.935   5.788  16.705 -0.8457  1.1853  0.4445
  939TIP3   OH227011   1.969   5.489  18.358  0.2727 -0.2005 -0.0982
  939TIP3    H127012   2.008   5.510  18.273 -1.6010 -0.6582 -1.1330
  939TIP3    H227013   1.899   5.427  18.337 -0.0495 -0.5400  1.8269
  940TIP3   OH227014   2.159   2.396  19.206 -0.2166 -0.3214 -0.2196
  940TIP3    H127015   2.070   2.386  19.173  0.5769 -1.6183 -2.1547
  940TIP3    H227016   2.201   2.312  19.189  1.0042 -0.2305  1.9564
  941TIP3   OH227017   6.544   0.583  19.575  0.1130  0.0926 -0.9016
  941TIP3    H127018   6.623   0.622  19.612  0.2790 -0.1662 -0.9789
  941TIP3    H227019   6.556   0.590  19.480 -0.5951  1.3263 -0.9219
  942TIP3   OH227020   4.627   7.287  17.333 -0.2499  0.7608  0.1430
  942TIP3    H127021   4.610   7.331  17.250 -0.3320 -0.5095 -0.5350
  942TIP3    H227022   4.541   7.261  17.366 -0.2508  1.5461  0.8191
  943TIP3   OH227023   2.690   5.215  16.822  0.4063  0.0130  0.5108
  943TIP3    H127024   2.707   5.161  16.899 -1.5882 -1.3383  0.0827
  943TIP3    H227025   2.726   5.166  16.749  2.2535  1.2716  0.4993
  944TIP3   OH227026   2.249   2.320  17.297 -0.6874 -0.5590 -0.1788
  944TIP3    H127027   2.211   2.408  17.295 -0.2907 -0.3907 -0.4148
  944TIP3    H227028   2.183   2.264  17.257 -1.0828 -0.4215  0.2831
  945TIP3   OH227029   3.121   2.730  18.667  0.2776 -0.0252  0.1357
  945TIP3    H127030   3.099   2.639  18.648 -1.2794  0.3842 -0.2357
  945TIP3    H227031   3.173   2.759  18.592  1.2745 -0.7532  0.5263
  946TIP3   OH227032   3.927   2.411  17.391 -0.0802 -0.4272  0.4256
  946TIP3    H127033   3.923   2.317  17.371  1.1556 -0.5761  0.8325
  946TIP3    H227034   4.012   2.424  17.432 -0.3813  0.8215  0.7076
  947TIP3   OH227035   2.955   4.637  18.211  0.1834 -0.8047 -0.5604
  947TIP3    H127036   2.877   4.583  18.196  0.1551 -1.0542  0.3690
  947TIP3    H227037   2.924   4.709  18.266  0.6273 -0.9844 -0.0644
  948TIP3   OH227038   7.254   0.548  17.153 -0.2042  0.3651  0.0301
  948TIP3    H127039   7.253   0.639  17.125 -0.8624  1.0561  2.1253
  948TIP3    H227040   7.340   0.515  17.125  0.4883  1.9537  0.1990
  949TIP3   OH227041   1.787   5.754  18.229 -0.4966  0.1765  0.0211
  949TIP3    H127042   1.759   5.668  18.260 -1.4181  0.5456  0.2582
  949TIP3    H227043   1.836   5.791  18.303  2.2292 -1.1459 -0.9869
  950TIP3   OH227044   1.075   2.484  16.695 -0.1787  0.2564  0.3447
  950TIP3    H127045   1.149   2.519  16.645  1.1434 -3.1436 -0.3794
  950TIP3    H227046   0.999   2.533  16.663  1.2750  1.3819 -1.5979
  951TIP3   OH227047   4.704   0.114  17.607 -0.0521 -0.4380 -0.4159
  951TIP3    H127048   4.733   0.171  17.678  2.0419 -1.9975  0.0791
  951TIP3    H227049   4.609   0.108  17.619  0.2742 -1.1753  2.7190
  952TIP3   OH227050   4.358   1.481  19.052  0.2712 -0.1804 -0.1198
  952TIP3    H127051   4.346   1.499  18.958 -0.3593  0.4015  0.0694
  952TIP3    H227052   4.290   1.418  19.073 -0.2541  0.4705  0.1691
  953TIP3   OH227053   5.861   5.505  17.891 -0.7000  0.3299  0.4274
  953TIP3    H127054   5.803   5.519  17.817  0.0784  1.2611 -0.0220
  953TIP3    H227055   5.809   5.451  17.952 -1.7077  0.4151 -0.3279
  954TIP3   OH227056   2.420   2.399  19.415 -0.0552  0.2394  0.2857
  954TIP3    H127057   2.376   2.428  19.335 -0.8271 -0.4728  0.4397
  954TIP3    H227058   2.494   2.347  19.385 -1.4004 -1.6176 -0.0105
  955TIP3   OH227059   3.736   4.808  18.675 -0.4477  0.1244  0.5265
  955TIP3    H127060   3.809   4.774  18.623 -1.4848 -1.2200 -0.1095
  955TIP3    H227061   3.749   4.903  18.676  0.9505 -0.0395 -0.1055
  956TIP3   OH227062   6.472   4.535  16.977  0.0764 -0.0072 -0.1644
  956TIP3    H127063   6.435   4.563  16.894  0.8243 -0.9160 -0.8332
  956TIP3    H227064   6.406   4.558  17.043 -0.6469  0.4565 -1.0423
  957TIP3   OH227065   6.807   1.903  17.138  0.0833  0.8896  0.2244
  957TIP3    H127066   6.747   1.966  17.099 -1.2350 -0.0646  0.6450
  957TIP3    H227067   6.790   1.822  17.091  0.7398  0.4930  0.6588
  958TIP3   OH227068   3.236   6.665  18.229  0.0127 -0.2400  0.3825
  958TIP3    H127069   3.218   6.714  18.310 -0.1630 -0.6533  0.5998
  958TIP3    H227070   3.159   6.680  18.174 -0.0454 -0.2766  0.4525
  959TIP3   OH227071   1.688   2.149  19.190 -0.0145  0.2852 -0.1344
  959TIP3    H127072   1.611   2.204  19.205 -0.3903  0.4814 -2.3302
  959TIP3    H227073   1.660   2.061  19.216 -0.4652  0.6023  0.4806
  960TIP3   OH227074   2.311   1.379  18.223  0.5431  0.3303  0.7278
  960TIP3    H127075   2.368   1.427  18.283  1.0393  1.6751 -0.7711
  960TIP3    H227076   2.237   1.351  18.278  0.4488  2.4216  1.7594
  961TIP3   OH227077   6.267   3.113  16.763 -0.2279  0.4573 -0.0527
  961TIP3    H127078   6.291   3.034  16.715 -4.5314 -0.1583 -1.6536
  961TIP3    H227079   6.296   3.185  16.707 -0.2000 -0.1105 -0.7793
  962TIP3   OH227080   5.839   6.974  19.578  0.1661  0.0041  0.2982
  962TIP3    H127081   5.902   6.989  19.509  0.8123  1.2653  1.1321
  962TIP3    H227082   5.878   6.905  19.632 -0.7298 -1.6003 -1.0137
  963TIP3   OH227083   6.907   3.698  17.868 -0.5931  0.3560  0.1838
  963TIP3    H127084   6.935   3.706  17.777 -1.6470 -0.7361 -0.2578
  963TIP3    H227085   6.974   3.745  17.918 -0.6333  1.9825 -1.2288
  964TIP3   OH227086   3.734   2.802  19.064  0.5237 -0.2339  0.1942
  964TIP3    H127087   3.736   2.769  18.975 -1.2971 -1.5596  0.5943
  964TIP3    H227088   3.712   2.895  19.055  0.9317 -0.2225 -0.7424
  965TIP3   OH227089   1.129   2.307  18.563 -0.1434  0.8274  0.2418
  965TIP3    H127090   1.221   2.294  18.541 -0.2085  0.9023 -0.0815
  965TIP3    H227091   1.124   2.398  18.593  0.4238  0.0221  3.0797
  966TIP3   OH227092   4.343   2.779  18.789  0.3810  0.6078 -0.2728
  966TIP3    H127093   4.377   2.715  18.726  1.1965 -0.4866  1.2245
  966TIP3    H227094   4.389   2.759  18.870 -0.7099  1.9308  0.7068
  967TIP3   OH227095   3.558   3.114  17.996 -0.4668  0.6579 -0.6569
  967TIP3    H127096   3.526   3.182  18.054 -1.0501  1.0185 -1.3917
  967TIP3    H227097   3.480   3.078  17.954 -0.1260 -0.1292 -0.6447
  968TIP3   OH227098   4.524   4.788  18.862  0.6426 -0.2568 -0.2410
  968TIP3    H127099   4.525   4.882  18.883  2.1386 -0.0809 -0.9772
  968TIP3    H227100   4.585   4.779  18.789 -1.1705 -1.4795 -1.6954
  969TIP3   OH227101   3.563   0.461  17.239 -0.3257  0.2395  0.1331
  969TIP3    H127102   3.480   0.435  17.197 -1.5416  3.5280  0.2261
  969TIP3    H227103   3.542   0.467  17.332  0.1719  0.5436  0.2276
  970TIP3   OH227104   5.843   2.190  17.909 -0.0166  0.0657 -0.1467
  970TIP3    H127105   5.790   2.125  17.862 -0.7736 -0.7845  1.7610
  970TIP3    H227106   5.797   2.203  17.992  1.6915  0.8532  0.7387
  971TIP3   OH227107   5.929   3.396  17.925  0.7091  0.0677 -0.3926
  971TIP3    H127108   5.891   3.315  17.959 -1.1399  1.5330  1.2388
  971TIP3    H227109   5.874   3.419  17.850 -1.7432  2.1096  1.8792
  972TIP3   OH227110   2.475   2.078  16.733 -0.1772  0.3769  0.5515
  972TIP3    H127111   2.458   2.032  16.815 -1.6466 -1.0980 -0.5315
  972TIP3    H227112   2.403   2.140  16.724 -1.9029 -1.6910 -1.0983
  973TIP3   OH227113   0.364   3.047  18.078  0.0574 -0.2513 -0.2966
  973TIP3    H127114   0.312   3.020  18.002 -0.7187 -1.6840  0.6821
  973TIP3    H227115   0.318   3.008  18.153  1.2036  0.5076  0.8394
  974TIP3   OH227116   4.193   2.993  18.193 -0.3049 -0.4782 -0.4137
  974TIP3    H127117   4.192   3.007  18.287  0.5521 -0.0914 -0.4525
  974TIP3    H227118   4.252   2.919  18.181  0.5425  0.2268 -0.7238
  975TIP3   OH227119   1.149   3.001  19.086  0.0442 -0.1963  0.3053
  975TIP3    H127120   1.223   3.058  19.107 -1.7422  1.4588  2.5591
  975TIP3    H227121   1.099   2.995  19.167 -2.1744 -1.4491 -1.0579
  976TIP3   OH227122   0.675   3.891  18.736 -0.0995 -0.0895  0.1814
  976TIP3    H127123   0.742   3.949  18.771 -0.6561 -0.2089  1.5451
  976TIP3    H227124   0.715   3.849  18.660  1.4751 -0.3999  1.1462
  977TIP3   OH227125   5.697   6.228  19.451  0.5061  0.0943  0.4732
  977TIP3    H127126   5.792   6.212  19.448  0.3231 -0.9150 -0.8555
  977TIP3    H227127   5.688   6.321  19.433  1.2419  0.1889  0.5344
  978TIP3   OH227128   1.958   2.296  18.773  0.1233 -0.1548  0.6801
  978TIP3    H127129   2.021   2.368  18.782  2.2047 -1.7657 -0.2486
  978TIP3    H227130   1.876   2.332  18.808  1.7867  1.6718  3.0076
  979TIP3   OH227131   3.265   5.864  17.363  0.2905 -0.0516  0.3307
  979TIP3    H127132   3.347   5.867  17.314  0.3592 -1.0341  0.3640
  979TIP3    H227133   3.280   5.922  17.438  1.3292 -0.9826  0.8778
  980TIP3   OH227134   6.422   1.831  18.159  0.6601  0.2186 -0.2803
  980TIP3    H127135   6.427   1.925  18.141 -0.9768 -0.1521 -3.6945
  980TIP3    H227136   6.360   1.823  18.231  0.1317  1.7708 -0.5302
  981TIP3   OH227137   4.102   6.125  17.726 -0.0230 -0.3646 -0.4504
  981TIP3    H127138   4.182   6.090  17.687 -0.6180 -0.2837 -1.8135
  981TIP3    H227139   4.031   6.086  17.674 -1.1023 -2.7259  2.4694
  982TIP3   OH227140   6.378   6.025  18.980 -0.7696 -0.0175 -0.1006
  982TIP3    H127141   6.316   6.008  19.051 -1.1275 -0.0586 -0.4190
  982TIP3    H227142   6.455   5.973  19.002 -0.5996  0.5211  0.6241
  983TIP3   OH227143   0.003   6.950  19.182  0.7321 -0.9807  0.0499
  983TIP3    H127144  -0.005   6.855  19.192 -0.3558 -1.0351 -0.9836
  983TIP3    H227145  -0.037   6.986  19.261 -0.7318 -1.3940 -0.4711
  984TIP3   OH227146   6.677   6.450  18.972  0.7322 -0.0891  0.4262
  984TIP3    H127147   6.743   6.382  18.988  1.2569 -0.3190 -2.3074
  984TIP3    H227148   6.727   6.531  18.968  0.6587 -0.0753 -0.2586
  985TIP3   OH227149   4.558   3.374  18.054  0.0519  0.3621  0.5069
  985TIP3    H127150   4.613   3.387  18.131 -0.4702 -0.7688  1.0915
  985TIP3    H227151   4.594   3.434  17.989  1.2556  0.4716  1.2392
  986TIP3   OH227152   2.776   1.821  17.638  0.5940  0.4741 -0.0716
  986TIP3    H127153   2.827   1.899  17.614  0.3038  1.4269  2.2325
  986TIP3    H227154   2.835   1.770  17.694  0.1406 -0.0567 -0.0677
  987TIP3   OH227155   1.536   0.527  19.073 -0.2995 -0.0467 -0.5182
  987TIP3    H127156   1.497   0.585  19.138  0.5518  0.2333 -0.2382
  987TIP3    H227157   1.582   0.461  19.124 -2.4654 -1.9021 -0.8033
  988TIP3   OH227158   1.547   7.564  18.110 -0.6196  0.6213 -0.7629
  988TIP3    H127159   1.512   7.480  18.141 -1.1536  0.0497 -2.7840
  988TIP3    H227160   1.612   7.540  18.044 -0.0066  1.8081 -0.6194
  989TIP3   OH227161   3.598   4.953  19.430  0.1611  0.5063  0.1312
  989TIP3    H127162   3.554   4.882  19.382 -1.7481  1.8298 -0.1958
  989TIP3    H227163   3.681   4.965  19.384  0.7108 -1.7558  0.4487
  990TIP3   OH227164   0.681   0.550  18.702 -0.0609 -0.2933 -0.1763
  990TIP3    H127165   0.738   0.620  18.736 -0.0986  0.0010 -0.7226
  990TIP3    H227166   0.697   0.549  18.608 -2.2646  0.9813 -0.6234
  991TIP3   OH227167   4.731   3.876  18.825 -0.0390 -0.0867 -0.1425
  991TIP3    H127168   4.819   3.913  18.827 -0.4803  0.9584  1.6829
  991TIP3    H227169   4.745   3.782  18.813  1.3144  0.0574  0.1664
  992TIP3   OH227170   4.269   5.705  18.596  0.4054  0.0896 -0.0882
  992TIP3    H127171   4.364   5.709  18.597  0.5565 -1.9596 -1.4926
  992TIP3    H227172   4.241   5.792  18.567  1.7679  0.9972  1.1830
  993TIP3   OH227173   2.243   3.513  18.026 -0.4200  0.5175  0.1336
  993TIP3    H127174   2.208   3.468  18.103 -2.4276  1.7104 -0.0041
  993TIP3    H227175   2.184   3.588  18.013  1.7805  2.2279 -0.6343
  994TIP3   OH227176   3.397   5.814  17.098 -0.3934  0.0005 -0.4712
  994TIP3    H127177   3.311   5.851  17.081 -0.5195  0.2312  0.6052
  994TIP3    H227178   3.457   5.866  17.044 -0.8358  0.2998 -0.6783
  995TIP3   OH227179   2.985   3.096  19.044  0.0956  0.2692 -0.3325
  995TIP3    H127180   2.984   3.143  18.960 -0.0534  0.1459 -0.4018
  995TIP3    H227181   2.925   3.146  19.100  2.7352  2.3692  0.8398
  996TIP3   OH227182   4.554   6.915  18.256 -0.5176  0.5871 -0.0754
  996TIP3    H127183   4.506   6.844  18.213  0.3921  0.8467 -1.6276
  996TIP3    H227184   4.608   6.871  18.322 -0.8138 -0.0216 -0.2286
  997TIP3   OH227185   6.226   4.963  18.985  0.2044  0.7198 -0.2230
  997TIP3    H127186   6.298   5.021  18.960  0.6938  0.3952  0.3663
  997TIP3    H227187   6.267   4.876  18.990 -0.9703 -0.1210 -3.2479
  998TIP3   OH227188   3.551   0.601  18.179 -0.4223 -0.2526 -0.3360
  998TIP3    H127189   3.474   0.584  18.125  0.2722  0.5888 -1.6427
  998TIP3    H227190   3.625   0.578  18.122  0.3251 -2.2594  1.2957
  999TIP3   OH227191   7.608   1.462  19.211 -0.1091 -0.0623  0.0592
  999TIP3    H127192   7.591   1.409  19.133 -0.0611  0.1347 -0.0863
  999TIP3    H227193   7.538   1.438  19.272 -0.9300  0.7428 -0.5367
 1000TIP3   OH227194   4.186   2.508  17.451 -0.2059 -0.1961  0.1311
 1000TIP3    H127195   4.281   2.500  17.448 -0.0950  0.6139  0.9613
 1000TIP3    H227196   4.169   2.602  17.453 -1.0024 -0.3309  0.4133
 1001TIP3   OH227197   0.280   2.287  18.200 -0.1578 -0.0652  0.0332
 1001TIP3    H127198   0.204   2.233  18.223  0.8871 -1.9271 -0.7215
 1001TIP3    H227199   0.349   2.258  18.260  0.2848  0.8539 -0.0121
 1002TIP3   OH227200   7.203   0.486  18.432  0.2889 -0.0986 -0.0860
 1002TIP3    H127201   7.178   0.463  18.522  0.2548  0.6462  0.1018
 1002TIP3    H227202   7.212   0.582  18.433 -0.9471  0.0575 -1.1776
 1003TIP3   OH227203   5.471   1.915  17.765  0.2795 -0.1034 -0.4066
 1003TIP3    H127204   5.481   1.880  17.677 -1.9320  0.3773 -0.9148
 1003TIP3    H227205   5.450   1.839  17.819  0.8519 -0.2870 -0.4360
 1004TIP3   OH227206   5.577   5.509  19.186 -0.4764  0.3494 -0.3112
 1004TIP3    H127207   5.583   5.415  19.168 -0.3197  0.2472  0.2723
 1004TIP3    H227208   5.648   5.547  19.133  1.0259 -0.1267  1.2708
 1005TIP3   OH227209   2.278   2.100  18.605  0.1946  0.1469  0.4297
 1005TIP3    H127210   2.226   2.091  18.685 -1.4412 -0.0711 -0.6126
 1005TIP3    H227211   2.285   2.011  18.570 -1.5710  0.5530 -1.1218
 1006TIP3   OH227212   2.882   4.151  17.360 -0.7159 -0.2397 -0.5378
 1006TIP3    H127213   2.821   4.190  17.297 -1.0493  0.2750  0.0883
 1006TIP3    H227214   2.957   4.210  17.360 -1.1704  0.3785  0.3219
 1007TIP3   OH227215   5.740   4.501  18.826 -0.4294 -0.4759 -0.0047
 1007TIP3    H127216   5.671   4.485  18.891 -1.3053  0.9188 -0.5393
 1007TIP3    H227217   5.775   4.415  18.805 -0.9640 -1.0643  1.4107
 1008TIP3   OH227218   3.980   6.391  18.910 -0.5092  0.2564 -0.0337
 1008TIP3    H127219   4.058   6.375  18.963 -0.3196  1.1374 -0.0266
 1008TIP3    H227220   3.916   6.426  18.972 -1.1154 -0.9806  0.0727
 1009TIP3   OH227221   7.542   0.982  18.491 -0.2418 -0.0619 -0.0453
 1009TIP3    H127222   7.614   1.030  18.450 -0.7698  0.4539 -0.3904
 1009TIP3    H227223   7.471   0.988  18.428 -0.1053 -1.9428 -0.4127
 1010TIP3   OH227224   1.809   3.513  18.192  0.5757  0.3494  0.0482
 1010TIP3    H127225   1.759   3.444  18.148  0.2133  0.7636 -0.1924
 1010TIP3    H227226   1.743   3.576  18.220  1.0475  1.5059 -1.3424
 1011TIP3   OH227227   3.332   5.987  17.594  0.9940  0.1282 -0.2110
 1011TIP3    H127228   3.396   5.955  17.657  0.4086 -0.4674  0.0829
 1011TIP3    H227229   3.257   6.015  17.647  0.4300 -0.5370 -0.6419
 1012TIP3   OH227230   4.416   3.235  16.601  0.2563 -0.1000 -0.0327
 1012TIP3    H127231   4.446   3.325  16.611  1.5843 -0.6679  1.5597
 1012TIP3    H227232   4.338   3.242  16.546 -1.4991  2.3464  2.4484
 1013TIP3   OH227233   0.028   3.171  17.557 -0.3482 -0.1671  0.5370
 1013TIP3    H127234  -0.060   3.135  17.563  0.0555 -1.1392  0.8912
 1013TIP3    H227235   0.041   3.188  17.464 -0.2068 -1.9232  0.1956
 1014TIP3   OH227236   6.587   1.703  17.998  0.1219 -0.1458  0.0990
 1014TIP3    H127237   6.660   1.697  18.059 -0.9210  0.0735  1.4210
 1014TIP3    H227238   6.512   1.728  18.053 -1.2204 -1.6250 -0.9700
 1015TIP3   OH227239   0.359   3.340  18.110 -0.6796 -0.1248  0.2688
 1015TIP3    H127240   0.365   3.246  18.096 -0.4403 -0.1903  0.7929
 1015TIP3    H227241   0.448   3.373  18.094 -1.2149  0.3532 -2.2096
 1016TIP3   OH227242   5.058   5.156  18.321 -0.1558  0.1676 -0.9553
 1016TIP3    H127243   4.990   5.169  18.388 -1.8891  0.8436 -2.7523
 1016TIP3    H227244   5.086   5.065  18.333 -0.7114  0.1423  0.4073
 1017TIP3   OH227245   2.373   5.844  16.947 -0.1868 -0.0167 -0.1122
 1017TIP3    H127246   2.437   5.905  16.910 -0.1370 -0.3288 -0.5361
 1017TIP3    H227247   2.289   5.887  16.933 -0.2063 -0.3335 -0.9748
 1018TIP3   OH227248   5.366   2.249  17.596  0.1799 -0.0885  0.6176
 1018TIP3    H127249   5.444   2.219  17.644  0.6166  1.7231  1.1491
 1018TIP3    H227250   5.368   2.345  17.606 -0.5656  0.2427 -1.7654
 1019TIP3   OH227251   7.277   4.837  18.113  0.1268  0.1790  0.0762
 1019TIP3    H127252   7.182   4.843  18.107  0.2033  0.3869 -1.3608
 1019TIP3    H227253   7.300   4.893  18.186 -0.9333 -0.8706  1.2738
 1020TIP3   OH227254   4.832   5.249  17.231  0.1126  0.6518 -0.2563
 1020TIP3    H127255   4.784   5.230  17.151 -0.9029  1.2369  0.2011
 1020TIP3    H227256   4.914   5.201  17.221 -1.1292 -1.5601 -0.4195
 1021TIP3   OH227257   1.297   5.835  18.121  0.5902 -0.2246 -0.3846
 1021TIP3    H127258   1.311   5.789  18.039  0.7700  0.8174 -0.9590
 1021TIP3    H227259   1.280   5.766  18.185 -0.6582 -1.0027 -1.5097
 1022TIP3   OH227260   3.067   6.831  18.933 -0.0423  0.7179  0.1783
 1022TIP3    H127261   3.111   6.794  18.857  0.8920 -0.3509  1.1974
 1022TIP3    H227262   2.976   6.800  18.926  0.3278 -0.4021  0.1288
 1023TIP3   OH227263   5.366   0.370  17.435 -0.0510 -0.0092 -0.7519
 1023TIP3    H127264   5.348   0.335  17.522  1.5896  0.1384 -0.3245
 1023TIP3    H227265   5.460   0.384  17.433 -0.2217  1.2491 -2.0985
 1024TIP3   OH227266   0.547   4.426  17.035  0.0323  0.1159 -0.2088
 1024TIP3    H127267   0.563   4.508  17.081  0.0651  0.2640 -0.4852
 1024TIP3    H227268   0.477   4.384  17.086 -1.0846  1.0240 -0.9408
 1025TIP3   OH227269   3.484   4.182  18.176  0.1316  0.1202 -0.1437
 1025TIP3    H127270   3.391   4.179  18.199 -0.0506 -1.5713 -0.9433
 1025TIP3    H227271   3.513   4.268  18.206 -1.9618  1.1764 -0.9164
 1026TIP3   OH227272   4.983   2.014  17.876 -0.1097  0.3797 -0.3936
 1026TIP3    H127273   5.015   1.946  17.817 -0.3638 -0.4081  0.3436
 1026TIP3    H227274   5.045   2.086  17.865  0.9679 -0.4843 -0.2164
 1027TIP3   OH227275   5.822   0.015  16.372 -0.0686 -0.2863 -0.6202
 1027TIP3    H127276   5.901   0.013  16.425 -0.2877  1.2146 -0.1574
 1027TIP3    H227277   5.841   0.078  16.302 -0.4332 -0.8421 -1.2361
 1028TIP3   OH227278   3.290   6.322  18.547  0.2220  0.2269  0.1892
 1028TIP3    H127279   3.196   6.326  18.529 -0.0005 -1.0716  0.9468
 1028TIP3    H227280   3.329   6.385  18.487 -0.8814 -1.0054 -1.9433
 1029TIP3   OH227281   7.658   0.111  19.025  0.6301  0.4780  0.6551
 1029TIP3    H127282   7.664   0.188  18.969  2.1000  0.7301  1.1187
 1029TIP3    H227283   7.668   0.036  18.966 -2.7983  0.4503 -0.1240
 1030TIP3   OH227284   3.011   6.807  19.372 -0.5645 -0.1534  0.3169
 1030TIP3    H127285   3.103   6.812  19.396 -0.1431 -0.1307 -1.2029
 1030TIP3    H227286   2.971   6.754  19.441  0.7688 -0.9599  0.5040
 1031TIP3   OH227287   2.314   1.702  16.613  0.2586  0.0908  0.6658
 1031TIP3    H127288   2.365   1.732  16.688  1.4663 -0.3039  0.0294
 1031TIP3    H227289   2.304   1.781  16.558  0.5760  0.0735  0.5801
 1032TIP3   OH227290   6.069   1.362  18.517 -0.0457  0.1743  0.3718
 1032TIP3    H127291   6.090   1.272  18.543  0.8997  0.1029 -0.5858
 1032TIP3    H227292   6.155   1.404  18.508 -0.2871  0.1603 -2.7087
 1033TIP3   OH227293   6.980   5.788  18.333  0.5177  0.5600  0.0053
 1033TIP3    H127294   7.049   5.826  18.387  0.4351  0.5796  0.0964
 1033TIP3    H227295   7.026   5.754  18.256  0.8174 -0.5696  0.6488
 1034TIP3   OH227296   6.059   4.120  17.030 -0.1393  0.2955 -0.1100
 1034TIP3    H127297   6.122   4.128  17.102 -0.4621 -0.0032  0.2086
 1034TIP3    H227298   6.002   4.197  17.041 -0.5196 -0.0374  0.2833
 1035TIP3   OH227299   7.009   2.091  17.784 -0.6488  0.3748  0.9182
 1035TIP3    H127300   6.940   2.155  17.800 -1.5044 -0.0776 -0.6966
 1035TIP3    H227301   7.078   2.114  17.846 -1.7808  1.5439  1.8053
 1036TIP3   OH227302   6.366   1.250  19.309 -0.2467  0.5384 -0.1144
 1036TIP3    H127303   6.288   1.262  19.363 -0.1032  2.2360 -0.2373
 1036TIP3    H227304   6.403   1.338  19.300  1.0998 -0.0779 -0.9388
 1037TIP3   OH227305   0.995   5.287  19.315 -0.4642 -0.3703 -0.1798
 1037TIP3    H127306   0.947   5.351  19.367  1.2610 -0.5868  1.8292
 1037TIP3    H227307   1.029   5.337  19.241 -0.4497  0.7009  0.5261
 1038TIP3   OH227308   0.387   5.597  16.606  0.3020  0.7974  0.8231
 1038TIP3    H127309   0.456   5.541  16.570 -0.4013  0.5568 -0.1991
 1038TIP3    H227310   0.384   5.575  16.699  0.2452 -0.6631  0.5023
 1039TIP3   OH227311   4.737   2.204  19.014 -0.2056 -0.0718 -0.0101
 1039TIP3    H127312   4.746   2.276  18.951  0.8293  0.8145  1.1091
 1039TIP3    H227313   4.765   2.242  19.097  0.1287 -1.7250  0.6497
 1040TIP3   OH227314   0.318   2.080  18.762  0.2718  0.2863  0.7345
 1040TIP3    H127315   0.350   2.007  18.814 -0.1807  0.5947  1.4609
 1040TIP3    H227316   0.397   2.126  18.733  0.6020 -0.8863 -0.3554
 1041TIP3   OH227317   3.900   6.551  17.956 -0.0644 -0.3774 -0.2258
 1041TIP3    H127318   3.907   6.460  17.926 -0.6691 -0.0466 -1.4357
 1041TIP3    H227319   3.809   6.559  17.984 -0.1246 -0.0278 -0.5238
 1042TIP3   OH227320   2.938   5.991  18.945  0.5664  0.0973 -0.0909
 1042TIP3    H127321   2.883   5.961  18.873 -0.2951  0.6500  0.3254
 1042TIP3    H227322   2.909   5.941  19.021  2.1502 -1.2195 -0.3018
 1043TIP3   OH227323   1.234   2.818  17.570  0.3896 -0.5093 -0.0146
 1043TIP3    H127324   1.235   2.727  17.601 -0.5543 -0.6292 -0.2856
 1043TIP3    H227325   1.259   2.870  17.646  1.1338 -1.0086  0.0882
 1044TIP3   OH227326   7.385   0.769  19.172  0.0146  0.0259  0.4402
 1044TIP3    H127327   7.417   0.742  19.085 -1.5559 -2.0500  0.4308
 1044TIP3    H227328   7.310   0.825  19.153 -0.7767 -1.0052  0.3930
 1045TIP3   OH227329   7.266   0.890  17.582 -0.1006  0.7363  0.1083
 1045TIP3    H127330   7.349   0.913  17.624 -0.7016  0.1513  1.6791
 1045TIP3    H227331   7.286   0.891  17.488  1.9268 -0.2175  0.4666
 1046TIP3   OH227332   6.028   0.139  19.317  0.0906 -0.1536  0.5086
 1046TIP3    H127333   6.006   0.157  19.408  3.0272  2.5174  0.8642
 1046TIP3    H227334   6.090   0.066  19.320 -1.0264 -1.1322  0.4387
 1047TIP3   OH227335   5.229   4.921  18.638 -0.0674  0.5027  0.2052
 1047TIP3    H127336   5.213   4.926  18.544  1.3071  0.7972 -0.0418
 1047TIP3    H227337   5.324   4.908  18.645 -0.0986  0.8755  1.5554
 1048TIP3   OH227338   1.256   1.413  18.339  0.2619 -0.1144  0.2190
 1048TIP3    H127339   1.334   1.369  18.374  0.6731 -3.0725 -3.7139
 1048TIP3    H227340   1.191   1.343  18.331 -1.3894  1.4275 -0.3173
 1049TIP3   OH227341   5.110   6.838  18.609  0.1432 -0.3865  0.0138
 1049TIP3    H127342   5.203   6.821  18.598  0.1344 -1.4775  1.3025
 1049TIP3    H227343   5.090   6.807  18.698 -1.5450 -0.6535 -0.4129
 1050TIP3   OH227344   6.779   0.480  18.728 -0.1395 -0.0154  0.7154
 1050TIP3    H127345   6.758   0.394  18.767 -1.2449  1.9459  5.1025
 1050TIP3    H227346   6.694   0.519  18.710  0.2875  0.9754  0.8191
 1051TIP3   OH227347   6.132   5.637  16.631 -0.0866 -0.9063 -0.0021
 1051TIP3    H127348   6.164   5.547  16.626  0.3839 -0.8838  2.0070
 1051TIP3    H227349   6.211   5.690  16.644 -0.2418 -0.0327 -2.1091
 1052TIP3   OH227350   2.610   2.591  17.788 -0.4665 -0.4141  0.3231
 1052TIP3    H127351   2.698   2.603  17.822 -0.9369 -0.9548  1.8093
 1052TIP3    H227352   2.580   2.509  17.827 -1.8714  0.1059  0.3869
 1053TIP3   OH227353   5.781   7.665  18.469  0.3567 -0.3135  0.1415
 1053TIP3    H127354   5.846   7.605  18.505  0.7787  1.0212  1.7281
 1053TIP3    H227355   5.814   7.752  18.492 -1.0312  0.4710 -0.7126
 1054TIP3   OH227356   3.998   7.131  18.992  0.1379 -0.4643 -0.2900
 1054TIP3    H127357   4.013   7.204  18.931 -0.2386  0.6108  0.8503
 1054TIP3    H227358   3.903   7.124  18.998  0.1269  0.4786  1.2934
 1055TIP3   OH227359   6.987   1.053  18.738 -0.6729  0.3026 -0.9870
 1055TIP3    H127360   7.015   0.967  18.706 -0.8122 -0.1496  0.0502
 1055TIP3    H227361   6.893   1.043  18.753 -0.9244  1.0211 -2.0028
 1056TIP3   OH227362   6.963   7.562  19.252  0.3259  0.0433 -0.2427
 1056TIP3    H127363   6.898   7.608  19.198 -1.1551  0.5233  1.8361
 1056TIP3    H227364   7.044   7.613  19.241 -0.0123  0.3004 -1.7274
 1057TIP3   OH227365   0.450   6.218  19.174  0.1626  0.7445  0.1059
 1057TIP3    H127366   0.504   6.277  19.227 -0.2753  1.2829 -0.0385
 1057TIP3    H227367   0.371   6.205  19.225  1.0343 -1.3035  1.0472
 1058TIP3   OH227368   3.830   4.125  18.063  0.2455 -0.4650 -0.6494
 1058TIP3    H127369   3.751   4.070  18.065  1.4048 -2.1919 -0.4385
 1058TIP3    H227370   3.868   4.108  17.977  0.5822  0.0657 -0.6059
 1059TIP3   OH227371   4.302   5.357  18.451  0.8269 -0.0830 -0.1450
 1059TIP3    H127372   4.260   5.313  18.525 -2.4698 -0.4774 -2.0557
 1059TIP3    H227373   4.373   5.298  18.426 -1.3702 -2.7929 -0.5292
 1060TIP3   OH227374   4.009   0.808  17.767  0.1997  0.0957  0.1862
 1060TIP3    H127375   3.963   0.828  17.685 -1.4859 -0.3339  1.0016
 1060TIP3    H227376   4.100   0.831  17.749  0.2204 -1.5596 -2.3882
 1061TIP3   OH227377   3.235   7.520  17.567 -0.0644  0.0260 -0.1736
 1061TIP3    H127378   3.312   7.571  17.593  0.4996 -0.5043 -0.7772
 1061TIP3    H227379   3.165   7.585  17.558 -0.3035  0.2636  2.5808
 1062TIP3   OH227380   5.158   4.385  18.102 -0.0194 -0.1567  0.3541
 1062TIP3    H127381   5.094   4.335  18.153  0.1611  0.2563  1.0104
 1062TIP3    H227382   5.197   4.322  18.043 -1.6856 -0.2393 -0.7256
 1063TIP3   OH227383   1.387   6.861  18.810  0.1822  0.0076  0.1791
 1063TIP3    H127384   1.338   6.844  18.891 -0.2001 -3.2689 -0.6232
 1063TIP3    H227385   1.454   6.794  18.809  3.0058  2.6377 -0.2053
 1064TIP3   OH227386   3.726   1.104  18.442 -0.4399 -0.2312  0.0690
 1064TIP3    H127387   3.746   1.059  18.361 -0.0954  2.0299 -1.1910
 1064TIP3    H227388   3.811   1.126  18.479 -0.5799 -1.6878  1.3759
 1065TIP3   OH227389   4.248   1.377  17.611 -0.2899  0.3129 -0.8446
 1065TIP3    H127390   4.219   1.458  17.569  0.7641  1.1940  0.0786
 1065TIP3    H227391   4.167   1.326  17.621 -0.5997  0.0813 -3.7827
 1066TIP3   OH227392   0.272   3.940  19.035 -0.0921 -0.2509 -0.1549
 1066TIP3    H127393   0.274   3.865  19.094  3.7061 -0.3204 -0.0958
 1066TIP3    H227394   0.312   3.908  18.954 -0.7878  1.0677 -1.0600
 1067TIP3   OH227395   0.916   0.632  19.597 -0.2447 -0.4358 -0.7884
 1067TIP3    H127396   0.883   0.561  19.542 -1.2451 -0.8569  0.3200
 1067TIP3    H227397   0.905   0.710  19.543 -0.9037 -0.8740 -1.3111
 1068TIP3   OH227398   2.852   2.024  18.670 -0.0058 -0.4728 -0.8874
 1068TIP3    H127399   2.898   1.984  18.596 -1.5806 -0.1888 -2.0785
 1068TIP3    H227400   2.906   2.003  18.746  2.3415  0.2844 -2.2531
 1069TIP3   OH227401   5.400   7.194  17.375  0.0917  0.3001 -0.2171
 1069TIP3    H127402   5.342   7.234  17.439 -1.7433  0.7937 -2.0754
 1069TIP3    H227403   5.358   7.111  17.353 -0.5577  1.1116 -2.3344
 1070TIP3   OH227404   5.860   3.273  17.165 -0.2007 -0.1478  0.2441
 1070TIP3    H127405   5.904   3.341  17.115  0.7665 -0.3930  0.7433
 1070TIP3    H227406   5.789   3.318  17.211  0.3582  0.5000  0.4772
 1071TIP3   OH227407   4.550   5.068  17.985  0.8493  0.3882 -0.7084
 1071TIP3    H127408   4.544   5.032  18.074  0.4114  3.0196  0.4401
 1071TIP3    H227409   4.533   4.994  17.927  0.7748 -1.3390  1.4096
 1072TIP3   OH227410   6.462   4.633  17.927 -0.6731 -0.2080  0.3748
 1072TIP3    H127411   6.514   4.691  17.982 -0.5584 -0.3178  0.3845
 1072TIP3    H227412   6.517   4.556  17.914 -1.3230 -0.8730  1.4205
 1073TIP3   OH227413   7.410   0.276  18.107  0.7376  0.2877 -0.0219
 1073TIP3    H127414   7.358   0.286  18.027  0.1671  1.7453  0.4995
 1073TIP3    H227415   7.469   0.351  18.107  1.5594 -0.3436  0.3393
 1074TIP3   OH227416   2.878   3.683  18.058 -0.3878 -0.1555  0.3065
 1074TIP3    H127417   2.887   3.596  18.019  0.7321  0.0571  0.0542
 1074TIP3    H227418   2.891   3.743  17.985  0.1834  0.2352  0.7242
 1075TIP3   OH227419   4.141   1.915  18.619  0.2915 -0.0845  0.0532
 1075TIP3    H127420   4.125   1.983  18.684 -0.3485  0.7278 -0.9296
 1075TIP3    H227421   4.230   1.885  18.637  1.1381  1.9932 -0.3498
 1076TIP3   OH227422   1.124   1.831  19.103  0.1739 -0.3385 -0.3380
 1076TIP3    H127423   1.078   1.761  19.056 -1.4003  0.2153  0.3033
 1076TIP3    H227424   1.149   1.792  19.186 -0.8232 -0.1278  0.0745
 1077TIP3   OH227425   1.931   0.070  17.968  0.7951  0.3657  0.4938
 1077TIP3    H127426   1.905   0.003  18.031  0.0648 -1.7845 -1.9183
 1077TIP3    H227427   1.848   0.111  17.941  0.8565 -0.2004 -0.5869
 1078TIP3   OH227428   7.655   5.252  18.569  0.0632  0.0839 -0.1094
 1078TIP3    H127429   7.586   5.313  18.596  0.4666  0.2673  0.5424
 1078TIP3    H227430   7.727   5.270  18.629  1.2711  0.9768 -1.7222
 1079TIP3   OH227431   4.648   3.158  18.606  0.0919 -0.0184 -0.3663
 1079TIP3    H127432   4.667   3.065  18.600  1.3223  0.2524 -1.0773
 1079TIP3    H227433   4.714   3.199  18.549  1.7841  1.5437  2.4814
 1080TIP3   OH227434   3.945   1.501  18.205  0.5576 -0.2211  0.3071
 1080TIP3    H127435   3.937   1.412  18.170 -0.4527 -0.6169  1.4988
 1080TIP3    H227436   3.882   1.505  18.276  0.7539  1.3928  0.4257
 1081TIP3   OH227437   4.168   6.899  17.687 -0.1068  0.3256 -0.3438
 1081TIP3    H127438   4.137   6.884  17.598 -0.5788  3.1134 -0.7273
 1081TIP3    H227439   4.207   6.987  17.685  0.0691  0.3767  2.1507
 1082TIP3   OH227440   0.755   5.580  17.071 -0.1281  0.1728 -0.4557
 1082TIP3    H127441   0.730   5.496  17.033 -0.8234 -0.1377  0.6318
 1082TIP3    H227442   0.699   5.644  17.029 -0.2945 -0.0478 -0.5711
 1083TIP3   OH227443   3.238   1.598  19.530 -0.2713 -0.3118 -0.0143
 1083TIP3    H127444   3.320   1.649  19.525 -0.2495 -0.4346 -1.1527
 1083TIP3    H227445   3.267   1.508  19.538 -0.2369 -0.5687 -2.4861
 1084TIP3   OH227446   7.463   6.520  17.917  0.3787 -0.6610  0.0933
 1084TIP3    H127447   7.376   6.559  17.932 -0.1604  0.0499 -3.7720
 1084TIP3    H227448   7.517   6.558  17.986 -1.9575  0.3558  1.5287
 1085TIP3   OH227449   1.520   5.295  18.602 -0.2639 -0.5809  0.4196
 1085TIP3    H127450   1.463   5.234  18.556  0.8659 -0.5068 -1.1699
 1085TIP3    H227451   1.493   5.381  18.572 -0.0118 -0.4775  0.4875
 1086TIP3   OH227452   6.031   1.501  18.853 -0.4970 -0.8020  0.0149
 1086TIP3    H127453   6.033   1.577  18.911  1.7262 -1.8501  1.4171
 1086TIP3    H227454   5.954   1.516  18.798  1.5740  4.1975 -2.1586
 1087TIP3   OH227455   5.315   6.273  18.482  0.0563 -0.3465  0.1915
 1087TIP3    H127456   5.361   6.268  18.398  1.1885  1.6686  0.6549
 1087TIP3    H227457   5.238   6.328  18.464  0.6520  0.6405  0.5990
 1088TIP3   OH227458   2.713   1.627  19.207  0.0808  0.4058  0.0895
 1088TIP3    H127459   2.664   1.681  19.269  2.9059  2.0601  1.0425
 1088TIP3    H227460   2.716   1.540  19.247  1.7942  1.4236  2.3749
 1089TIP3   OH227461   3.826   6.601  19.192 -0.2694  0.3820 -0.0490
 1089TIP3    H127462   3.778   6.568  19.117 -2.4671 -0.0593  1.4542
 1089TIP3    H227463   3.834   6.695  19.177 -3.0646  0.7666  0.3228
 1090TIP3   OH227464   6.434   5.013  18.642 -0.1532 -0.2001  0.7688
 1090TIP3    H127465   6.480   4.972  18.716  0.4537 -1.5875 -0.3226
 1090TIP3    H227466   6.497   5.075  18.606  0.5421 -1.3427 -0.0794
 1091TIP3   OH227467   0.232   5.237  17.393 -0.9813 -0.1106  0.3805
 1091TIP3    H127468   0.254   5.300  17.325 -0.8900  0.8243  1.2682
 1091TIP3    H227469   0.140   5.253  17.413 -0.9859 -0.3218  0.5436
 1092TIP3   OH227470   4.144   1.764  17.889  0.2717  0.1946 -0.2478
 1092TIP3    H127471   4.070   1.802  17.937  1.5620  0.8485  1.3317
 1092TIP3    H227472   4.112   1.755  17.799 -1.5687  0.8550  0.2820
 1093TIP3   OH227473   2.588   2.534  16.348 -0.3114 -0.5690 -0.0708
 1093TIP3    H127474   2.585   2.611  16.292 -0.7320 -1.2423 -0.9909
 1093TIP3    H227475   2.502   2.532  16.390  0.2789  0.3831  1.2411
 1094TIP3   OH227476   7.112   7.015  18.427 -0.2234 -0.5428 -0.2767
 1094TIP3    H127477   7.045   7.043  18.365  1.0866  0.1014 -1.4681
 1094TIP3    H227478   7.115   6.920  18.419 -0.4336 -0.5041 -0.8043
 1095TIP3   OH227479   7.216   0.394  19.129 -0.2761  0.0056 -0.2385
 1095TIP3    H127480   7.293   0.451  19.132  0.7378 -1.3701  0.4824
 1095TIP3    H227481   7.151   0.446  19.081  0.1030  2.3673  1.5784
 1096TIP3   OH227482   4.524   2.548  18.217 -0.2520  0.0845  0.4290
 1096TIP3    H127483   4.515   2.507  18.131 -0.6772  3.9124 -1.5629
 1096TIP3    H227484   4.617   2.565  18.226 -0.1945 -0.3995  0.8297
 1097TIP3   OH227485   3.410   6.915  19.280 -0.3241 -0.1575 -0.2746
 1097TIP3    H127486   3.418   6.952  19.192 -0.2017  0.5733  0.0347
 1097TIP3    H227487   3.373   6.828  19.266 -3.2515  1.0815 -0.8541
 1098TIP3   OH227488   2.450   1.467  19.284 -0.0581  0.0975 -0.1078
 1098TIP3    H127489   2.520   1.472  19.349 -0.6735 -1.5602  0.7503
 1098TIP3    H227490   2.459   1.547  19.232  1.3214  0.7868  1.1273
 1099TIP3   OH227491   3.440   0.420  16.919  0.0750  0.2928  0.0380
 1099TIP3    H127492   3.351   0.449  16.940 -0.5897 -2.0315  0.6914
 1099TIP3    H227493   3.439   0.326  16.932  2.1418 -0.0823 -1.8662
 1100TIP3   OH227494   7.333   3.486  18.889  0.1235  0.3217 -0.3181
 1100TIP3    H127495   7.333   3.392  18.874  0.4553  0.2406  0.1351
 1100TIP3    H227496   7.319   3.495  18.983 -2.0323  0.8034 -0.6372
 1101TIP3   OH227497   2.941   4.182  17.748 -0.2588  0.2366 -0.0804
 1101TIP3    H127498   2.956   4.113  17.813 -0.5947 -0.2232 -0.4834
 1101TIP3    H227499   2.845   4.185  17.738 -0.2510  0.8027 -0.0231
 1102TIP3   OH227500   2.869   0.661  17.112 -0.0960 -0.2805 -1.0091
 1102TIP3    H127501   2.813   0.589  17.143  0.2302 -0.2137 -0.2286
 1102TIP3    H227502   2.898   0.634  17.025  0.6417 -1.4559 -0.4223
 1103TIP3   OH227503   4.770   7.625  18.194  0.5096 -0.2634  0.4925
 1103TIP3    H127504   4.824   7.633  18.273  1.8832  2.0919 -0.5678
 1103TIP3    H227505   4.832   7.638  18.122 -1.1645  0.6208 -0.8477
 1104TIP3   OH227506   6.535   4.575  19.157  0.2741  0.3574 -0.2599
 1104TIP3    H127507   6.446   4.541  19.160 -0.2087  1.2928 -2.5371
 1104TIP3    H227508   6.567   4.565  19.247 -0.9947 -2.8800 -0.0220
 1105TIP3   OH227509   6.179   5.372  16.599 -0.1904  0.2022 -0.2765
 1105TIP3    H127510   6.125   5.327  16.664 -0.3485  0.7160 -0.0439
 1105TIP3    H227511   6.234   5.304  16.562 -0.1031 -0.0996  0.4007
 1106TIP3   OH227512   0.360   0.286  17.254  0.1565  0.6172 -0.9694
 1106TIP3    H127513   0.398   0.237  17.180  1.0711  0.3612 -0.3525
 1106TIP3    H227514   0.270   0.302  17.228  0.2774 -0.0361 -1.8698
 1107TIP3   OH227515   0.304   5.398  17.830 -0.1495 -0.2382 -0.4729
 1107TIP3    H127516   0.216   5.399  17.868 -0.0434 -0.4053 -0.2152
 1107TIP3    H227517   0.321   5.489  17.806  0.3659  0.1573  1.2689
 1108TIP3   OH227518   0.663   1.739  17.259  0.5578 -0.5543 -0.3964
 1108TIP3    H127519   0.674   1.793  17.337 -0.6058  1.0291 -1.2700
 1108TIP3    H227520   0.616   1.661  17.290 -1.9208  1.0598  0.1818
 1109TIP3   OH227521   3.180   6.379  16.696  0.4007  0.2507  0.5738
 1109TIP3    H127522   3.271   6.382  16.666  0.6293  0.2398  1.2425
 1109TIP3    H227523   3.159   6.469  16.718  0.1149  0.3166  0.0414
 1110TIP3   OH227524   4.488   6.221  17.348 -0.3316 -0.3941 -0.0722
 1110TIP3    H127525   4.548   6.284  17.388 -0.4286 -0.5840  0.3692
 1110TIP3    H227526   4.472   6.257  17.261 -0.9178  0.5492  0.4123
 1111TIP3   OH227527   2.424   6.824  17.812  0.2729  0.1034  0.0928
 1111TIP3    H127528   2.379   6.775  17.743 -1.3101 -0.0345  1.1812
 1111TIP3    H227529   2.393   6.786  17.894  0.4996  1.6296  0.9312
 1112TIP3   OH227530   1.824   7.180  20.087 -0.0224 -0.1127 -0.3972
 1112TIP3    H127531   1.794   7.249  20.147 -0.1958 -1.9784  1.8058
 1112TIP3    H227532   1.906   7.214  20.051 -0.5129  1.5710 -0.0059
 1113TIP3   OH227533   0.067   1.503  17.770  0.2437 -0.1041 -0.6865
 1113TIP3    H127534   0.100   1.574  17.717 -0.8887  0.9004 -0.1020
 1113TIP3    H227535   0.124   1.429  17.750  0.8009  0.6717 -2.0877
 1114TIP3   OH227536   0.078   1.593  17.024  0.2115 -0.3562  0.3074
 1114TIP3    H127537   0.064   1.615  16.932 -0.6562  1.2036  0.7784
 1114TIP3    H227538   0.003   1.538  17.047  0.2044 -0.3910  0.2005
 1115TIP3   OH227539   0.416   7.636  16.825  0.3864  0.4562 -0.0675
 1115TIP3    H127540   0.381   7.547  16.819  0.9069  0.2519 -0.1239
 1115TIP3    H227541   0.508   7.624  16.849  0.3630  0.9920  0.3200
 1116TIP3   OH227542   0.311   2.189  17.945 -0.4301 -0.0858 -0.0195
 1116TIP3    H127543   0.317   2.234  17.861  0.7706 -1.8133 -0.9221
 1116TIP3    H227544   0.326   2.258  18.010  0.5525  0.9707 -1.2945
 1117TIP3   OH227545   1.213   2.349  17.383 -0.0253  0.3103 -0.5951
 1117TIP3    H127546   1.256   2.360  17.298 -1.4258  0.3116 -1.3386
 1117TIP3    H227547   1.202   2.254  17.391 -2.5104  0.4233 -1.8337
 1118TIP3   OH227548   2.211   2.371  18.609  0.0571 -0.6081 -0.2924
 1118TIP3    H127549   2.232   2.279  18.594 -0.2205 -0.2523 -3.4263
 1118TIP3    H227550   2.286   2.406  18.657  0.6141 -2.2111  0.0506
 1119TIP3   OH227551   7.217   7.172  17.504 -0.2114  0.2056 -0.3697
 1119TIP3    H127552   7.242   7.126  17.424  0.4949 -0.2306  0.0927
 1119TIP3    H227553   7.178   7.254  17.473  1.0725  0.5452 -1.1462
 1120TIP3   OH227554   5.315   4.968  17.704  0.2785  0.1755 -0.1911
 1120TIP3    H127555   5.392   4.912  17.694  1.0092  0.6932  1.8950
 1120TIP3    H227556   5.285   4.952  17.794  0.3369  2.8057  0.3847
 1121TIP3   OH227557   4.153   7.558  19.464  0.6738  0.4852 -0.5700
 1121TIP3    H127558   4.187   7.588  19.548 -0.4986  1.0924 -0.3019
 1121TIP3    H227559   4.221   7.499  19.431 -0.1178 -2.2710  2.1872
 1122TIP3   OH227560   3.332   5.850  19.410  0.1662  0.3073 -0.4963
 1122TIP3    H127561   3.375   5.860  19.495 -0.9047  0.5569  0.0432
 1122TIP3    H227562   3.314   5.940  19.382 -1.7138  0.2066  0.2243
 1123TIP3   OH227563   0.651   2.143  17.973  0.5596  0.4327  0.4080
 1123TIP3    H127564   0.654   2.191  18.055  2.2220  0.4641  0.3516
 1123TIP3    H227565   0.575   2.086  17.981 -0.9692  2.4160  0.8158
 1124TIP3   OH227566   6.883   1.298  18.614  0.1846  0.6204  0.3114
 1124TIP3    H127567   6.872   1.219  18.667  1.1653  0.7387  0.7172
 1124TIP3    H227568   6.833   1.365  18.660  2.0302  1.0293  1.8211
 1125TIP3   OH227569   2.389   3.935  18.541  0.4440  0.2793 -0.0827
 1125TIP3    H127570   2.464   3.979  18.503  0.4974 -0.1454 -0.4779
 1125TIP3    H227571   2.314   3.990  18.517  0.6647  0.8975  0.6224
 1126TIP3   OH227572   5.188   2.257  17.068 -0.3577  0.1095  0.8312
 1126TIP3    H127573   5.101   2.221  17.050  0.0747 -0.1670 -0.8821
 1126TIP3    H227574   5.249   2.197  17.025  0.6070  0.8659  1.0966
 1127TIP3   OH227575   6.551   7.228  17.607  0.4862  0.5746  0.3673
 1127TIP3    H127576   6.643   7.208  17.624  0.5188  1.4116  1.2642
 1127TIP3    H227577   6.537   7.313  17.649  0.1402  2.0728 -2.5424
 1128TIP3   OH227578   2.110   4.997  18.311 -0.0741  0.7139  0.1890
 1128TIP3    H127579   2.185   4.944  18.284 -0.0955  0.7993 -0.0380
 1128TIP3    H227580   2.137   5.087  18.292  0.6669  0.9674  2.1635
 1129TIP3   OH227581   6.583   4.483  18.770  0.8131  0.0482 -0.0391
 1129TIP3    H127582   6.490   4.474  18.790  0.7155 -0.2953 -0.6138
 1129TIP3    H227583   6.585   4.541  18.694  1.1370  0.8556  0.5701
 1130TIP3   OH227584   7.663   5.258  19.059  0.2602  0.4634 -0.3232
 1130TIP3    H127585   7.611   5.235  18.982  0.2801  0.5808 -0.3713
 1130TIP3    H227586   7.632   5.344  19.085 -1.4018 -0.5409  1.2133
 1131TIP3   OH227587   1.391   5.034  19.075  0.0014 -0.6262 -0.0712
 1131TIP3    H127588   1.305   4.996  19.095 -0.0867  0.1782  1.1721
 1131TIP3    H227589   1.371   5.121  19.041  0.3095 -0.6529 -0.3254
 1132TIP3   OH227590   5.604   7.052  18.391 -0.1267  0.0332 -0.7381
 1132TIP3    H127591   5.695   7.069  18.417 -0.4011 -0.9571  1.0531
 1132TIP3    H227592   5.608   6.968  18.345 -0.4339 -1.5130  1.8643
 1133TIP3   OH227593   1.753   5.103  18.534 -0.2031 -0.0291 -0.2863
 1133TIP3    H127594   1.670   5.126  18.576 -0.0257  0.4406 -0.1851
 1133TIP3    H227595   1.728   5.076  18.446 -0.5248 -0.4931 -0.0541
 1134TIP3   OH227596   3.130   4.175  17.163 -0.0095 -0.8213 -0.0671
 1134TIP3    H127597   3.120   4.086  17.130 -0.2710 -0.2081 -1.7191
 1134TIP3    H227598   3.077   4.228  17.104  0.0808  0.4307  0.9457
 1135TIP3   OH227599   0.114   2.112  18.573 -0.5350  0.4924 -0.4656
 1135TIP3    H127600   0.185   2.104  18.637 -0.2704  4.8921  0.1253
 1135TIP3    H227601   0.034   2.113  18.625 -0.6407  0.2531 -0.6226
 1136TIP3   OH227602   5.753   5.199  19.387  0.2482  0.0360  0.9468
 1136TIP3    H127603   5.796   5.119  19.359 -0.3847 -0.6323  1.8256
 1136TIP3    H227604   5.716   5.236  19.307  1.4658  0.0467  0.3557
 1137TIP3   OH227605   4.012   1.237  17.861 -0.0722  0.2238  0.2181
 1137TIP3    H127606   3.989   1.185  17.938 -0.6278 -0.7003 -0.5469
 1137TIP3    H227607   4.083   1.188  17.820  0.6448  1.0380  0.4657
 1138TIP3   OH227608   0.520   1.711  18.047 -0.4500 -0.2468 -0.2350
 1138TIP3    H127609   0.455   1.659  18.093  0.2702  0.0901  1.2007
 1138TIP3    H227610   0.469   1.777  18.000 -1.2728 -1.3790 -1.0034
 1139TIP3   OH227611   1.097   2.695  19.258 -0.2339  0.0316 -0.5691
 1139TIP3    H127612   1.050   2.696  19.175 -2.0564 -2.8393  0.2784
 1139TIP3    H227613   1.048   2.756  19.314 -0.7645 -0.1705 -0.8020
 1140TIP3   OH227614   3.691   1.249  18.152 -0.3129 -0.2189  0.0174
 1140TIP3    H127615   3.617   1.228  18.096 -1.3273 -0.7112  1.4672
 1140TIP3    H227616   3.741   1.167  18.157  0.7280  0.2816 -1.4608
 1141TIP3   OH227617   1.787   3.200  17.535  0.4342 -0.1868  0.2158
 1141TIP3    H127618   1.821   3.111  17.538  1.6459  0.2287 -0.5028
 1141TIP3    H227619   1.783   3.228  17.626 -0.8807 -1.2930  0.5278
 1142TIP3   OH227620   7.526   5.709  17.438 -0.3774  0.0869 -0.0018
 1142TIP3    H127621   7.536   5.794  17.396 -0.1609 -1.1671 -2.7224
 1142TIP3    H227622   7.614   5.685  17.466 -0.0635 -0.0978 -1.1071
 1143TIP3   OH227623   7.136   6.329  19.291  1.2997 -0.1558  0.5613
 1143TIP3    H127624   7.093   6.388  19.229  4.3938  1.2664 -0.4474
 1143TIP3    H227625   7.109   6.241  19.263 -0.5322  0.5909 -0.2082
 1144TIP3   OH227626   1.193   0.700  18.174  0.0537 -0.1488  0.0983
 1144TIP3    H127627   1.126   0.664  18.115 -0.3151  0.2793  0.2526
 1144TIP3    H227628   1.276   0.672  18.136 -0.1791  0.1566 -0.6581
 1145TIP3   OH227629   7.061   4.458  19.396 -0.1184  0.0415 -0.9096
 1145TIP3    H127630   7.050   4.441  19.490 -1.1586  1.7151 -0.6961
 1145TIP3    H227631   6.977   4.432  19.358 -0.1846  0.6575 -1.1827
 1146TIP3   OH227632   6.612   2.218  18.332  0.3220 -0.9607 -0.0462
 1146TIP3    H127633   6.671   2.164  18.384  1.0915  0.5490  0.7087
 1146TIP3    H227634   6.612   2.176  18.245  0.1306 -2.6944  0.7491
 1147TIP3   OH227635   6.576   3.503  18.215 -0.1245  0.2752  0.2487
 1147TIP3    H127636   6.591   3.511  18.310 -0.4428  0.0422  0.3191
 1147TIP3    H227637   6.484   3.526  18.203  0.3697  2.1519 -0.2418
 1148TIP3   OH227638   4.444   0.477  19.214  0.0753  0.2447 -0.3020
 1148TIP3    H127639   4.419   0.431  19.294  1.1130  0.7584  0.3351
 1148TIP3    H227640   4.539   0.486  19.220  0.4686 -1.5418 -2.5740
 1149TIP3   OH227641   6.582   5.878  19.092 -0.3914 -0.0225  0.4331
 1149TIP3    H127642   6.607   5.792  19.127 -0.9936 -0.5713 -0.4524
 1149TIP3    H227643   6.575   5.934  19.170 -1.3457 -1.1169  1.1697
 1150TIP3   OH227644   2.763   0.234  18.950  0.1497 -0.7148 -0.0219
 1150TIP3    H127645   2.685   0.190  18.985  0.0825 -0.7183 -0.1781
 1150TIP3    H227646   2.736   0.325  18.940  0.2282 -0.6758  0.1131
 1151TIP3   OH227647   5.996   2.424  18.146  0.5084 -0.5691 -0.3172
 1151TIP3    H127648   5.936   2.375  18.202 -0.4949 -0.2161 -1.0604
 1151TIP3    H227649   5.950   2.505  18.126  0.7146 -0.8075 -1.8801
 1152TIP3   OH227650   0.728   2.294  18.176  0.3030  0.0757 -0.1607
 1152TIP3    H127651   0.814   2.251  18.176  1.3503  2.0592  0.6621
 1152TIP3    H227652   0.706   2.303  18.269  0.0171  1.1031 -0.3129
 1153TIP3   OH227653   3.802   2.011  19.206  0.2726 -0.1473  0.0850
 1153TIP3    H127654   3.829   2.016  19.114  0.6749 -0.6305  0.1734
 1153TIP3    H227655   3.832   1.925  19.235  0.3938  0.1102  0.7458
 1154TIP3   OH227656   4.479   0.671  19.536 -0.5437 -0.7606  0.3408
 1154TIP3    H127657   4.478   0.578  19.515 -0.6072 -0.4824 -0.9311
 1154TIP3    H227658   4.397   0.704  19.500 -0.6934 -0.2768  1.1109
 1155TIP3   OH227659   6.908   5.292  19.668 -0.0967  0.0556 -0.0074
 1155TIP3    H127660   6.861   5.360  19.620  0.0993  0.4315  0.3236
 1155TIP3    H227661   6.973   5.340  19.720  1.6268 -0.5324 -1.5132
 1156TIP3   OH227662   1.750   2.224  18.158 -0.0318 -0.5240 -0.1100
 1156TIP3    H127663   1.682   2.239  18.092  0.8298 -0.1579 -0.9368
 1156TIP3    H227664   1.756   2.129  18.165 -0.3997 -0.5615 -0.2632
 1157TIP3   OH227665   5.867   1.978  18.926  0.6874 -0.3184  0.1415
 1157TIP3    H127666   5.897   2.069  18.930 -0.0731 -0.0402 -0.2227
 1157TIP3    H227667   5.788   1.982  18.872  1.4413 -1.4081 -1.0839
 1158TIP3   OH227668   2.405   3.873  18.071 -0.1203  0.0116  0.0586
 1158TIP3    H127669   2.369   3.844  17.987  0.1903 -1.3005  0.3476
 1158TIP3    H227670   2.482   3.925  18.047 -0.2044 -0.1084 -0.4828
 1159TIP3   OH227671   3.533   6.954  19.587  0.2455  0.2539  0.0468
 1159TIP3    H127672   3.544   6.903  19.507  1.1528  1.9063 -0.9276
 1159TIP3    H227673   3.622   6.973  19.616 -0.0725  1.1062  0.5035
 1160TIP3   OH227674   1.450   5.209  19.431 -1.4069  0.2464  0.0382
 1160TIP3    H127675   1.510   5.169  19.367 -1.5202  0.1362 -0.0019
 1160TIP3    H227676   1.502   5.219  19.510 -0.8756  1.6197 -0.4614
 1161TIP3   OH227677   0.538   1.115  19.207 -0.1469 -0.4742  0.1667
 1161TIP3    H127678   0.613   1.056  19.214  0.6201  0.5879  1.2605
 1161TIP3    H227679   0.547   1.155  19.121  1.5483  0.8959  0.9196
 1162TIP3   OH227680   6.447   7.020  16.990 -0.1602 -0.1446  0.5610
 1162TIP3    H127681   6.414   7.089  17.047 -1.0146 -1.6271  1.9253
 1162TIP3    H227682   6.391   6.945  17.007  1.6933 -1.6820  0.3001
 1163TIP3   OH227683   0.654   1.174  18.703 -0.3984  0.6001  0.1220
 1163TIP3    H127684   0.629   1.083  18.686  0.6606 -0.2616  2.6511
 1163TIP3    H227685   0.719   1.195  18.635 -1.8192  0.0767 -1.4700
 1164TIP3   OH227686   6.224   0.478  18.200  0.3581 -0.3204  0.4958
 1164TIP3    H127687   6.144   0.427  18.212 -0.9218  1.7409  1.0209
 1164TIP3    H227688   6.238   0.521  18.284  1.8767 -0.3951  0.3074
 1165TIP3   OH227689   7.141   0.138  19.325 -0.4028 -0.2007  0.0499
 1165TIP3    H127690   7.186   0.104  19.403 -1.1814 -0.2002  0.5070
 1165TIP3    H227691   7.202   0.119  19.253  0.0904 -0.6947  0.5791
 1166TIP3   OH227692   2.638   1.606  18.000  0.2898  0.5543 -0.2219
 1166TIP3    H127693   2.715   1.648  17.963  1.3028 -0.3866  0.7354
 1166TIP3    H227694   2.569   1.673  17.995  0.9368  1.1502 -1.7894
 1167TIP3   OH227695   2.398   4.679  17.066 -0.4717  0.1391  0.2748
 1167TIP3    H127696   2.340   4.724  17.128 -0.9278  1.1503 -0.8512
 1167TIP3    H227697   2.447   4.750  17.024  4.8941 -0.7052  4.1165
 1168TIP3   OH227698   3.355   5.189  19.567 -0.0439 -0.4614  0.2160
 1168TIP3    H127699   3.307   5.147  19.638 -0.0114  0.2233  0.6514
 1168TIP3    H227700   3.447   5.187  19.595 -0.0974  0.3251  0.4665
 1169TIP3   OH227701   0.282   2.330  18.833 -0.4989 -0.2112 -0.1328
 1169TIP3    H127702   0.300   2.240  18.805  1.7391  0.0220  0.3062
 1169TIP3    H227703   0.188   2.340  18.823 -0.8119 -2.5800 -0.2431
 1170TIP3   OH227704   0.844   5.131  18.752 -0.2126 -0.2287 -0.2912
 1170TIP3    H127705   0.771   5.124  18.813 -0.3137  0.1600 -0.3697
 1170TIP3    H227706   0.890   5.210  18.778 -0.0953 -0.2137 -0.5439
 1171TIP3   OH227707   3.059   6.294  17.741  0.1530  0.5532 -0.3031
 1171TIP3    H127708   3.129   6.354  17.714  0.1261  0.9513  0.4678
 1171TIP3    H227709   2.995   6.351  17.784  0.5787 -0.1352  1.3217
 1172TIP3   OH227710   6.104   1.663  18.598  0.0142 -0.3812  0.1659
 1172TIP3    H127711   6.140   1.657  18.509 -0.7100 -0.6844 -0.1164
 1172TIP3    H227712   6.066   1.576  18.614 -2.2150  0.4530 -0.2669
 1173TIP3   OH227713   2.981   5.162  18.041  0.2557 -0.1554 -0.3209
 1173TIP3    H127714   2.886   5.160  18.028  0.1998  1.2612 -0.3644
 1173TIP3    H227715   2.993   5.207  18.124  0.8911 -0.0767 -0.4472
 1174TIP3   OH227716   0.273   1.702  19.095  0.2870  0.0057  0.3528
 1174TIP3    H127717   0.223   1.749  19.028 -1.9004 -0.4308  1.5919
 1174TIP3    H227718   0.270   1.610  19.067 -0.0628 -0.0866  0.6810
 1175TIP3   OH227719   5.504   5.098  17.204  0.6070 -0.1783 -0.5038
 1175TIP3    H127720   5.516   5.079  17.297  0.9662 -0.5353 -0.6181
 1175TIP3    H227721   5.590   5.131  17.176  1.2994 -2.4072 -1.2530
 1176TIP3   OH227722   1.626   6.433  17.296 -0.1235  0.0708 -0.1833
 1176TIP3    H127723   1.654   6.463  17.382 -3.0368  0.1053  0.8510
 1176TIP3    H227724   1.609   6.339  17.307 -1.0042  0.1756 -0.5398
 1177TIP3   OH227725   7.340   4.589  18.195 -0.1532 -0.5597  0.2075
 1177TIP3    H127726   7.271   4.535  18.234 -1.6801 -0.0491 -1.6154
 1177TIP3    H227727   7.294   4.665  18.160  1.0700 -0.8429 -2.2755
 1178TIP3   OH227728   0.973   0.554  17.080  0.3253  0.4674 -0.2831
 1178TIP3    H127729   1.008   0.546  16.991  0.1028 -1.1168 -0.2461
 1178TIP3    H227730   0.943   0.645  17.085  1.0075  0.7898 -1.5720
 1179TIP3   OH227731   1.718   3.788  18.793 -0.1393 -0.5120  0.1021
 1179TIP3    H127732   1.747   3.781  18.702  0.4755 -0.5732  0.2908
 1179TIP3    H227733   1.789   3.836  18.837 -0.9894  0.5861  0.3093
 1180TIP3   OH227734   1.338   1.699  18.908 -0.1727  0.3722 -0.0086
 1180TIP3    H127735   1.254   1.707  18.862 -0.8307 -0.9264  0.8901
 1180TIP3    H227736   1.314   1.665  18.994  1.3143 -0.4485  0.1071
 1181TIP3   OH227737   2.179   4.345  18.351 -0.9924 -0.2992  0.5610
 1181TIP3    H127738   2.198   4.422  18.297  3.4224  0.6343  2.9628
 1181TIP3    H227739   2.177   4.272  18.289  1.3340  0.9983 -1.2009
 1182TIP3   OH227740   1.503   6.937  19.427  0.1849  0.7731 -0.5895
 1182TIP3    H127741   1.517   6.850  19.465  0.3201  1.2143  0.4124
 1182TIP3    H227742   1.580   6.952  19.372  0.3789  0.4382 -0.4106
 1183TIP3   OH227743   1.235   3.477  19.505  0.5415 -0.3837 -0.1676
 1183TIP3    H127744   1.182   3.400  19.524  0.5064 -0.5366 -0.8745
 1183TIP3    H227745   1.173   3.544  19.477  0.6373 -0.3016 -0.1877
 1184TIP3   OH227746   6.011   6.300  17.500  0.7061  0.3223  0.0226
 1184TIP3    H127747   6.079   6.347  17.452  0.7883  0.0812 -0.0962
 1184TIP3    H227748   6.053   6.271  17.580  0.1875  2.0087  0.9716
 1185TIP3   OH227749   1.234   1.381  16.989 -0.2478  0.1436 -0.3080
 1185TIP3    H127750   1.218   1.356  17.080 -1.1965 -1.0367 -0.7683
 1185TIP3    H227751   1.303   1.321  16.959  0.6708  1.0982 -0.1301
 1186TIP3   OH227752   2.613   5.843  19.243  0.3694 -0.0251 -0.2078
 1186TIP3    H127753   2.702   5.821  19.271  0.5182  0.9047  0.0895
 1186TIP3    H227754   2.584   5.767  19.192  2.0496  0.3931 -1.9307
 1187TIP3   OH227755   2.060   1.244  17.875 -0.4876  0.0678 -0.1301
 1187TIP3    H127756   2.124   1.281  17.813 -0.8806  0.0760 -0.5352
 1187TIP3    H227757   1.978   1.288  17.854 -1.3041 -1.9557 -1.5596
 1188TIP3   OH227758   1.579   1.209  18.924  0.4419  0.0801 -0.1952
 1188TIP3    H127759   1.634   1.153  18.980 -0.0252 -0.7577 -0.5467
 1188TIP3    H227760   1.578   1.164  18.840 -0.6549  0.1569 -0.2325
 1189TIP3   OH227761   0.055   5.428  17.979  0.3133 -0.4152  0.0308
 1189TIP3    H127762  -0.035   5.417  17.948  0.4228 -0.4026 -0.2886
 1189TIP3    H227763   0.064   5.521  17.995  0.1893 -0.4494  0.3097
 1190TIP3   OH227764   5.877   0.597  17.037 -0.1199 -0.2087  0.2124
 1190TIP3    H127765   5.970   0.589  17.059 -0.3705 -0.1534  1.4006
 1190TIP3    H227766   5.858   0.690  17.047 -0.0896 -0.0559 -1.0240
 1191TIP3   OH227767   3.165   0.557  17.795  0.4634 -0.4105  0.1928
 1191TIP3    H127768   3.227   0.578  17.725 -0.1919  0.2828 -0.1974
 1191TIP3    H227769   3.079   0.569  17.755  0.0500  1.4552  1.5017
 1192TIP3   OH227770   1.044   6.274  17.414 -0.0117 -0.6143 -0.3682
 1192TIP3    H127771   0.953   6.302  17.424 -0.1148 -0.6687 -1.0788
 1192TIP3    H227772   1.071   6.313  17.330  0.8752  0.0929  0.2216
 1193TIP3   OH227773   3.302   2.463  17.029 -0.1431  0.5041  0.3002
 1193TIP3    H127774   3.389   2.471  16.990 -0.9115  1.3101 -1.3963
 1193TIP3    H227775   3.245   2.439  16.955 -1.6422  1.8588  0.9426
 1194TIP3   OH227776   3.315   0.301  17.185  0.7357  0.5110 -0.2038
 1194TIP3    H127777   3.350   0.251  17.111 -0.1027  1.1041 -1.0332
 1194TIP3    H227778   3.227   0.264  17.198  0.7776  0.5979  0.3193
 1195TIP3   OH227779   5.055   2.706  17.848  0.3854  0.0634 -0.5164
 1195TIP3    H127780   4.989   2.655  17.802  1.4596  0.1684 -2.2397
 1195TIP3    H227781   5.019   2.795  17.850 -1.0429 -0.4901  1.6324
 1196TIP3   OH227782   0.753   5.628  19.581  0.1178 -0.2386  0.0827
 1196TIP3    H127783   0.796   5.713  19.595  0.2473 -0.4181  0.8380
 1196TIP3    H227784   0.666   5.651  19.549  0.9872  0.1164 -2.2274
 1197TIP3   OH227785   7.535   4.611  18.924 -0.2253 -0.7925 -0.1875
 1197TIP3    H127786   7.541   4.635  19.017  1.6882  0.5683 -0.6004
 1197TIP3    H227787   7.617   4.565  18.906  0.2844  0.6146 -1.6289
 1198TIP3   OH227788   2.404   7.520  19.606  0.1720 -0.0208  0.3385
 1198TIP3    H127789   2.382   7.601  19.652 -0.5713  0.8693 -1.4882
 1198TIP3    H227790   2.498   7.526  19.589 -0.0535  0.9514 -0.6475
 1199TIP3   OH227791   6.735   3.759  19.303  0.3505 -0.2308 -0.4227
 1199TIP3    H127792   6.790   3.836  19.287 -0.0370 -0.0763 -1.0204
 1199TIP3    H227793   6.646   3.789  19.287 -0.0168 -0.2334  1.4278
 1200TIP3   OH227794   0.467   2.259  18.380 -0.3115  0.3669 -0.1706
 1200TIP3    H127795   0.540   2.321  18.383  0.2985 -0.3757  0.7112
 1200TIP3    H227796   0.477   2.205  18.459 -0.8733 -0.8011 -0.8647
 1201TIP3   OH227797   5.283   7.373  17.544  0.1333 -0.1507  0.1213
 1201TIP3    H127798   5.293   7.466  17.566  0.7997 -0.5351  1.5855
 1201TIP3    H227799   5.205   7.345  17.591 -0.4934 -0.1855 -0.9072
 1202TIP3   OH227800   6.823   1.677  16.984 -0.1766  0.2935  0.2467
 1202TIP3    H127801   6.860   1.739  16.922 -1.8572  1.5623  0.4390
 1202TIP3    H227802   6.898   1.626  17.015  1.3929  2.6286  0.5530
 1203TIP3   OH227803   6.243   3.850  18.814  0.0162  0.3030  0.4279
 1203TIP3    H127804   6.214   3.778  18.870  1.4913 -1.6840 -1.2214
 1203TIP3    H227805   6.332   3.870  18.845 -0.4521  1.6138  1.0043
 1204TIP3   OH227806   2.263   6.368  19.460  0.1279 -0.7750  0.9685
 1204TIP3    H127807   2.335   6.421  19.494  1.3642 -1.3784 -0.6005
 1204TIP3    H227808   2.194   6.432  19.439  1.9003  0.4273 -1.7241
 1205TIP3   OH227809   7.299   3.661  19.112 -0.7347 -0.6084 -0.5715
 1205TIP3    H127810   7.296   3.714  19.033 -1.1705 -1.1998 -0.9676
 1205TIP3    H227811   7.347   3.714  19.176 -0.3198 -0.1539 -1.2515
 1206TIP3   OH227812   4.717   3.138  19.185  0.1340  0.3566 -0.8492
 1206TIP3    H127813   4.753   3.186  19.260  1.1602  1.0307 -1.7376
 1206TIP3    H227814   4.624   3.163  19.184 -0.1682 -0.5268  0.8194
 1207TIP3   OH227815   4.022   5.573  18.641 -0.1277 -0.2950  0.0219
 1207TIP3    H127816   3.959   5.641  18.667 -1.1572 -0.8003 -1.0497
 1207TIP3    H227817   4.102   5.621  18.619 -0.7829  0.5612 -0.5457
 1208TIP3   OH227818   0.802   5.516  17.825 -0.1059  0.7449  0.1585
 1208TIP3    H127819   0.735   5.471  17.773  1.3406 -0.8674 -0.4008
 1208TIP3    H227820   0.799   5.473  17.910 -0.2488  1.1512  0.3608
 1209TIP3   OH227821   0.766   0.248  18.331 -0.1479 -0.2669  0.4642
 1209TIP3    H127822   0.748   0.154  18.328  2.0480 -0.7510  0.6186
 1209TIP3    H227823   0.795   0.270  18.243 -1.3113  0.4532  0.2364
 1210TIP3   OH227824   0.521   1.749  16.919 -0.0236  0.5511 -0.0365
 1210TIP3    H127825   0.479   1.685  16.976  1.3576 -0.1091  0.2834
 1210TIP3    H227826   0.463   1.825  16.921 -1.1388 -0.2988  0.4399
 1211TIP3   OH227827   5.752   3.437  19.425  0.0616 -0.3708 -0.6498
 1211TIP3    H127828   5.729   3.365  19.366  0.9428 -2.5401  1.4865
 1211TIP3    H227829   5.790   3.503  19.367 -0.7509 -1.6013 -2.7170
 1212TIP3   OH227830   7.261   2.961  17.130 -0.4120  0.0107 -0.1649
 1212TIP3    H127831   7.230   2.899  17.064  0.6432  1.0184 -1.6805
 1212TIP3    H227832   7.327   3.013  17.085  2.1838 -0.8075  2.3498
 1213TIP3   OH227833   5.916   3.414  18.432  0.2789 -0.1406  0.3954
 1213TIP3    H127834   5.839   3.369  18.465 -1.4718  2.0325 -0.5026
 1213TIP3    H227835   5.928   3.379  18.343  2.1028 -2.4805  1.4473
 1214TIP3   OH227836   1.731   6.172  19.058 -0.0059 -0.4558  0.1846
 1214TIP3    H127837   1.797   6.204  19.120  2.2435 -0.7710 -1.8981
 1214TIP3    H227838   1.729   6.077  19.074 -0.9303 -0.3030  1.0865
 1215TIP3   OH227839   0.448   4.126  16.705 -0.0501 -0.2562 -0.4835
 1215TIP3    H127840   0.393   4.120  16.627 -0.8642  1.0483 -0.0389
 1215TIP3    H227841   0.451   4.219  16.726 -1.2312 -0.6824  1.9594
 1216TIP3   OH227842   7.214   7.210  16.657  0.1643 -0.0675 -0.2203
 1216TIP3    H127843   7.159   7.288  16.650  2.4016  1.5168 -1.7508
 1216TIP3    H227844   7.185   7.153  16.585  1.4345  1.4468 -2.0154
 1217TIP3   OH227845   3.573   5.968  19.185  0.2265  0.3537 -0.0862
 1217TIP3    H127846   3.478   5.978  19.198  0.2829  0.6661  0.0910
 1217TIP3    H227847   3.600   6.051  19.147  0.2392 -0.1629 -1.2330
 1218TIP3   OH227848   6.659   3.924  18.363 -0.3438 -0.3688  0.3203
 1218TIP3    H127849   6.745   3.940  18.403  0.8262  2.1490 -2.7838
 1218TIP3    H227850   6.597   3.932  18.436  1.7159  2.6999  1.9819
 1219TIP3   OH227851   5.338   4.613  18.502  0.8265  0.0596 -0.4652
 1219TIP3    H127852   5.285   4.538  18.474  0.7522 -0.0480 -0.0427
 1219TIP3    H227853   5.359   4.659  18.421 -2.3759  1.7875 -0.4756
 1220TIP3   OH227854   0.942   7.496  18.302 -0.3099 -0.5993  0.3366
 1220TIP3    H127855   0.919   7.405  18.285  1.4301 -2.0407  4.3971
 1220TIP3    H227856   1.034   7.494  18.329  0.6582  2.8563 -1.9880
 1221TIP3   OH227857   5.939   0.622  18.482 -0.4750  0.7259 -0.0532
 1221TIP3    H127858   5.858   0.570  18.478 -0.6250  0.7085  1.9897
 1221TIP3    H227859   5.999   0.569  18.534  0.1943  1.5706  0.0582
 1222TIP3   OH227860   5.506   0.700  18.226  0.4735  0.1618  0.1317
 1222TIP3    H127861   5.414   0.694  18.252  0.6483 -0.2817  0.6866
 1222TIP3    H227862   5.504   0.731  18.136 -0.3661 -2.4929 -0.8523
 1223TIP3   OH227863   0.509   5.190  17.096  0.4164 -0.4063  0.0125
 1223TIP3    H127864   0.535   5.193  17.188  1.0190  0.9698 -0.1756
 1223TIP3    H227865   0.439   5.254  17.088  0.4590 -0.4212 -0.5217
 1224TIP3   OH227866   3.178   3.345  16.912  0.4581  0.1666  0.2198
 1224TIP3    H127867   3.098   3.293  16.904  0.3214 -0.3785  3.5748
 1224TIP3    H227868   3.151   3.435  16.895 -0.3912 -0.2330 -0.6620
 1225TIP3   OH227869   3.263   5.181  18.569 -0.4175 -0.5096 -0.3349
 1225TIP3    H127870   3.313   5.177  18.488  0.9886 -0.1995  0.4816
 1225TIP3    H227871   3.229   5.270  18.572  0.3049 -0.2338 -0.1539
 1226TIP3   OH227872   3.279   6.322  16.985 -0.2147  0.2244  0.5592
 1226TIP3    H127873   3.227   6.314  16.904  0.2317  0.7181  0.2129
 1226TIP3    H227874   3.358   6.271  16.967 -0.6049 -0.6063  1.1209
 1227TIP3   OH227875   6.068   5.712  18.367  0.4389 -0.7536  0.2724
 1227TIP3    H127876   6.021   5.688  18.287  2.1053 -0.8148 -0.7339
 1227TIP3    H227877   6.000   5.721  18.433 -1.0930  0.1512 -1.3416
 1228TIP3   OH227878   3.923   2.353  18.791 -0.1685  0.0936  0.0115
 1228TIP3    H127879   3.858   2.400  18.738 -1.1747  0.7763  1.7728
 1228TIP3    H227880   3.992   2.417  18.808 -0.5726  0.3371  0.7547
 1229TIP3   OH227881   7.029   3.367  18.177  0.2229  0.0967  0.2816
 1229TIP3    H127882   6.947   3.400  18.139  0.8233  1.8838  0.4351
 1229TIP3    H227883   7.005   3.284  18.218 -1.3540  0.2389 -0.2931
 1230TIP3   OH227884   4.814   2.164  17.734  0.1289 -0.0730  0.2881
 1230TIP3    H127885   4.734   2.127  17.698 -0.1733 -0.3979  1.2559
 1230TIP3    H227886   4.857   2.091  17.779  0.1325  0.4556  1.1763
 1231TIP3   OH227887   4.656   4.685  18.305  0.1344  0.5733 -0.3030
 1231TIP3    H127888   4.598   4.612  18.320  1.0199 -0.0559  0.1444
 1231TIP3    H227889   4.602   4.751  18.260 -0.4652 -0.6582 -1.4549
 1232TIP3   OH227890   7.314   6.879  16.863 -0.1037 -0.0906 -0.1906
 1232TIP3    H127891   7.250   6.889  16.792 -0.1976 -0.5641 -0.1765
 1232TIP3    H227892   7.370   6.807  16.834 -0.1924 -0.3370  0.2558
 1233TIP3   OH227893   4.259   7.455  17.797  0.4128  0.1729  0.5230
 1233TIP3    H127894   4.331   7.478  17.856  0.0057  3.1201  0.0037
 1233TIP3    H227895   4.181   7.458  17.852  0.0276  2.9640 -0.0417
 1234TIP3   OH227896   1.237   0.339  17.971  0.2873 -0.5978 -0.1923
 1234TIP3    H127897   1.273   0.268  18.024 -2.3163 -1.0098  1.1636
 1234TIP3    H227898   1.203   0.295  17.893 -2.0420 -1.0705  1.0037
 1235TIP3   OH227899   7.176   6.512  18.862 -0.3842  0.2506  0.2605
 1235TIP3    H127900   7.267   6.482  18.869 -0.2354  0.8755  1.1755
 1235TIP3    H227901   7.184   6.601  18.825 -0.3678  1.5115  3.0537
 1236TIP3   OH227902   1.870   7.612  17.716 -0.3392 -0.5801  0.4543
 1236TIP3    H127903   1.922   7.532  17.701 -0.5402 -0.5314 -0.5863
 1236TIP3    H227904   1.909   7.651  17.794  0.2960 -1.2703  0.5024
 1237TIP3   OH227905   3.658   6.856  17.803  0.8884 -0.0907 -0.0599
 1237TIP3    H127906   3.694   6.895  17.723 -2.8088  2.1715 -0.8377
 1237TIP3    H227907   3.583   6.912  17.825  0.6805 -1.6657  4.0368
 1238TIP3   OH227908   6.316   2.656  17.513  0.7710  0.8907 -1.0266
 1238TIP3    H127909   6.318   2.631  17.605  1.2767  0.8440 -1.0482
 1238TIP3    H227910   6.233   2.703  17.503 -0.8478 -1.7815 -1.2455
 1239TIP3   OH227911   4.671   5.683  16.634 -0.2953 -0.2618  0.2515
 1239TIP3    H127912   4.659   5.721  16.547 -1.4276 -1.0623  0.0328
 1239TIP3    H227913   4.729   5.744  16.680  1.8361 -0.7597 -1.6430
 1240TIP3   OH227914   3.487   3.915  17.833  0.5984  0.3575  0.3490
 1240TIP3    H127915   3.393   3.936  17.838  0.1786 -1.3500  0.4438
 1240TIP3    H227916   3.510   3.892  17.923  0.5956 -1.1523 -0.0153
 1241TIP3   OH227917   5.727   5.626  19.745  0.4990 -0.3710 -0.6521
 1241TIP3    H127918   5.751   5.686  19.815 -1.3112  0.7086 -0.8984
 1241TIP3    H227919   5.806   5.620  19.691  1.5543 -0.3310  0.8311
 1242TIP3   OH227920   5.324   7.006  19.065  0.5048 -0.2853 -0.5207
 1242TIP3    H127921   5.347   6.923  19.107  0.0781 -0.6331 -0.9631
 1242TIP3    H227922   5.287   7.059  19.135 -2.2943 -1.6511 -0.8316
 1243TIP3   OH227923   5.019   0.275  17.601 -0.5633 -0.8301  0.2608
 1243TIP3    H127924   5.108   0.284  17.636 -0.5195 -1.4302  0.3253
 1243TIP3    H227925   5.015   0.184  17.571  0.0207  0.1185 -3.0233
 1244TIP3   OH227926   2.943   1.553  19.522  0.5631 -0.3370 -0.1626
 1244TIP3    H127927   2.927   1.604  19.601 -0.3296  2.6168 -2.0815
 1244TIP3    H227928   3.035   1.568  19.501  0.5652 -0.3579 -0.1683
 1245TIP3   OH227929   6.766   6.315  17.272  0.6297 -0.1525  0.9158
 1245TIP3    H127930   6.762   6.351  17.184 -0.5269  0.1850  1.0957
 1245TIP3    H227931   6.845   6.355  17.310  0.6628  0.3679  0.3275
 1246TIP3   OH227932   2.240   2.025  19.460  0.5539 -0.7028 -0.2146
 1246TIP3    H127933   2.199   1.944  19.429  1.4767 -0.9839 -0.7580
 1246TIP3    H227934   2.324   2.028  19.414 -0.1583  1.4305 -1.5062
 1247TIP3   OH227935   0.907   4.111  19.300 -0.4203 -0.7221 -0.1224
 1247TIP3    H127936   0.866   4.026  19.282 -0.2388 -0.5490 -1.4532
 1247TIP3    H227937   0.835   4.173  19.305 -0.5133 -0.8627  0.2624
 1248TIP3   OH227938   5.098   3.081  17.186  0.2801 -0.9584  0.1679
 1248TIP3    H127939   5.180   3.098  17.138  1.0487 -0.4774  1.5915
 1248TIP3    H227940   5.109   3.127  17.269 -1.0499 -1.6927  0.7801
 1249TIP3   OH227941   7.321   1.418  19.217 -0.2141 -0.6333  0.2944
 1249TIP3    H127942   7.347   1.477  19.147  0.9279 -0.6791  0.6602
 1249TIP3    H227943   7.225   1.413  19.210 -0.2652  0.7043 -0.1716
 1250TIP3   OH227944   6.160   4.648  19.368  0.7001 -0.5370  0.0593
 1250TIP3    H127945   6.186   4.574  19.315  3.0351  0.7396 -0.6756
 1250TIP3    H227946   6.238   4.703  19.374 -0.8902  1.7991  0.6966
 1251TIP3   OH227947   2.969   7.521  17.003  0.3829 -0.3040  0.8221
 1251TIP3    H127948   2.920   7.439  17.008  1.9457 -1.2436  2.1326
 1251TIP3    H227949   2.926   7.572  16.935 -2.1114 -1.2097  1.6242
 1252TIP3   OH227950   6.604   2.746  18.313  0.5450  0.0935 -0.2655
 1252TIP3    H127951   6.633   2.657  18.294 -0.8828 -0.4436 -0.0852
 1252TIP3    H227952   6.535   2.735  18.379  0.7052  1.3781  0.1483
 1253TIP3   OH227953   6.455   3.991  18.538 -0.1787 -0.3288  0.4954
 1253TIP3    H127954   6.452   4.071  18.590 -1.7280  0.7987 -1.2245
 1253TIP3    H227955   6.384   4.000  18.475 -0.4385 -3.1063  0.2559
 1254TIP3   OH227956   2.703   5.159  19.165 -0.5210 -0.1349 -0.2242
 1254TIP3    H127957   2.778   5.132  19.113  1.2112  1.1284  1.5133
 1254TIP3    H227958   2.689   5.086  19.226 -0.0103  0.0760  0.1517
 1255TIP3   OH227959   2.761   3.587  17.434 -0.1851 -0.3540  0.2632
 1255TIP3    H127960   2.851   3.558  17.415  0.8468  1.8999  1.4059
 1255TIP3    H227961   2.727   3.615  17.349  0.9414  0.6572  0.1185
 1256TIP3   OH227962   2.547   0.744  18.622  0.0858  0.1453 -0.2435
 1256TIP3    H127963   2.454   0.730  18.600  0.4153  0.7309 -2.2375
 1256TIP3    H227964   2.586   0.657  18.617 -0.4180 -0.1625  0.9991
 1257TIP3   OH227965   0.654   4.819  18.165 -1.2092  0.3554 -0.9547
 1257TIP3    H127966   0.598   4.865  18.228 -1.8922  0.0008 -1.2908
 1257TIP3    H227967   0.594   4.764  18.115 -0.4648 -0.6368 -0.8075
 1258TIP3   OH227968   0.973   2.778  16.831  0.6866  0.7081 -0.1471
 1258TIP3    H127969   1.002   2.751  16.744  0.6366  1.7435 -0.5027
 1258TIP3    H227970   0.922   2.704  16.863  0.7909  0.2698 -0.9568
 1259TIP3   OH227971   1.171   4.361  17.880  0.4040  0.1857 -0.2819
 1259TIP3    H127972   1.207   4.424  17.817  1.7064  0.1898  0.4239
 1259TIP3    H227973   1.196   4.275  17.845  1.1016  0.1869  0.1956
 1260TIP3   OH227974   3.671   5.057  18.522 -0.1765  0.2247 -0.2505
 1260TIP3    H127975   3.616   5.068  18.600 -0.6992  2.7620 -0.9037
 1260TIP3    H227976   3.761   5.063  18.555 -0.3623 -0.1956  0.3408
 1261TIP3   OH227977   3.446   3.473  18.419 -0.3673  0.0057 -0.2214
 1261TIP3    H127978   3.355   3.498  18.435 -0.5642 -1.1877  0.6059
 1261TIP3    H227979   3.475   3.432  18.501  1.6096  2.2738  0.3331
 1262TIP3   OH227980   6.059   0.180  18.823 -1.1524 -0.2871 -0.3883
 1262TIP3    H127981   6.060   0.185  18.918  0.3236  2.3947 -0.4316
 1262TIP3    H227982   6.144   0.143  18.800 -1.4585 -0.8176 -0.6760
 1263TIP3   OH227983   0.551   7.063  18.581 -0.2301  0.5037  0.0705
 1263TIP3    H127984   0.487   7.029  18.517 -0.1185  0.1039  0.1662
 1263TIP3    H227985   0.588   6.984  18.620 -0.2706  0.7483  0.6025
 1264TIP3   OH227986   3.559   7.366  18.753 -0.3065 -0.1823 -0.5380
 1264TIP3    H127987   3.628   7.329  18.809 -1.1031 -0.0189  0.5823
 1264TIP3    H227988   3.602   7.438  18.707  0.1120  0.3826  0.6835
 1265TIP3   OH227989   7.353   5.259  18.023  0.3418 -0.3995  0.1604
 1265TIP3    H127990   7.417   5.270  17.952  0.2331  1.2805  0.2782
 1265TIP3    H227991   7.354   5.343  18.069 -0.1696 -1.1861  1.6773
 1266TIP3   OH227992   6.065   7.359  17.193 -0.0336 -0.2388  0.5536
 1266TIP3    H127993   6.134   7.420  17.221  1.1570 -0.9172 -0.8064
 1266TIP3    H227994   6.036   7.318  17.275  1.4716 -0.2406  1.1249
 1267TIP3   OH227995   4.063   4.383  17.773  0.3713  0.5129 -0.8357
 1267TIP3    H127996   4.084   4.445  17.843  0.4525 -0.0818 -0.3188
 1267TIP3    H227997   3.969   4.368  17.781  0.5214 -0.1838 -0.3193
 1268TIP3   OH227998   1.769   5.251  19.117  0.2556  0.4494 -0.3290
 1268TIP3    H127999   1.785   5.185  19.050  0.4559  0.4654 -0.2991
 1268TIP3    H228000   1.716   5.207  19.183 -0.6404  0.6622 -0.8844
 1269TIP3   OH228001   6.281   1.383  18.838  0.2683  0.0264  0.2587
 1269TIP3    H128002   6.197   1.428  18.826 -0.1828 -0.8808 -0.1241
 1269TIP3    H228003   6.267   1.323  18.911  0.9537  0.6998  0.9604
 1270TIP3   OH228004   4.314   1.053  19.597  0.1796  0.3307 -0.0648
 1270TIP3    H128005   4.333   1.015  19.682 -1.3923  0.9244  0.5935
 1270TIP3    H228006   4.329   1.147  19.609 -0.8814  0.5217 -0.1840
 1271TIP3   OH228007   0.109   3.741  17.627  0.2944 -0.5263 -0.4535
 1271TIP3    H128008   0.091   3.714  17.717 -1.2600 -0.6001 -0.7537
 1271TIP3    H228009   0.022   3.754  17.589  0.9349 -0.4199 -1.9208
 1272TIP3   OH228010   4.107   2.801  17.172  0.2429  0.0918  0.1502
 1272TIP3    H128011   4.183   2.802  17.113 -0.9597  3.9197 -1.6097
 1272TIP3    H228012   4.032   2.807  17.114 -1.1833  0.6960  1.9791
 1273TIP3   OH228013   2.804   0.131  16.910 -0.5185 -0.2493  0.1567
 1273TIP3    H128014   2.752   0.054  16.886  0.4855 -1.0932  0.6196
 1273TIP3    H228015   2.885   0.123  16.859  0.7728 -1.0028  2.2144
 1274TIP3   OH228016   3.795   6.408  18.696  0.1179  0.8334 -0.7077
 1274TIP3    H128017   3.831   6.395  18.784 -1.6989  1.9934  0.2696
 1274TIP3    H228018   3.740   6.332  18.682  0.9738  0.2822 -1.1838
 1275TIP3   OH228019   5.104   2.172  17.599 -0.1427  0.4305  0.6180
 1275TIP3    H128020   5.116   2.081  17.625  0.0588 -0.0307 -0.9410
 1275TIP3    H228021   5.192   2.207  17.590 -0.2089  0.6325  0.7423
 1276TIP3   OH228022   0.136   6.505  17.166 -0.0147 -0.4543  0.4686
 1276TIP3    H128023   0.139   6.561  17.089  0.2483 -1.5506 -0.3341
 1276TIP3    H228024   0.106   6.420  17.134  1.7673 -1.4405  1.2197
 1277TIP3   OH228025   6.649   4.833  19.165 -0.4853  0.2151  0.0513
 1277TIP3    H128026   6.744   4.845  19.155 -0.5923  0.0656 -1.5129
 1277TIP3    H228027   6.636   4.739  19.154 -0.8668  0.3179 -0.4343
 1278TIP3   OH228028   7.581   2.835  18.114  0.2503  0.3621  0.2124
 1278TIP3    H128029   7.616   2.894  18.181 -2.4863 -0.3433  2.4734
 1278TIP3    H228030   7.488   2.858  18.108 -0.5186 -2.4314 -0.1481
 1279TIP3   OH228031   1.084   3.463  18.656 -0.0326 -0.1436 -0.0599
 1279TIP3    H128032   0.989   3.458  18.667 -0.3281 -1.3354 -2.4849
 1279TIP3    H228033   1.100   3.555  18.632 -0.5405  0.0978  0.5031
 1280TIP3   OH228034   2.714   4.596  17.734 -0.0109 -0.0546  0.2984
 1280TIP3    H128035   2.695   4.524  17.674 -0.5661  0.6223 -0.3529
 1280TIP3    H228036   2.752   4.553  17.811  0.2271 -0.9834 -0.3144
 1281TIP3   OH228037   4.999   6.777  19.348  0.1649 -0.3994 -0.5070
 1281TIP3    H128038   5.054   6.852  19.327 -0.5393  0.2546 -0.0863
 1281TIP3    H228039   4.993   6.728  19.266 -1.9255  1.6876 -1.7191
 1282TIP3   OH228040   4.627   4.847  17.742  0.5415 -0.5319  0.7059
 1282TIP3    H128041   4.671   4.900  17.676  0.5021 -1.8865 -0.4470
 1282TIP3    H228042   4.545   4.820  17.700 -0.2651 -0.1013  1.9172
 1283TIP3   OH228043   7.018   5.211  16.912  0.1471 -0.3489  0.1111
 1283TIP3    H128044   7.023   5.226  16.818  0.4139  0.3192  0.2246
 1283TIP3    H228045   7.059   5.289  16.951  1.4059 -1.2966  0.7435
 1284TIP3   OH228046   0.433   7.514  18.556 -0.1537  0.2192  0.3442
 1284TIP3    H128047   0.511   7.560  18.589 -0.3031  0.9991 -0.3578
 1284TIP3    H228048   0.386   7.580  18.506  0.2754 -1.0186 -1.8060
 1285TIP3   OH228049   2.941   0.933  18.619 -0.0843  0.7033 -0.0632
 1285TIP3    H128050   2.939   0.837  18.616 -2.8181  0.6481  0.6858
 1285TIP3    H228051   3.028   0.954  18.653 -0.0401 -1.6082  1.5101
 1286TIP3   OH228052   2.339   0.881  16.768  0.7158 -0.2118 -0.0953
 1286TIP3    H128053   2.303   0.968  16.749 -1.1393 -0.6010  1.3145
 1286TIP3    H228054   2.276   0.820  16.728  2.1287 -0.9406 -1.2957
 1287TIP3   OH228055   6.822   6.862  16.723 -0.3342  0.1178 -0.3175
 1287TIP3    H128056   6.823   6.772  16.689  0.6183 -0.8331  1.9780
 1287TIP3    H228057   6.766   6.857  16.800  0.4269  1.2808  0.3399
 1288TIP3   OH228058   7.447   3.529  16.490  0.2569 -0.0530 -0.1069
 1288TIP3    H128059   7.471   3.456  16.547  0.9503 -0.7017 -1.2061
 1288TIP3    H228060   7.473   3.501  16.402  2.0053  2.1020 -0.3751
 1289TIP3   OH228061   4.518   2.028  17.652 -0.2001 -0.3163  1.0747
 1289TIP3    H128062   4.542   2.058  17.565  1.3284 -0.0172  1.5648
 1289TIP3    H228063   4.488   1.938  17.640 -0.7731 -0.0112  0.1503
 1290TIP3   OH228064   5.052   0.311  18.720  0.0072 -0.2921  0.3182
 1290TIP3    H128065   5.037   0.268  18.804 -0.9752  0.9017  0.7837
 1290TIP3    H228066   5.096   0.394  18.743 -1.4898  0.6819 -0.1920
 1291TIP3   OH228067   7.129   6.736  18.436 -0.1457 -0.2199 -0.5389
 1291TIP3    H128068   7.169   6.677  18.372  1.0303 -1.7042  1.4462
 1291TIP3    H228069   7.040   6.702  18.448  0.2626 -1.1473 -0.0109
 1292TIP3   OH228070   5.814   6.345  18.735 -0.3029  0.0478 -0.1270
 1292TIP3    H128071   5.899   6.381  18.709 -0.1137  0.1939  0.6749
 1292TIP3    H228072   5.791   6.392  18.815 -0.7218 -0.6108  0.1467
 1293TIP3   OH228073   1.737   1.295  18.385  0.0181  0.3379 -0.4945
 1293TIP3    H128074   1.813   1.343  18.419  0.2250  0.2753 -0.8625
 1293TIP3    H228075   1.769   1.255  18.304 -0.4197  0.3440 -0.6687
 1294TIP3   OH228076   0.914   3.124  17.930 -0.6046 -0.0459  0.3615
 1294TIP3    H128077   0.980   3.192  17.926  0.7647 -1.3210 -3.2850
 1294TIP3    H228078   0.831   3.171  17.922 -0.1153  1.4066  2.7160
 1295TIP3   OH228079   6.725   3.375  17.096  0.5461 -0.8737  0.6234
 1295TIP3    H128080   6.700   3.330  17.015  1.0086 -1.3837  0.7597
 1295TIP3    H228081   6.802   3.327  17.128 -0.6119 -1.7791  2.2566
 1296TIP3   OH228082   1.554   7.611  18.917  0.1281 -0.0408 -0.6269
 1296TIP3    H128083   1.463   7.631  18.894  0.3094  0.9337 -0.5452
 1296TIP3    H228084   1.593   7.579  18.836 -0.4203 -0.9542 -0.5359
 1297TIP3   OH228085   6.249   4.213  19.313  0.0516  0.4076 -0.1989
 1297TIP3    H128086   6.177   4.215  19.377  1.7465 -0.9449  1.9327
 1297TIP3    H228087   6.220   4.151  19.247 -0.6842 -0.3209  0.7682
 1298TIP3   OH228088   0.010   4.921  19.057  0.3396 -0.4386 -0.1153
 1298TIP3    H128089   0.061   5.002  19.047 -0.6865  0.1512 -0.6986
 1298TIP3    H228090  -0.060   4.944  19.118  0.5127 -1.1267  0.3544
 1299TIP3   OH228091   0.263   2.688  17.479  0.0093 -0.1241  0.6773
 1299TIP3    H128092   0.219   2.683  17.564 -1.0259  1.1398  0.2430
 1299TIP3    H228093   0.194   2.676  17.414  0.5468  0.3863 -0.0097
 1300TIP3   OH228094   4.780   4.995  18.223 -0.7359  0.0604 -0.1819
 1300TIP3    H128095   4.862   5.011  18.177 -1.2698  0.2379 -1.1014
 1300TIP3    H228096   4.746   4.914  18.186 -0.0492 -1.0916  1.5785
 1301TIP3   OH228097   4.697   0.774  19.389 -0.5054 -0.2681 -0.5260
 1301TIP3    H128098   4.649   0.724  19.454  1.3243  1.2650  2.2091
 1301TIP3    H228099   4.784   0.788  19.428  0.0978  2.2799 -2.4805
 1302TIP3   OH228100   6.888   7.092  18.266  0.4464 -0.0052  0.2212
 1302TIP3    H128101   6.887   7.188  18.268 -0.3176  0.0135 -0.2562
 1302TIP3    H228102   6.947   7.070  18.194  0.3574  0.1231  0.1075
 1303TIP3   OH228103   5.291   2.078  18.495  0.3478 -0.2183  0.0836
 1303TIP3    H128104   5.269   2.140  18.565 -1.3151 -1.5303  0.7937
 1303TIP3    H228105   5.265   1.993  18.530  1.3392 -1.1642 -1.3864
 1304TIP3   OH228106   0.082   0.970  17.882  0.3479 -0.6344 -0.3492
 1304TIP3    H128107   0.078   0.899  17.947  1.0014  0.4766  0.9661
 1304TIP3    H228108  -0.003   1.015  17.891  1.0040  0.4380  0.8824
 1305TIP3   OH228109   1.670   4.952  18.313 -0.3500  0.2084 -0.4195
 1305TIP3    H128110   1.754   4.969  18.270 -0.2402 -0.5063 -0.4874
 1305TIP3    H228111   1.608   4.938  18.241 -0.4755  0.4640 -0.3630
 1306TIP3   OH228112   5.295   2.824  17.867  0.3144  0.0163 -0.4995
 1306TIP3    H128113   5.211   2.778  17.862  0.1880  0.3051 -1.0290
 1306TIP3    H228114   5.311   2.856  17.778  0.8290  0.2432 -0.3293
 1307TIP3   OH228115   0.616   2.467  19.080  1.1848  0.6580  0.5459
 1307TIP3    H128116   0.607   2.469  19.175  2.0244 -0.4263  0.6685
 1307TIP3    H228117   0.705   2.497  19.063  1.7845 -1.1013  0.2830
 1308TIP3   OH228118   6.388   2.420  18.451 -0.1388 -0.3347  0.2668
 1308TIP3    H128119   6.373   2.379  18.536 -1.6308 -0.5074 -0.0477
 1308TIP3    H228120   6.471   2.382  18.421 -0.4871 -1.6480  0.8649
 1309TIP3   OH228121   2.068   4.060  18.766 -0.2640  0.4828 -0.1772
 1309TIP3    H128122   2.060   4.153  18.787 -1.2201  0.0344  1.8121
 1309TIP3    H228123   1.977   4.030  18.760  0.0230 -0.1065 -2.0476
 1310TIP3   OH228124   0.938   1.601  18.720 -0.5865  0.2510 -0.1147
 1310TIP3    H128125   0.961   1.595  18.813 -0.3475 -0.4486 -0.2139
 1310TIP3    H228126   1.022   1.591  18.674 -0.3571  2.7037 -0.3908
 1311TIP3   OH228127   1.603   4.578  18.842  0.1415  0.5633  0.2306
 1311TIP3    H128128   1.579   4.620  18.759  0.7082  2.7869  1.1216
 1311TIP3    H228129   1.598   4.648  18.907  0.4326 -0.9451  1.9701
 1312TIP3   OH228130   2.105   6.595  19.403 -0.5850 -0.3975 -0.1621
 1312TIP3    H128131   2.045   6.618  19.473 -2.2485  0.3089 -1.7338
 1312TIP3    H228132   2.161   6.672  19.392 -1.0169 -0.1037 -0.3021
 1313TIP3   OH228133   2.665   3.796  18.287 -0.1855  0.4221  0.4221
 1313TIP3    H128134   2.707   3.798  18.201 -0.2200  1.3432  0.4204
 1313TIP3    H228135   2.585   3.745  18.273 -0.1266  0.4516 -0.0624
 1314TIP3   OH228136   6.109   7.154  16.942  0.1673 -0.1580  0.4914
 1314TIP3    H128137   6.063   7.212  17.003 -0.5115 -0.3063  0.1253
 1314TIP3    H228138   6.171   7.211  16.897 -0.1497  0.1830  0.4840
 1315TIP3   OH228139   3.726   2.453  17.576  0.7905 -0.3468  0.4978
 1315TIP3    H128140   3.661   2.390  17.546  1.4210 -1.1084  0.7183
 1315TIP3    H228141   3.790   2.457  17.505 -0.5935  2.0867 -0.7520
 1316TIP3   OH228142   3.862   0.930  19.387  0.1197 -0.5689 -0.1955
 1316TIP3    H128143   3.911   0.931  19.304 -0.8961  1.5787 -0.8283
 1316TIP3    H228144   3.803   1.005  19.381  0.6470  0.2247  2.8595
 1317TIP3   OH228145   6.421   0.263  18.653  0.6320 -0.3861  0.0774
 1317TIP3    H128146   6.428   0.243  18.559  0.5788  0.0796 -0.0267
 1317TIP3    H228147   6.355   0.201  18.685 -1.1317  1.0309 -0.6656
 1318TIP3   OH228148   2.832   3.151  18.328 -0.2244 -0.5096  0.2435
 1318TIP3    H128149   2.904   3.135  18.389  1.3040 -0.7804 -1.5437
 1318TIP3    H228150   2.781   3.070  18.329  0.5625 -1.0093  0.1465
 1319TIP3   OH228151   0.938   7.430  19.494 -0.4020 -0.0338 -0.1784
 1319TIP3    H128152   0.878   7.393  19.559 -0.2073 -0.0041  0.0221
 1319TIP3    H228153   1.025   7.414  19.531 -0.3272  0.9807  0.1165
 1320TIP3   OH228154   4.300   1.522  16.604 -0.3004 -0.4378  0.3886
 1320TIP3    H128155   4.229   1.566  16.650 -0.1385 -0.2022  0.4098
 1320TIP3    H228156   4.260   1.492  16.522 -0.1469  0.6630 -0.1012
 1321TIP3   OH228157   3.370   1.452  17.316  0.2401 -0.1579  0.3554
 1321TIP3    H128158   3.297   1.495  17.360 -1.7609 -1.3495 -1.6000
 1321TIP3    H228159   3.405   1.519  17.257 -1.2988 -0.4290 -0.9201
 1322TIP3   OH228160   1.007   4.817  16.631 -0.2488  0.0148 -0.2428
 1322TIP3    H128161   0.968   4.900  16.660 -1.2255 -0.5326  0.0718
 1322TIP3    H228162   0.956   4.750  16.677  0.9284 -0.7498 -0.0009
 1323TIP3   OH228163   0.346   7.223  16.456 -0.2829  0.3535 -0.0963
 1323TIP3    H128164   0.430   7.234  16.412 -0.2221 -0.7281 -0.2740
 1323TIP3    H228165   0.343   7.130  16.479 -1.8926  0.1447 -1.0409
 1324TIP3   OH228166   2.781   3.536  19.200 -0.5324 -0.5167 -0.1975
 1324TIP3    H128167   2.819   3.617  19.235  0.3205  0.3372 -2.8098
 1324TIP3    H228168   2.694   3.562  19.170 -0.3628 -0.6144 -0.7890
 1325TIP3   OH228169   5.629   5.942  19.420 -0.6619 -0.2435  0.3238
 1325TIP3    H128170   5.551   5.895  19.450 -0.2310 -0.4811  1.1123
 1325TIP3    H228171   5.633   6.020  19.476 -0.6234  0.0312 -0.0637
 1326TIP3   OH228172   3.098   6.020  18.709 -0.5061  0.0397 -0.2133
 1326TIP3    H128173   3.035   6.007  18.779 -0.1874 -1.1854 -0.1189
 1326TIP3    H228174   3.085   6.110  18.680 -2.0941 -0.1020 -0.0153
 1327TIP3   OH228175   1.314   4.688  19.093 -0.2236  0.1309  0.8040
 1327TIP3    H128176   1.233   4.712  19.138 -2.7049 -0.1068 -3.0101
 1327TIP3    H228177   1.345   4.770  19.055 -0.9645 -0.3476 -0.9324
 1328TIP3   OH228178   2.227   0.067  17.985  0.4856 -0.0910  0.0579
 1328TIP3    H128179   2.132   0.072  17.973  0.6914 -0.1459 -2.0255
 1328TIP3    H228180   2.239   0.024  18.069 -1.3494 -1.8016 -0.4922
 1329TIP3   OH228181   2.613   5.459  18.528  0.0147 -0.2931  0.2728
 1329TIP3    H128182   2.698   5.432  18.492  0.7989 -0.6611  2.2685
 1329TIP3    H228183   2.558   5.475  18.451  1.1339 -2.4401 -1.0723
 1330TIP3   OH228184   0.293   7.221  19.506 -0.2554 -0.9316  0.5878
 1330TIP3    H128185   0.327   7.309  19.492  0.1283 -1.4895 -2.8231
 1330TIP3    H228186   0.199   7.230  19.494 -0.1689 -1.0293 -0.2166
 1331TIP3   OH228187   5.508   2.406  18.566  0.1470 -0.2283  0.0607
 1331TIP3    H128188   5.452   2.455  18.625 -1.5057 -2.5708  0.5523
 1331TIP3    H228189   5.525   2.467  18.494 -0.6200  1.5145  1.2712
 1332TIP3   OH228190   3.289   4.528  18.176  0.1327 -0.0820 -0.0103
 1332TIP3    H128191   3.217   4.489  18.128 -1.5926 -1.0880  3.0807
 1332TIP3    H228192   3.247   4.586  18.240  2.1433  0.4173  0.9472
 1333TIP3   OH228193   4.586   6.015  17.709  0.5052 -0.0812  0.3626
 1333TIP3    H128194   4.639   6.015  17.629 -0.6574  0.3132 -0.4169
 1333TIP3    H228195   4.510   6.068  17.689 -2.1094 -3.5347  0.1839
 1334TIP3   OH228196   1.624   5.645  17.980  0.1705  0.5626 -0.4731
 1334TIP3    H128197   1.569   5.567  17.982 -0.5244  1.0034 -1.6119
 1334TIP3    H228198   1.640   5.665  18.073 -2.3713  0.9470 -0.0404
 1335TIP3   OH228199   2.550   0.494  18.325  0.6956 -0.3617  0.1493
 1335TIP3    H128200   2.552   0.448  18.241 -0.4088 -0.8541  0.3756
 1335TIP3    H228201   2.538   0.586  18.302  0.7483 -0.4469 -0.2332
 1336TIP3   OH228202   2.192   4.187  19.586 -0.4916 -0.0443 -0.1103
 1336TIP3    H128203   2.164   4.224  19.670  0.7526 -1.8031  1.1322
 1336TIP3    H228204   2.266   4.241  19.559  0.2201 -0.5308  0.8299
 1337TIP3   OH228205   2.184   0.785  19.173 -0.4622  0.5955  0.4660
 1337TIP3    H128206   2.257   0.838  19.141  0.1336  0.2338  1.2004
 1337TIP3    H228207   2.119   0.790  19.103  0.8008 -0.1713 -0.8316
 1338TIP3   OH228208   2.249   1.188  18.709 -0.0203 -0.0613 -0.2100
 1338TIP3    H128209   2.248   1.097  18.736 -0.1099  0.3368  1.2307
 1338TIP3    H228210   2.258   1.237  18.791  0.7130  1.1993 -1.0113
 1339TIP3   OH228211   1.904   0.801  17.162  0.2275 -0.7663 -0.0573
 1339TIP3    H128212   1.866   0.725  17.117 -1.4555  0.4679 -0.8286
 1339TIP3    H228213   1.862   0.876  17.121  1.7571  0.6038  0.7801
 1340TIP3   OH228214   5.611   0.087  18.799  0.3862 -0.1081 -0.1084
 1340TIP3    H128215   5.572   0.013  18.752  0.2382 -0.3694  0.4278
 1340TIP3    H228216   5.700   0.059  18.818  1.4098  1.0674 -2.6878
 1341TIP3   OH228217   3.209   6.795  18.502  0.4571 -0.4485  0.1448
 1341TIP3    H128218   3.226   6.726  18.566  0.7721  0.0642  0.6192
 1341TIP3    H228219   3.294   6.837  18.488  0.4592 -0.7646 -0.8638
 1342TIP3   OH228220   6.046   4.241  17.660  0.1911  0.1789 -0.4455
 1342TIP3    H128221   6.092   4.211  17.739 -0.6313 -0.3790 -0.1607
 1342TIP3    H228222   6.059   4.335  17.658  0.4938  0.1527  0.1870
 1343TIP3   OH228223   2.056   2.914  16.869  0.1432 -0.0424  0.3344
 1343TIP3    H128224   2.109   2.836  16.857  0.4175  0.0140  1.0960
 1343TIP3    H228225   2.107   2.984  16.828  0.0697 -0.1973 -0.0246
 1344TIP3   OH228226   2.738   0.050  19.275  0.2963  0.5133 -0.1013
 1344TIP3    H128227   2.773  -0.023  19.224  2.3746 -0.0848  1.9862
 1344TIP3    H228228   2.643   0.045  19.263  0.5148 -1.4815 -1.3689
 1345TIP3   OH228229   0.789   5.457  19.380 -0.1310 -0.8569  0.2980
 1345TIP3    H128230   0.793   5.488  19.471  0.6123 -0.2343  0.0704
 1345TIP3    H228231   0.818   5.532  19.328 -0.2474 -1.3054 -0.4322
 1346TIP3   OH228232   5.550   5.518  17.212  0.1041 -0.3356  0.1596
 1346TIP3    H128233   5.593   5.442  17.252  0.8787 -1.4651 -2.5993
 1346TIP3    H228234   5.532   5.490  17.122  1.1073  3.0126 -1.2143
 1347TIP3   OH228235   7.288   6.544  17.150 -0.0117 -0.0180  0.1954
 1347TIP3    H128236   7.199   6.548  17.114  0.4430 -0.5970 -1.0710
 1347TIP3    H228237   7.277   6.513  17.240 -1.0327 -1.0031 -0.2467
 1348TIP3   OH228238   5.866   6.984  17.980 -0.2573 -0.7213 -0.3829
 1348TIP3    H128239   5.942   7.034  17.951 -1.5362  1.2548 -0.5137
 1348TIP3    H228240   5.902   6.917  18.039  1.4094  1.6368  1.4711
 1349TIP3   OH228241   4.562   5.658  18.560 -0.1529 -0.4986 -0.3350
 1349TIP3    H128242   4.546   5.602  18.636  0.7337  0.1450  0.3523
 1349TIP3    H228243   4.599   5.600  18.494  0.3029 -0.8258  0.1981
 1350TIP3   OH228244   3.287   0.617  17.545  0.0886  0.2293 -0.5871
 1350TIP3    H128245   3.363   0.637  17.601  1.2014 -2.3435 -1.0312
 1350TIP3    H228246   3.322   0.618  17.456 -0.5592 -0.2979 -0.8574
 1351TIP3   OH228247   5.427   6.988  18.604 -0.2687 -0.4803 -0.4485
 1351TIP3    H128248   5.437   6.982  18.699  1.0484  1.2724 -0.4403
 1351TIP3    H228249   5.516   6.986  18.570 -0.6652  0.1193 -1.5669
 1352TIP3   OH228250   5.153   1.517  17.134  0.2364  0.0948  0.1386
 1352TIP3    H128251   5.211   1.454  17.091 -1.6410 -1.0618 -0.8588
 1352TIP3    H228252   5.198   1.539  17.216  1.9808 -0.8405 -0.4973
 1353TIP3   OH228253   4.501   0.995  18.045  0.0358  0.6337  0.3426
 1353TIP3    H128254   4.473   0.903  18.045  0.4972  0.4647  1.9544
 1353TIP3    H228255   4.503   1.019  17.953 -1.1675 -0.6419 -0.0612
 1354TIP3   OH228256   1.752   6.425  18.425 -0.5791 -0.9265 -0.6750
 1354TIP3    H128257   1.740   6.330  18.422 -0.8889 -0.9016 -0.3454
 1354TIP3    H228258   1.678   6.460  18.377 -1.8425 -0.7761  1.2756
 1355TIP3   OH228259   5.678   4.883  19.096  0.2385  0.3896  0.1049
 1355TIP3    H128260   5.649   4.880  19.187  0.6546  2.0721  0.3247
 1355TIP3    H228261   5.773   4.881  19.101  0.2589  0.1424 -0.3143
 1356TIP3   OH228262   7.071   0.781  18.846 -0.4839 -1.0347 -0.1257
 1356TIP3    H128263   7.134   0.721  18.806 -0.8818 -2.9711  1.9266
 1356TIP3    H228264   6.998   0.786  18.785 -0.3257 -2.4859 -0.4596
 1357TIP3   OH228265   5.361   2.032  18.157  0.1429 -0.0528 -0.0498
 1357TIP3    H128266   5.374   1.994  18.244  2.4617 -0.0855 -0.3426
 1357TIP3    H228267   5.275   2.075  18.162 -0.6522 -1.7214  1.6009
 1358TIP3   OH228268   5.149   5.386  17.378 -0.5254  0.0948 -0.0054
 1358TIP3    H128269   5.113   5.315  17.325  1.1533  0.6956 -2.0814
 1358TIP3    H228270   5.232   5.351  17.411 -1.2865 -0.0770  1.8950
 1359TIP3   OH228271   1.059   5.952  18.830 -0.6181 -1.0114  0.0414
 1359TIP3    H128272   1.012   5.989  18.755 -0.3777  1.0101  0.8367
 1359TIP3    H228273   1.048   6.016  18.899  2.7467 -0.7381  0.4863
 1360TIP3   OH228274   2.522   0.662  17.710 -0.6482  0.3480  0.1792
 1360TIP3    H128275   2.500   0.749  17.743 -1.1879  0.3679 -0.2192
 1360TIP3    H228276   2.556   0.677  17.622 -0.0621  0.2155  0.3799
 1361TIP3   OH228277   4.445   2.735  19.064  0.1673 -0.2598 -0.1438
 1361TIP3    H128278   4.429   2.643  19.039 -1.2881 -0.1415  0.2490
 1361TIP3    H228279   4.368   2.759  19.116  1.7676  0.3714  2.0712
 1362TIP3   OH228280   4.127   7.277  18.214  0.4933 -0.1653  0.0744
 1362TIP3    H128281   4.195   7.343  18.201  0.0027  0.3018 -0.2116
 1362TIP3    H228282   4.143   7.212  18.145 -1.4112  1.7263 -2.3822
 1363TIP3   OH228283   6.354   3.705  18.607  0.3828  0.7285  0.1907
 1363TIP3    H128284   6.282   3.679  18.549 -0.6716 -2.1313  2.5536
 1363TIP3    H228285   6.313   3.767  18.668  0.2236  0.1536  0.6851
 1364TIP3   OH228286   1.331   0.239  19.598  0.3210 -0.5874 -0.0935
 1364TIP3    H128287   1.296   0.152  19.575 -0.9811  0.1709 -1.1442
 1364TIP3    H228288   1.256   0.285  19.635  1.1899 -0.1239  1.1609
 1365TIP3   OH228289   6.567   3.268  16.889  0.4702  0.5307  0.3874
 1365TIP3    H128290   6.500   3.209  16.922  1.3532  0.0757  1.4688
 1365TIP3    H228291   6.531   3.305  16.809 -0.5970 -0.5395  0.3589
 1366TIP3   OH228292   4.585   7.566  19.556  0.4618  0.0492 -0.1500
 1366TIP3    H128293   4.586   7.471  19.569  0.2607  0.0981  0.2364
 1366TIP3    H228294   4.673   7.586  19.525  0.3994 -0.3086 -0.5657
 1367TIP3   OH228295   5.476   2.198  16.551 -0.4507 -0.3395  0.2870
 1367TIP3    H128296   5.389   2.179  16.517 -0.6114 -0.7086  0.9074
 1367TIP3    H228297   5.490   2.134  16.620 -1.0583  1.8368  2.5505
 1368TIP3   OH228298   4.037   0.707  18.103  0.1100 -0.8738 -0.1623
 1368TIP3    H128299   4.130   0.706  18.081  0.1442 -1.1165  0.0014
 1368TIP3    H228300   4.034   0.712  18.198 -0.0357  1.1177 -0.2219
 1369TIP3   OH228301   4.159   4.455  18.975 -0.3083 -0.2482  0.2353
 1369TIP3    H128302   4.193   4.542  18.954  1.2623 -0.9460 -0.2860
 1369TIP3    H228303   4.168   4.405  18.894  2.4417 -1.9433  1.4159
 1370TIP3   OH228304   1.798   2.564  16.928  0.1104 -0.6135  0.0282
 1370TIP3    H128305   1.827   2.619  16.855  3.1963 -1.3074  0.5928
 1370TIP3    H228306   1.723   2.611  16.965  1.2228  2.0648 -0.8857
 1371TIP3   OH228307   7.191   2.817  16.917  0.6877 -0.6649 -0.0806
 1371TIP3    H128308   7.266   2.770  16.880 -0.7646 -1.3747 -2.2396
 1371TIP3    H228309   7.116   2.790  16.865 -0.7993  1.4759  0.7934
 1372TIP3   OH228310   2.268   0.695  18.914  0.0872 -0.2434 -0.0817
 1372TIP3    H128311   2.285   0.665  19.003 -2.4713 -1.1059  0.1797
 1372TIP3    H228312   2.254   0.614  18.864 -0.0169  0.2957 -0.9409
 1373TIP3   OH228313   7.366   0.365  19.450  0.1338  0.2442 -0.5082
 1373TIP3    H128314   7.347   0.459  19.458 -0.5319  0.0245  0.8602
 1373TIP3    H228315   7.281   0.322  19.461  0.8869 -0.6551  3.4794
 1374TIP3   OH228316   6.731   0.367  17.111  0.0655  0.6101 -0.4236
 1374TIP3    H128317   6.820   0.354  17.144 -0.1110  1.9231  0.6834
 1374TIP3    H228318   6.742   0.381  17.017  0.8885 -0.4104 -0.4979
 1375TIP3   OH228319   4.081   2.745  18.603  0.3896  0.1054  0.0250
 1375TIP3    H128320   4.123   2.659  18.602  0.2557 -0.0370  2.3165
 1375TIP3    H228321   3.988   2.726  18.592  0.2929 -0.1274  1.1286
 1376TIP3   OH228322   2.303   4.234  17.902 -0.0787  0.5166  0.5379
 1376TIP3    H128323   2.327   4.166  17.838  1.8350 -0.0945  1.7990
 1376TIP3    H228324   2.334   4.315  17.863 -1.5557  0.5833 -0.5710
 1377TIP3   OH228325   0.830   4.011  17.713 -0.0458 -0.2485 -0.3690
 1377TIP3    H128326   0.783   3.976  17.637 -0.2819 -1.3429  0.2499
 1377TIP3    H228327   0.782   4.090  17.736 -0.6916 -0.5476 -0.6523
 1378TIP3   OH228328   3.976   0.576  17.415 -0.0058 -0.0618  0.0408
 1378TIP3    H128329   3.913   0.562  17.344  0.6149  1.1423 -0.7815
 1378TIP3    H228330   4.038   0.504  17.407 -1.3369 -1.3693  0.9729
 1379TIP3   OH228331   5.781   0.053  17.516 -0.1091 -0.1363 -0.1759
 1379TIP3    H128332   5.824   0.011  17.441  0.8174 -0.9763  0.7990
 1379TIP3    H228333   5.732   0.125  17.477  0.6086 -0.3539 -1.5676
 1380TIP3   OH228334   1.633   5.553  17.547  0.1578  0.6743 -0.5112
 1380TIP3    H128335   1.619   5.582  17.457 -1.9280  0.4612 -0.3078
 1380TIP3    H228336   1.664   5.463  17.539  0.9210  0.9780 -1.0266
 1381TIP3   OH228337   6.258   7.620  18.325 -0.7517 -0.2701 -0.1611
 1381TIP3    H128338   6.177   7.669  18.307 -1.4823 -1.2352  0.4378
 1381TIP3    H228339   6.251   7.542  18.269  0.3120  0.1813 -0.9599
 1382TIP3   OH228340   3.216   2.127  19.072  1.1982  0.0634 -0.1338
 1382TIP3    H128341   3.235   2.038  19.102 -1.2403  0.0630  1.6977
 1382TIP3    H228342   3.170   2.168  19.145 -1.4364  1.4362 -2.3820
 1383TIP3   OH228343   5.144   7.296  18.806  0.1868 -0.2847  0.2417
 1383TIP3    H128344   5.171   7.255  18.724  1.6288  1.5802 -0.2827
 1383TIP3    H228345   5.055   7.327  18.790  0.2863 -0.3438 -0.4448
 1384TIP3   OH228346   7.353   5.629  19.057  0.3719  0.0939  0.4447
 1384TIP3    H128347   7.311   5.704  19.099 -0.0798  0.0518  0.0631
 1384TIP3    H228348   7.308   5.618  18.974 -0.0976 -1.0909  0.8261
 1385TIP3   OH228349   0.931   5.855  19.315  0.2553 -0.1714 -0.3700
 1385TIP3    H128350   1.021   5.826  19.295 -0.6833 -3.1380 -0.8196
 1385TIP3    H228351   0.933   5.876  19.408  1.0735 -1.8748  0.0408
 1386TIP3   OH228352   3.646   0.888  17.626 -0.5211  0.2739 -0.2788
 1386TIP3    H128353   3.704   0.885  17.550  0.5272 -0.8115  0.5229
 1386TIP3    H228354   3.704   0.910  17.699 -0.9146 -1.7116  0.6899
 1387TIP3   OH228355   4.021   0.277  17.626  0.2645 -0.7048 -0.0952
 1387TIP3    H128356   3.943   0.255  17.576 -0.1946  0.2831  0.1536
 1387TIP3    H228357   4.001   0.362  17.665  1.8610  0.0527 -0.8449
 1388TIP3   OH228358   6.635   5.348  19.030  0.4766 -0.0458  0.5590
 1388TIP3    H128359   6.724   5.342  18.994  0.4772  0.4769  0.4606
 1388TIP3    H228360   6.609   5.438  19.012 -0.5321 -0.5245 -0.4864
 1389TIP3   OH228361   5.409   6.205  18.227 -0.3077 -0.1855 -0.0014
 1389TIP3    H128362   5.398   6.130  18.285 -1.4001  0.9589  1.3542
 1389TIP3    H228363   5.367   6.179  18.146 -1.1250 -0.8647  0.6211
 1390TIP3   OH228364   6.447   4.305  17.839 -0.2133  0.4857  0.6899
 1390TIP3    H128365   6.531   4.351  17.833  1.5970 -2.4509  1.0725
 1390TIP3    H228366   6.455   4.234  17.776 -2.7321  0.4734  0.3023
 1391TIP3   OH228367   5.520   6.927  17.981  0.3489 -0.4451  0.3244
 1391TIP3    H128368   5.559   6.912  17.895  2.2099  0.2495  1.0025
 1391TIP3    H228369   5.527   7.021  17.995 -0.0683 -0.5281  1.1639
 1392TIP3   OH228370   5.436   0.780  17.408  0.3442 -0.5750  0.3552
 1392TIP3    H128371   5.451   0.751  17.318 -1.3176 -0.9854  0.1718
 1392TIP3    H228372   5.486   0.719  17.462  1.3126 -0.3546 -0.2689
 1393TIP3   OH228373   7.296   1.144  19.279 -0.5081  0.4592  0.5188
 1393TIP3    H128374   7.319   1.217  19.337 -1.8375  0.2873  1.2944
 1393TIP3    H228375   7.259   1.186  19.202 -2.4798  0.6282  1.4947
 1394TIP3   OH228376   0.362   5.283  18.469  0.0998 -0.0120  0.3174
 1394TIP3    H128377   0.284   5.330  18.438  0.1148  1.1442  1.9122
 1394TIP3    H228378   0.435   5.336  18.439  0.1100  1.2373  2.3675
 1395TIP3   OH228379   3.689   1.132  19.245  0.3322  0.1949  0.1251
 1395TIP3    H128380   3.607   1.083  19.235  0.0702  0.5449  0.5245
 1395TIP3    H228381   3.722   1.140  19.155 -0.8076  1.2868 -0.2326
 1396TIP3   OH228382   2.732   7.629  17.975 -0.0076 -0.4242 -0.3072
 1396TIP3    H128383   2.723   7.673  17.890 -2.2076 -0.8782 -0.3721
 1396TIP3    H228384   2.803   7.566  17.962 -0.8058 -1.0148 -2.0758
 1397TIP3   OH228385   3.237   3.724  17.595 -0.0562  0.1364  0.2848
 1397TIP3    H128386   3.187   3.678  17.528  0.2633 -0.5815  0.5238
 1397TIP3    H228387   3.266   3.655  17.655  0.3587  0.6631  0.7022
 1398TIP3   OH228388   4.655   3.449  17.180  0.1135  0.1146  0.5940
 1398TIP3    H128389   4.719   3.386  17.147 -0.6561 -1.0335  1.2282
 1398TIP3    H228390   4.670   3.528  17.128  1.8282 -0.2203  0.5225
 1399TIP3   OH228391   3.574   1.316  16.502  0.3228 -0.4739  0.2122
 1399TIP3    H128392   3.517   1.317  16.579 -1.3391 -0.7367 -0.9518
 1399TIP3    H228393   3.657   1.282  16.534 -0.0729  0.1661  2.0422
 1400TIP3   OH228394   6.750   1.455  18.785 -0.2725 -0.2857  0.6501
 1400TIP3    H128395   6.748   1.483  18.877 -0.6118  0.9030  0.3036
 1400TIP3    H228396   6.660   1.465  18.755 -0.3705 -1.6163  0.4369
 1401TIP3   OH228397   2.783   6.870  19.268 -0.2009 -0.1598  0.2496
 1401TIP3    H128398   2.769   6.836  19.180  1.8976  1.2581 -0.7128
 1401TIP3    H228399   2.876   6.858  19.284 -0.3046  0.7752  1.7726
 1402TIP3   OH228400   4.146   0.204  18.557 -0.4070  0.2548 -0.7072
 1402TIP3    H128401   4.214   0.137  18.550 -0.9682 -0.4340  0.2049
 1402TIP3    H228402   4.189   0.276  18.604 -0.4728 -0.4535  0.4949
 1403TIP3   OH228403   6.189   2.607  19.026 -0.0420 -0.2782 -0.3114
 1403TIP3    H128404   6.098   2.635  19.032  0.0309 -0.1827  0.4448
 1403TIP3    H228405   6.231   2.674  18.972 -0.4543 -0.4239 -0.8186
 1404TIP3   OH228406   1.906   1.306  17.607 -0.5409 -0.3958 -0.1280
 1404TIP3    H128407   1.995   1.342  17.604 -0.7637  0.1616  0.0331
 1404TIP3    H228408   1.879   1.304  17.515 -1.8862  3.2494  0.0284
 1405TIP3   OH228409   4.960   2.960  17.842 -0.3790 -0.4805 -0.5251
 1405TIP3    H128410   4.976   3.009  17.761 -0.5693  1.7788  0.7361
 1405TIP3    H228411   4.867   2.970  17.859  0.0761  1.2701  1.2650
 1406TIP3   OH228412   5.910   2.889  18.289  0.0004 -0.0740  0.2019
 1406TIP3    H128413   5.846   2.942  18.242  0.8582  0.2889 -0.5876
 1406TIP3    H228414   5.995   2.918  18.255  0.5898 -0.5137  1.2568
 1407TIP3   OH228415   3.627   4.392  18.790  0.1511  0.2099  0.2144
 1407TIP3    H128416   3.619   4.478  18.831  0.8339  0.6442 -0.5157
 1407TIP3    H228417   3.711   4.396  18.744  0.1468 -0.8187  0.0991
 1408TIP3   OH228418   2.902   2.910  17.783  0.0757  0.3865  0.0459
 1408TIP3    H128419   2.963   2.860  17.838 -1.5568 -0.3969  1.2164
 1408TIP3    H228420   2.943   2.909  17.696  0.1671 -3.0082 -0.0150
 1409TIP3   OH228421   1.932   3.747  19.220  0.2685 -0.7687  0.5200
 1409TIP3    H128422   1.901   3.663  19.254 -1.3536 -0.4319 -0.0469
 1409TIP3    H228423   1.908   3.746  19.127 -0.4805  0.6077  0.6679
 1410TIP3   OH228424   3.805   5.756  18.656  0.5229  0.1182 -0.4026
 1410TIP3    H128425   3.756   5.690  18.705  0.6791  0.9304  0.8866
 1410TIP3    H228426   3.744   5.829  18.647  0.2737 -0.2496 -2.0189
 1411TIP3   OH228427   7.034   0.466  16.882 -0.1223 -0.3529 -0.2123
 1411TIP3    H128428   7.041   0.478  16.977 -0.6478  2.0377 -0.3977
 1411TIP3    H228429   6.944   0.435  16.868  0.2739 -1.7099  0.1041
 1412TIP3   OH228430   5.568   1.339  18.644 -0.4900 -0.5681 -0.4239
 1412TIP3    H128431   5.601   1.398  18.576  0.2402  0.2204  0.5750
 1412TIP3    H228432   5.621   1.260  18.634  0.9767  0.2500  0.4118
 1413TIP3   OH228433   0.415   1.617  18.725 -0.4100  0.0747  0.6030
 1413TIP3    H128434   0.471   1.662  18.661 -1.0033 -0.4282 -0.2762
 1413TIP3    H228435   0.476   1.587  18.792  0.1849  0.8639  0.4373
 1414TIP3   OH228436   3.483   3.551  19.267  0.1522 -0.3613  0.3518
 1414TIP3    H128437   3.466   3.598  19.186 -0.1628 -0.6463  0.2548
 1414TIP3    H228438   3.564   3.590  19.300 -0.6941  1.0626  0.8631
 1415TIP3   OH228439   7.416   4.995  17.618 -0.0799  0.6310 -0.0179
 1415TIP3    H128440   7.349   5.053  17.655 -0.8284  0.0134 -0.3582
 1415TIP3    H228441   7.497   5.020  17.662 -0.6916  0.8166  1.0421
 1416TIP3   OH228442   5.646   1.270  19.189  0.3966  0.0993 -0.0096
 1416TIP3    H128443   5.556   1.288  19.163 -0.0885 -1.2292  0.6614
 1416TIP3    H228444   5.699   1.311  19.120 -0.6620  1.6549  0.0411
 1417TIP3   OH228445   7.060   3.781  18.535  0.2468  0.4860  0.5232
 1417TIP3    H128446   6.978   3.825  18.556 -0.2294  0.1524 -0.5738
 1417TIP3    H228447   7.047   3.746  18.446  1.9680  1.4007 -0.1414
 1418TIP3   OH228448   4.952   2.658  18.619  0.7249  0.4398  0.7338
 1418TIP3    H128449   5.048   2.660  18.617  0.7563 -0.4619 -0.7565
 1418TIP3    H228450   4.931   2.617  18.702  1.7295 -1.2668  0.2024
 1419TIP3   OH228451   4.389   7.489  16.895 -0.0618  0.3958  0.5201
 1419TIP3    H128452   4.338   7.417  16.857 -0.7872  2.5316 -3.0361
 1419TIP3    H228453   4.458   7.506  16.831  0.5481  2.3356  1.6272
 1420TIP3   OH228454   3.277   4.525  18.611 -0.2561 -0.4145 -0.1485
 1420TIP3    H128455   3.348   4.588  18.614  1.3853 -2.1998  0.1442
 1420TIP3    H228456   3.287   4.473  18.690 -0.5093 -2.1025 -1.1773
 1421TIP3   OH228457   3.746   4.525  19.382 -0.3604  0.0778 -0.2317
 1421TIP3    H128458   3.751   4.461  19.453 -0.9063 -1.3653 -1.4232
 1421TIP3    H228459   3.821   4.504  19.326 -1.0751 -0.1759 -1.1275
 1422TIP3   OH228460   3.374   0.429  19.414 -0.0856  0.3494 -0.1627
 1422TIP3    H128461   3.441   0.397  19.354 -0.5909 -2.1118  0.4567
 1422TIP3    H228462   3.300   0.369  19.402 -0.8815  0.9056  1.5699
 1423TIP3   OH228463   3.394   6.871  17.497 -0.5413 -0.1567  0.1853
 1423TIP3    H128464   3.317   6.925  17.516 -0.4134  0.4815 -1.0506
 1423TIP3    H228465   3.395   6.807  17.568 -1.6676  0.4082  0.7517
 1424TIP3   OH228466   7.071   4.969  17.043 -0.2032 -0.0144 -0.0902
 1424TIP3    H128467   7.097   5.011  17.125  1.0566  1.0032 -0.9694
 1424TIP3    H228468   7.031   5.038  16.991 -0.9074 -0.6270 -0.3912
 1425TIP3   OH228469   2.128   4.387  18.741 -0.0836  0.1261  0.7907
 1425TIP3    H128470   2.079   4.397  18.822 -0.6706 -2.3151  0.8221
 1425TIP3    H228471   2.061   4.380  18.673  0.0305 -3.4883  0.8568
 1426TIP3   OH228472   1.644   7.016  18.914 -0.3916 -0.3003  0.4500
 1426TIP3    H128473   1.553   6.990  18.901 -0.4168 -0.0085  0.0269
 1426TIP3    H228474   1.655   7.094  18.860  0.7872 -1.7094 -1.4645
 1427TIP3   OH228475   3.281   7.562  18.504 -0.0229  0.3194  0.2335
 1427TIP3    H128476   3.269   7.487  18.563  0.5665  0.3801  0.4342
 1427TIP3    H228477   3.232   7.539  18.425  0.8500 -0.6541 -0.0434
 1428TIP3   OH228478   4.252   6.567  19.287 -0.3132 -0.1558  0.1218
 1428TIP3    H128479   4.342   6.536  19.295 -0.3938 -0.1637  1.1502
 1428TIP3    H228480   4.207   6.531  19.364 -0.9239  0.7405  0.1981
 1429TIP3   OH228481   7.241   1.075  18.087  0.2888  0.2907  0.3815
 1429TIP3    H128482   7.189   0.996  18.076  0.6257  0.2258 -1.0770
 1429TIP3    H228483   7.210   1.134  18.018  2.3025  0.1126 -0.7840
 1430TIP3   OH228484   6.547   5.767  18.385 -0.4749 -0.2350 -0.1734
 1430TIP3    H128485   6.495   5.746  18.308 -0.3057 -0.8699 -0.1231
 1430TIP3    H228486   6.626   5.714  18.376  0.9684  1.9442 -1.1012
 1431TIP3   OH228487   0.890   1.147  19.393 -0.1942 -0.1742  0.5986
 1431TIP3    H128488   0.952   1.081  19.362 -0.9747  0.2486 -2.1768
 1431TIP3    H228489   0.843   1.104  19.464  0.4947 -1.9824  0.0227
 1432TIP3   OH228490   1.959   3.031  19.348  0.3855  0.3238  0.5079
 1432TIP3    H128491   1.976   3.123  19.370  0.9546  0.2600  0.3742
 1432TIP3    H228492   2.045   2.989  19.358 -0.0581 -0.3877  1.4938
 1433TIP3   OH228493   5.495   2.826  16.969 -0.1525  0.1055 -0.3753
 1433TIP3    H128494   5.477   2.784  16.885  1.0897 -2.2845  0.4587
 1433TIP3    H228495   5.572   2.881  16.953  1.1911 -1.6979 -0.5115
 1434TIP3   OH228496   5.450   3.603  19.134  0.2804 -0.1440  0.4335
 1434TIP3    H128497   5.449   3.556  19.217  0.7980 -0.8593  0.0511
 1434TIP3    H228498   5.358   3.624  19.117  0.1964  0.2082  1.2863
 1435TIP3   OH228499   4.609   1.605  19.170  0.5759 -0.4809  0.1805
 1435TIP3    H128500   4.551   1.557  19.110  1.8792 -1.4562 -0.3577
 1435TIP3    H228501   4.559   1.614  19.251 -0.3347 -1.2656 -0.2821
 1436TIP3   OH228502   0.100   2.322  17.833 -0.0370  0.0770 -0.1109
 1436TIP3    H128503   0.012   2.316  17.795  0.5080 -2.5830 -1.1972
 1436TIP3    H228504   0.092   2.280  17.919 -0.7880  4.2215  2.1194
 1437TIP3   OH228505   4.236   1.537  18.003 -0.3931 -0.0819 -0.2302
 1437TIP3    H128506   4.191   1.605  17.954 -1.8680 -0.5310  0.4247
 1437TIP3    H228507   4.185   1.529  18.084  1.8150  0.4847  1.2911
 1438TIP3   OH228508   0.421   2.818  19.512  0.4558 -0.1845  0.8523
 1438TIP3    H128509   0.380   2.735  19.488  0.4468 -0.6390  2.3673
 1438TIP3    H228510   0.387   2.880  19.447 -1.0907 -0.9498  0.8713
 1439TIP3   OH228511   2.362   5.889  19.302  0.1621  0.0583 -0.5212
 1439TIP3    H128512   2.450   5.856  19.281 -0.1152 -0.2922 -1.1692
 1439TIP3    H228513   2.378   5.974  19.343  0.8229 -0.1855 -0.2469
 1440TIP3   OH228514   2.759   3.515  16.598 -0.1197 -0.4125 -0.0424
 1440TIP3    H128515   2.790   3.521  16.689 -0.2742  1.3495 -0.0564
 1440TIP3    H228516   2.830   3.554  16.547 -0.4899 -0.4222 -0.5600
 1441TIP3   OH228517   6.665   1.653  19.053  0.2563  0.2953  0.1465
 1441TIP3    H128518   6.618   1.737  19.053  1.1558  0.8453  1.7465
 1441TIP3    H228519   6.745   1.671  19.102  0.3479 -1.5607  0.7352
 1442TIP3   OH228520   0.584   1.257  18.402 -0.1133  0.3059 -0.7647
 1442TIP3    H128521   0.513   1.212  18.356 -1.4489  0.9631  0.5761
 1442TIP3    H228522   0.541   1.304  18.473  1.4726  2.1258 -0.9295
 1443TIP3   OH228523   6.313   0.052  17.786 -0.1892  0.1875  0.2970
 1443TIP3    H128524   6.324   0.105  17.865 -0.7946 -0.2802  0.6998
 1443TIP3    H228525   6.220   0.057  17.767  0.0018  0.5748 -0.5910
 1444TIP3   OH228526   3.181   3.557  18.473  0.5934 -0.3412 -0.3238
 1444TIP3    H128527   3.133   3.587  18.395  0.5631  1.5085  0.3549
 1444TIP3    H228528   3.157   3.620  18.541  3.2599  0.1065  0.3035
 1445TIP3   OH228529   6.662   4.326  19.737  0.2063  0.0165 -0.2558
 1445TIP3    H128530   6.717   4.270  19.792 -1.4813 -1.3419  0.1397
 1445TIP3    H228531   6.722   4.390  19.699  2.2691 -2.2334 -0.9550
 1446TIP3   OH228532   4.608   0.317  16.886  0.0204 -0.5259 -0.1754
 1446TIP3    H128533   4.655   0.399  16.879  1.2766 -1.2549 -0.4971
 1446TIP3    H228534   4.546   0.318  16.812 -0.4899  0.4295  0.2527
 1447TIP3   OH228535   0.976   4.189  19.051  0.1062  0.0819 -0.6380
 1447TIP3    H128536   0.981   4.207  19.144  1.1762 -1.6316 -0.3182
 1447TIP3    H228537   1.061   4.150  19.029 -0.3297 -0.0779 -2.2110
 1448TIP3   OH228538   7.607   7.516  17.153  0.3051  0.3483  0.3269
 1448TIP3    H128539   7.660   7.443  17.183  0.7385  1.0496  1.3253
 1448TIP3    H228540   7.671   7.582  17.125 -0.0804  0.0983 -1.2320
 1449TIP3   OH228541   0.961   4.616  18.251  0.1227  0.0400  0.0053
 1449TIP3    H128542   0.978   4.699  18.296  0.6151  0.2147 -0.4869
 1449TIP3    H228543   0.878   4.586  18.288  0.9036 -0.2442  1.6326
 1450TIP3   OH228544   3.022   0.883  17.163 -0.2967 -0.1606  0.3575
 1450TIP3    H128545   2.982   0.957  17.208  0.9134  0.4467  0.4749
 1450TIP3    H228546   2.949   0.839  17.119 -1.1435  0.6326  0.9441
 1451TIP3   OH228547   2.615   4.888  17.730 -0.1047  0.1592  0.1039
 1451TIP3    H128548   2.561   4.910  17.654  0.1645 -2.1769 -0.8719
 1451TIP3    H228549   2.648   4.800  17.711  2.5409  0.7318  1.5227
 1452TIP3   OH228550   4.016   5.471  19.252 -0.0028  0.0334 -0.1958
 1452TIP3    H128551   4.090   5.529  19.269 -0.4416 -0.1208  2.6093
 1452TIP3    H228552   3.979   5.503  19.169  2.5844  0.6954 -1.2013
 1453TIP3   OH228553   2.263   0.429  17.451 -0.1177 -0.0591 -0.6366
 1453TIP3    H128554   2.237   0.484  17.377 -1.0060 -0.7501 -0.8608
 1453TIP3    H228555   2.289   0.491  17.519  0.4930  0.5924 -1.4445
 1454TIP3   OH228556   4.614   0.238  19.057  0.2110  0.2739 -0.3171
 1454TIP3    H128557   4.538   0.196  19.016  0.3995 -0.8985  0.4986
 1454TIP3    H228558   4.606   0.217  19.150  2.0207 -0.6525 -0.3321
 1455TIP3   OH228559   7.289   0.957  18.346  0.8883  0.2082 -0.2560
 1455TIP3    H128560   7.258   0.996  18.265  0.3798 -1.3941 -0.8797
 1455TIP3    H228561   7.231   0.991  18.414  2.7135  3.3744 -0.1127
 1456TIP3   OH228562   4.378   0.990  16.566  0.0300 -0.1199 -0.4313
 1456TIP3    H128563   4.409   1.024  16.651 -1.6829 -1.3125  0.7293
 1456TIP3    H228564   4.420   0.905  16.558 -0.6244 -0.4627 -0.2658
 1457TIP3   OH228565   3.418   6.585  19.315 -0.3089  0.2755  0.0773
 1457TIP3    H128566   3.391   6.604  19.224 -2.4226  2.2203  0.9920
 1457TIP3    H228567   3.415   6.490  19.322  0.5661  0.0408 -2.0605
 1458TIP3   OH228568   7.549   0.765  18.669 -0.3253  0.1112  0.3899
 1458TIP3    H128569   7.538   0.850  18.627 -0.6330  0.9769  2.1279
 1458TIP3    H228570   7.544   0.702  18.597  0.6942  1.5812 -1.0541
 1459TIP3   OH228571   3.393   0.817  19.088  0.6712  0.4041  0.5466
 1459TIP3    H128572   3.427   0.871  19.018 -0.2163 -0.6024 -0.7072
 1459TIP3    H228573   3.437   0.733  19.077  0.1128  0.0633  0.8198
 1460TIP3   OH228574   1.643   2.077  17.855 -0.7657 -0.1715  0.2820
 1460TIP3    H128575   1.703   2.054  17.926  0.3364  1.1418 -0.1864
 1460TIP3    H228576   1.588   2.146  17.892 -0.1802  0.5255 -0.1240
 1461TIP3   OH228577   2.021   1.410  18.227  0.5365  0.1230 -0.6907
 1461TIP3    H128578   1.951   1.354  18.194  0.2745 -0.6768  1.1124
 1461TIP3    H228579   1.976   1.491  18.253  0.7812  0.8604 -2.4282
 1462TIP3   OH228580   6.419   4.219  18.136  0.3676 -0.1308 -0.6009
 1462TIP3    H128581   6.374   4.156  18.079  0.2475  0.6373 -1.3693
 1462TIP3    H228582   6.494   4.248  18.085  0.1307  0.7435 -0.4596
 1463TIP3   OH228583   7.085   7.158  18.896 -0.3234  0.4487 -0.5943
 1463TIP3    H128584   7.071   7.253  18.900 -2.7089  0.1293  0.4642
 1463TIP3    H228585   7.026   7.128  18.827  0.6846 -0.2537 -1.1734
 1464TIP3   OH228586   3.238   4.968  18.208  0.2981  0.2716  0.3258
 1464TIP3    H128587   3.236   5.036  18.141 -0.5480 -0.5866 -0.5373
 1464TIP3    H228588   3.289   4.897  18.169 -1.7480 -0.9870 -0.1879
 1465TIP3   OH228589   1.843   5.530  17.765 -0.3056  0.2876 -0.1739
 1465TIP3    H128590   1.858   5.586  17.841 -1.1800  0.1402  0.1191
 1465TIP3    H228591   1.773   5.575  17.716 -2.2179 -1.3475  0.9245
 1466TIP3   OH228592   0.191   6.384  19.050  0.2611  0.0282  0.5318
 1466TIP3    H128593   0.265   6.330  19.078  0.2737  0.3215  1.0660
 1466TIP3    H228594   0.157   6.423  19.130  0.4952  1.1219  0.1174
 1467TIP3   OH228595   6.271   1.924  18.949 -0.0155  0.1493  0.4905
 1467TIP3    H128596   6.187   1.920  18.903  0.9904 -0.0923 -1.4465
 1467TIP3    H228597   6.273   2.011  18.989 -0.1303  1.1768 -1.6298
 1468TIP3   OH228598   4.580   1.800  16.800 -0.0751 -0.0697  0.8516
 1468TIP3    H128599   4.531   1.862  16.854  0.9680  1.6409 -0.1054
 1468TIP3    H228600   4.654   1.850  16.766  1.0296 -1.9528  0.3463
 1469TIP3   OH228601   6.996   6.336  17.411  0.1467 -0.2173 -0.0742
 1469TIP3    H128602   6.970   6.325  17.503 -1.8539 -0.6431 -0.6391
 1469TIP3    H228603   7.088   6.309  17.409 -0.4877 -2.8983  1.3217
 1470TIP3   OH228604   1.278   2.919  19.461  0.2195 -0.1606 -0.2249
 1470TIP3    H128605   1.290   2.843  19.518 -0.9470 -0.3226 -0.1803
 1470TIP3    H228606   1.335   2.902  19.386  0.3535 -0.8283  0.0215
 1471TIP3   OH228607   2.149   7.316  19.216  0.1710 -0.4680  0.2856
 1471TIP3    H128608   2.199   7.395  19.234 -0.1237 -0.6971  2.3858
 1471TIP3    H228609   2.153   7.305  19.121  3.0987  0.1561  0.2502
 1472TIP3   OH228610   4.257   6.786  17.912  0.1889 -0.3844  0.2902
 1472TIP3    H128611   4.214   6.793  17.827 -0.8075 -3.4062  0.4280
 1472TIP3    H228612   4.350   6.800  17.894 -0.1532  0.3279 -1.0433
 1473TIP3   OH228613   2.080   3.706  17.653  0.0654 -0.3744  0.2145
 1473TIP3    H128614   2.172   3.719  17.676 -0.2160 -1.1941  1.9944
 1473TIP3    H228615   2.082   3.639  17.585  0.7682 -1.0857  0.9029
 1474TIP3   OH228616   6.011   1.506  19.183  0.5137  0.0137 -0.4943
 1474TIP3    H128617   6.071   1.485  19.112 -1.3627 -1.1944 -1.8202
 1474TIP3    H228618   5.991   1.599  19.172  1.5906  0.2646 -0.4325
 1475TIP3   OH228619   6.851   2.420  17.529 -0.1356  0.8599  0.2289
 1475TIP3    H128620   6.828   2.348  17.587  2.8059  0.1798  0.6880
 1475TIP3    H228621   6.771   2.436  17.479 -1.1661 -2.1703  0.6811
 1476TIP3   OH228622   6.394   3.141  17.935  0.7871 -0.2081  0.0001
 1476TIP3    H128623   6.373   3.228  17.968  0.7528 -0.2060 -0.0267
 1476TIP3    H228624   6.365   3.142  17.844  0.2078 -0.4567  0.1829
 1477TIP3   OH228625   1.164   3.521  17.510  0.0222 -0.1477 -0.3818
 1477TIP3    H128626   1.260   3.520  17.513 -0.0012 -0.1728  0.6427
 1477TIP3    H228627   1.140   3.433  17.483  0.2344 -0.9838  1.9895
 1478TIP3   OH228628   4.797   3.053  16.948 -0.1347  0.6810  0.3969
 1478TIP3    H128629   4.870   3.047  16.886 -0.4311 -0.2464  0.1155
 1478TIP3    H228630   4.720   3.071  16.893 -0.3704  0.0324  0.5003
 1479TIP3   OH228631   1.029   1.691  17.956  0.2622 -0.0323  0.1022
 1479TIP3    H128632   0.982   1.649  18.028 -1.1406 -0.4624 -1.0068
 1479TIP3    H228633   1.075   1.619  17.912 -1.4183 -0.3623 -1.2577
 1480TIP3   OH228634   2.016   1.047  17.406  0.0295  0.1049 -0.3344
 1480TIP3    H128635   2.105   1.044  17.369  0.1912 -2.8977  0.0447
 1480TIP3    H228636   2.028   1.022  17.498 -1.2958 -1.3533 -0.5375
 1481TIP3   OH228637   5.421   2.574  17.115  0.2014 -0.3451  0.0854
 1481TIP3    H128638   5.444   2.509  17.049 -0.6927  0.4783 -1.0724
 1481TIP3    H228639   5.461   2.655  17.083 -2.1022  0.5641 -0.6858
 1482TIP3   OH228640   1.241   4.947  17.634  0.0956  0.5730  0.2316
 1482TIP3    H128641   1.260   4.858  17.665  0.5733  1.1194  1.5895
 1482TIP3    H228642   1.293   4.957  17.555 -0.1202 -0.4292 -0.0454
 1483TIP3   OH228643   2.773   3.764  18.556 -0.2251  0.1746  0.5102
 1483TIP3    H128644   2.746   3.734  18.470  1.4521 -1.7111  0.5663
 1483TIP3    H228645   2.775   3.685  18.610  2.9667  0.5046  1.0811
 1484TIP3   OH228646   2.685   6.464  18.086 -0.1418  0.1317  0.3260
 1484TIP3    H128647   2.728   6.386  18.052 -1.6181 -0.3665 -0.5035
 1484TIP3    H228648   2.689   6.527  18.014 -0.8419  0.0467  0.2022
 1485TIP3   OH228649   0.846   5.765  17.357 -0.0409 -0.0294 -0.6108
 1485TIP3    H128650   0.874   5.711  17.431  2.8933  1.1138 -0.7617
 1485TIP3    H228651   0.770   5.813  17.390  1.0690  0.3186  1.6463
 1486TIP3   OH228652   5.926   4.376  17.131  0.4891 -0.2234 -0.2707
 1486TIP3    H128653   5.834   4.394  17.114  0.7488 -0.4754 -2.1121
 1486TIP3    H228654   5.948   4.430  17.207 -0.9896  0.3489 -0.2370
 1487TIP3   OH228655   6.182   5.092  17.757 -0.3590 -0.2506  0.5029
 1487TIP3    H128656   6.232   5.011  17.742 -0.4900 -0.3771  0.7365
 1487TIP3    H228657   6.248   5.160  17.763 -0.2744 -0.2538 -0.2238
 1488TIP3   OH228658   3.867   6.013  18.463  0.3048 -0.2374  0.0293
 1488TIP3    H128659   3.842   5.935  18.413  0.6704 -0.1946 -0.2254
 1488TIP3    H228660   3.956   5.995  18.493  1.9577  1.5563 -3.2064
 1489TIP3   OH228661   7.592   0.739  17.790  0.4451 -0.5465 -0.1684
 1489TIP3    H128662   7.608   0.829  17.763 -0.8751  0.3448  1.8152
 1489TIP3    H228663   7.680   0.700  17.796  0.9969  0.4361 -1.4728
 1490TIP3   OH228664   3.182   1.326  18.066  0.0080  0.8836 -0.2019
 1490TIP3    H128665   3.109   1.275  18.102  0.6407  0.8190  1.0541
 1490TIP3    H228666   3.158   1.417  18.081 -1.2478  1.0635 -2.6878
 1491TIP3   OH228667   5.636   5.261  19.107 -0.7102 -0.1079 -0.1995
 1491TIP3    H128668   5.684   5.205  19.046  0.6635  1.2214 -0.4049
 1491TIP3    H228669   5.543   5.242  19.090 -0.3944  0.2614 -2.7963
 1492TIP3   OH228670   6.529   4.463  18.281  0.7318  0.4201 -0.2679
 1492TIP3    H128671   6.556   4.377  18.313  0.0065  0.1880 -0.2705
 1492TIP3    H228672   6.450   4.447  18.230  0.3234  1.1468  0.1125
 1493TIP3   OH228673   6.803   1.233  19.003 -0.7454 -0.7367 -0.3422
 1493TIP3    H128674   6.801   1.162  19.067 -0.1672 -1.5386 -1.1893
 1493TIP3    H228675   6.759   1.197  18.926 -0.1672 -0.2945 -0.8864
 1494TIP3   OH228676   4.723   1.910  18.300 -0.2051 -0.4410  0.2741
 1494TIP3    H128677   4.705   1.898  18.394 -2.3440  1.3122  0.1849
 1494TIP3    H228678   4.642   1.948  18.265  1.2060  0.7722 -1.9041
 1495TIP3   OH228679   1.193   5.646  18.298 -0.8174  0.1371 -0.2656
 1495TIP3    H128680   1.100   5.660  18.284 -0.7635  0.3948 -0.3800
 1495TIP3    H228681   1.206   5.659  18.392 -0.8111  0.6307 -0.3328
 1496TIP3   OH228682   4.861   0.103  18.673 -0.1830  1.2126 -0.2204
 1496TIP3    H128683   4.885   0.175  18.731 -0.1862 -0.9665  2.7386
 1496TIP3    H228684   4.943   0.057  18.656 -0.5180  0.4902  0.0588
 1497TIP3   OH228685   5.010   2.825  17.221 -0.3427 -0.1421  0.6489
 1497TIP3    H128686   5.052   2.791  17.300 -0.5622 -1.1946  0.3315
 1497TIP3    H228687   5.046   2.913  17.211  1.8300 -1.0013  0.3652
 1498TIP3   OH228688   1.712   3.529  17.626  0.2872  0.1985  0.1945
 1498TIP3    H128689   1.745   3.576  17.702 -0.2969  0.3497  0.3582
 1498TIP3    H228690   1.788   3.519  17.568  0.3666  1.5716  0.0313
 1499TIP3   OH228691   5.432   6.072  19.197  0.2535 -0.1326 -0.0323
 1499TIP3    H128692   5.481   6.072  19.114  0.5559 -0.4177  0.1433
 1499TIP3    H228693   5.499   6.070  19.265 -0.0039 -0.8361  0.2100
 1500TIP3   OH228694   3.795   5.937  17.348  1.0267 -0.3826  0.3293
 1500TIP3    H128695   3.852   5.946  17.424  1.1073 -1.3337  0.4017
 1500TIP3    H228696   3.846   5.884  17.287  0.2705 -1.1711  0.3548
 1501TIP3   OH228697   6.143   6.882  18.908  0.5323 -0.3505 -0.8523
 1501TIP3    H128698   6.231   6.911  18.932 -0.5146  1.0891  1.5489
 1501TIP3    H228699   6.118   6.820  18.977 -1.0962  0.8439 -0.3263
 1502TIP3   OH228700   0.587   0.350  16.492 -0.3693 -0.0027 -0.3787
 1502TIP3    H128701   0.613   0.441  16.506 -0.3753 -0.2534  1.6454
 1502TIP3    H228702   0.669   0.301  16.489 -0.3967 -0.0576 -0.2656
 1503TIP3   OH228703   0.151   5.732  16.620  0.2875  0.0787 -0.0893
 1503TIP3    H128704   0.092   5.658  16.635  0.2474 -0.2474 -1.6832
 1503TIP3    H228705   0.229   5.693  16.580  0.2516  0.8844 -0.9810
 1504TIP3   OH228706   3.253   1.329  19.410 -0.3989 -0.0965  0.3060
 1504TIP3    H128707   3.251   1.269  19.485  0.4579  0.4771  0.8023
 1504TIP3    H228708   3.277   1.274  19.336 -2.3159 -0.8869  0.2145
 1505TIP3   OH228709   5.232   5.678  18.242 -0.3797 -0.5115  0.7174
 1505TIP3    H128710   5.214   5.585  18.230  0.4149 -0.7610  1.4013
 1505TIP3    H228711   5.274   5.684  18.327 -2.4092  0.7618  1.7219
 1506TIP3   OH228712   6.449   3.731  16.965  0.0012 -0.3363 -0.1815
 1506TIP3    H128713   6.378   3.789  16.939 -0.9849 -0.5556  1.8508
 1506TIP3    H228714   6.506   3.785  17.019  0.4072 -0.6415 -0.2988
 1507TIP3   OH228715   2.413   2.119  18.312 -0.5282  0.3260 -0.2528
 1507TIP3    H128716   2.399   2.120  18.407 -1.5205  0.4769 -0.3859
 1507TIP3    H228717   2.378   2.035  18.284  2.4443 -1.0704 -0.1564
 1508TIP3   OH228718   6.211   2.613  17.816 -0.2266  0.5943  0.5905
 1508TIP3    H128719   6.222   2.692  17.870 -0.1445  1.7571 -1.0533
 1508TIP3    H228720   6.139   2.634  17.757  0.6929 -0.0051 -0.8024
 1509TIP3   OH228721   5.688   5.366  18.118  0.0003 -0.1597 -0.3127
 1509TIP3    H128722   5.672   5.286  18.168 -1.0808  0.8152  0.9834
 1509TIP3    H228723   5.627   5.430  18.155  1.7919  1.6571 -0.3524
 1510TIP3   OH228724   5.052   4.798  17.184 -0.2488  0.0751  0.0263
 1510TIP3    H128725   4.982   4.822  17.123 -0.1499  1.0966  0.2985
 1510TIP3    H228726   5.132   4.823  17.138 -0.1170 -0.1906  0.1127
 1511TIP3   OH228727   6.130   2.930  17.538  0.2733  0.4036  0.0572
 1511TIP3    H128728   6.183   2.961  17.465 -1.5074 -1.7067 -2.2935
 1511TIP3    H228729   6.059   2.994  17.546  0.5538  0.7145  0.0700
 1512TIP3   OH228730   7.590   5.982  19.446  0.2631  0.0666  0.0427
 1512TIP3    H128731   7.620   6.065  19.485 -0.0616 -0.3942  1.3118
 1512TIP3    H228732   7.659   5.919  19.468 -0.1547 -0.3057  0.3036
 1513TIP3   OH228733   6.076   6.528  18.612 -0.0481  0.8404 -0.5584
 1513TIP3    H128734   6.040   6.465  18.549 -1.1487  2.4444 -1.6002
 1513TIP3    H228735   6.171   6.522  18.599 -0.0274 -1.3621  0.1690
 1514TIP3   OH228736   7.206   3.834  18.834  0.1543 -0.1390 -0.3635
 1514TIP3    H128737   7.146   3.826  18.759 -0.6098  1.0722  0.0916
 1514TIP3    H228738   7.253   3.915  18.818  0.6413 -0.3474  0.0179
 1515TIP3   OH228739   1.245   4.505  18.894  0.0012  0.5045  0.0480
 1515TIP3    H128740   1.281   4.561  18.963  1.6008 -2.1744  1.5417
 1515TIP3    H228741   1.317   4.447  18.870 -1.6066 -1.0798 -1.2459
 1516TIP3   OH228742   0.453   0.143  17.801 -0.0023 -0.1580 -0.0537
 1516TIP3    H128743   0.381   0.202  17.779  0.9491  0.5378 -1.4228
 1516TIP3    H228744   0.456   0.081  17.728  0.0979 -0.8715  0.5433
 1517TIP3   OH228745   2.498   3.775  16.493 -0.0133 -0.0475 -0.0830
 1517TIP3    H128746   2.589   3.797  16.472  0.5088 -1.8019  0.2565
 1517TIP3    H228747   2.481   3.820  16.575  0.6964 -0.0799  0.0859
 1518TIP3   OH228748   7.468   6.442  18.854 -0.0097 -0.4320  0.0724
 1518TIP3    H128749   7.458   6.532  18.822  0.1974 -0.2178  0.6061
 1518TIP3    H228750   7.520   6.398  18.786  1.0036  0.1997  0.4152
 1519TIP3   OH228751   2.605   1.893  18.761  0.4549 -0.0601 -0.1560
 1519TIP3    H128752   2.678   1.946  18.728  0.0322 -0.3954 -1.7512
 1519TIP3    H228753   2.646   1.814  18.795  0.8582 -0.2828 -1.1190
 1520TIP3   OH228754   4.957   1.542  17.783  0.4435 -0.2422 -0.4090
 1520TIP3    H128755   4.894   1.612  17.795  1.4593  0.6215  0.0345
 1520TIP3    H228756   4.993   1.556  17.695  0.0202 -0.7559 -0.6753
 1521TIP3   OH228757   3.159   0.229  17.791 -0.2437 -0.2488  0.2580
 1521TIP3    H128758   3.219   0.262  17.723 -1.2051 -1.1926 -1.0799
 1521TIP3    H228759   3.082   0.285  17.784 -0.8082 -1.0696 -0.2185
 1522TIP3   OH228760   5.067   5.103  17.179  0.0741 -0.5761  0.0128
 1522TIP3    H128761   5.139   5.048  17.209 -0.6661 -1.1165  0.8770
 1522TIP3    H228762   5.050   5.074  17.090  1.5221  0.2155 -0.5472
 1523TIP3   OH228763   4.027   3.475  17.089  0.8114 -0.0236 -0.4884
 1523TIP3    H128764   3.962   3.449  17.024 -1.6564  0.6535  1.5696
 1523TIP3    H228765   4.050   3.393  17.133  0.0358 -0.0478 -0.1119
 1524TIP3   OH228766   2.108   4.781  18.468  0.2206  0.0070 -0.7351
 1524TIP3    H128767   2.184   4.773  18.526  1.3445  1.6946 -1.8819
 1524TIP3    H228768   2.112   4.871  18.436 -3.3701  0.8483  0.6422
 1525TIP3   OH228769   1.660   5.631  18.711  0.0052  0.2983  0.9217
 1525TIP3    H128770   1.601   5.587  18.772 -0.6225 -0.8819 -0.4898
 1525TIP3    H228771   1.739   5.578  18.711 -1.4943 -2.2696 -2.3604
 1526TIP3   OH228772   1.916   6.635  19.023  0.0268  0.3879  0.1518
 1526TIP3    H128773   1.959   6.716  18.994  1.1654  0.3277  1.5502
 1526TIP3    H228774   1.853   6.664  19.088 -0.3019  0.2366 -0.0985
 1527TIP3   OH228775   2.508   4.083  17.357 -0.4629  0.0037 -0.0345
 1527TIP3    H128776   2.593   4.112  17.390  0.2689 -0.5674 -1.3807
 1527TIP3    H228777   2.445   4.144  17.397  0.7499  1.6564 -0.5387
 1528TIP3   OH228778   4.856   2.847  17.521 -0.3132 -0.4027 -0.3164
 1528TIP3    H128779   4.803   2.816  17.448 -1.7759 -0.3583  0.6696
 1528TIP3    H228780   4.839   2.784  17.591  2.1040 -1.2128 -0.3735
 1529TIP3   OH228781   4.446   6.105  18.847  0.0030 -0.4670 -0.5120
 1529TIP3    H128782   4.459   6.169  18.777  0.6112 -0.4028 -0.3446
 1529TIP3    H228783   4.449   6.156  18.927 -1.1950 -0.4650 -0.4376
 1530TIP3   OH228784   3.610   2.113  16.380  0.4583 -0.1844 -0.3848
 1530TIP3    H128785   3.528   2.069  16.403 -0.7271  2.0427 -0.0622
 1530TIP3    H228786   3.678   2.059  16.419 -0.9488 -1.3114  0.6095
 1531TIP3   OH228787   2.898   7.173  18.368 -0.0596 -0.2093  0.1551
 1531TIP3    H128788   2.947   7.099  18.331  0.6589  0.0099  0.6289
 1531TIP3    H228789   2.835   7.132  18.427 -1.6359 -0.5985 -1.6943
 1532TIP3   OH228790   6.876   2.462  18.573  0.2945 -0.2176  0.3567
 1532TIP3    H128791   6.889   2.512  18.654  0.5564 -0.2471  0.3348
 1532TIP3    H228792   6.892   2.371  18.597 -0.3266 -0.3124  0.4275
 1533TIP3   OH228793   2.168   6.779  18.208  0.2253  0.0129 -0.0549
 1533TIP3    H128794   2.201   6.738  18.128  0.7868 -0.7768  0.5704
 1533TIP3    H228795   2.134   6.707  18.261  0.1262  0.4906  0.5527
 1534TIP3   OH228796   2.980   3.520  17.707 -0.2180 -0.1923  0.0377
 1534TIP3    H128797   3.049   3.476  17.757  0.4257 -1.2137 -1.6578
 1534TIP3    H228798   3.012   3.520  17.617 -2.5408 -0.9961 -0.8691
 1535TIP3   OH228799   4.687   0.761  18.657  0.1476 -0.0243 -0.3815
 1535TIP3    H128800   4.744   0.684  18.650 -1.4573 -1.1508 -1.6075
 1535TIP3    H228801   4.687   0.799  18.569 -0.6450  0.2429 -0.2709
 1536TIP3   OH228802   0.081   7.358  16.832 -0.3809 -0.1223 -0.0088
 1536TIP3    H128803   0.045   7.425  16.773  0.1260 -0.3442 -0.5769
 1536TIP3    H228804   0.156   7.400  16.874  0.2606 -0.5063 -0.7660
 1537TIP3   OH228805   7.163   1.402  17.688  0.5198 -0.3405  0.1151
 1537TIP3    H128806   7.123   1.487  17.704 -1.3822 -1.1299 -0.0967
 1537TIP3    H228807   7.245   1.421  17.643 -0.1026  1.3540 -0.3679
 1538TIP3   OH228808   4.141   1.588  19.401  0.5212 -0.0046  0.1424
 1538TIP3    H128809   4.133   1.522  19.470 -1.7417 -0.9142 -0.9141
 1538TIP3    H228810   4.086   1.661  19.432  0.1962 -0.0633 -0.2893
 1539TIP3   OH228811   3.575   2.524  17.210  0.4320  0.4828  0.0786
 1539TIP3    H128812   3.576   2.537  17.115 -0.3993 -0.4498 -0.0665
 1539TIP3    H228813   3.565   2.613  17.245  2.1429  1.0039 -0.6322
 1540TIP3   OH228814   4.669   7.186  18.557 -0.4997  0.4131 -0.1450
 1540TIP3    H128815   4.604   7.234  18.506 -1.1188  0.9467  1.1115
 1540TIP3    H228816   4.658   7.095  18.530 -2.0147  0.4439  0.2928
 1541TIP3   OH228817   3.934   0.505  17.770  0.0676 -0.5824  0.1553
 1541TIP3    H128818   3.896   0.512  17.857  0.4930 -1.1277  0.3905
 1541TIP3    H228819   3.967   0.593  17.750  1.1513 -0.7493  1.1005
 1542TIP3   OH228820   6.194   3.338  17.498  0.2550  0.4701 -0.6171
 1542TIP3    H128821   6.265   3.403  17.502  0.1769  0.5273 -0.1295
 1542TIP3    H228822   6.115   3.389  17.510  0.2721  0.1238  1.1546
 1543TIP3   OH228823   5.329   7.055  17.750 -0.4583  0.4356  0.3248
 1543TIP3    H128824   5.395   7.094  17.691 -0.8011 -2.4182 -2.1858
 1543TIP3    H228825   5.377   7.039  17.831  1.6739 -0.3689 -0.9958
 1544TIP3   OH228826   5.324   2.538  18.718 -0.0653  0.1819  0.0955
 1544TIP3    H128827   5.309   2.585  18.800 -0.5155 -1.6707  1.1344
 1544TIP3    H228828   5.289   2.596  18.651 -0.5486  1.3355  1.2910
 1545TIP3   OH228829   2.003   7.132  18.860 -0.4551 -0.1396 -0.0066
 1545TIP3    H128830   2.065   7.202  18.876 -1.3734  0.7717 -0.3317
 1545TIP3    H228831   1.953   7.124  18.941 -0.0014 -0.8050  0.2201
 1546TIP3   OH228832   3.035   3.445  18.011  0.3730 -0.1649  0.4075
 1546TIP3    H128833   2.946   3.421  17.985 -0.2823  1.5578  0.8687
 1546TIP3    H228834   3.041   3.418  18.103 -0.4470  1.4792  1.0000
 1547TIP3   OH228835   0.820   1.856  19.297 -0.7184  0.1291 -0.1263
 1547TIP3    H128836   0.805   1.770  19.257 -2.4465 -0.0979  0.9016
 1547TIP3    H228837   0.732   1.889  19.314 -0.0756  0.6841  2.4831
 1548TIP3   OH228838   5.484   2.681  19.062 -0.5379  0.0985 -0.0528
 1548TIP3    H128839   5.511   2.773  19.061 -0.0839 -0.0159 -1.9406
 1548TIP3    H228840   5.565   2.631  19.066 -0.6441 -0.2106 -1.2318
 1549TIP3   OH228841   5.040   4.441  19.042 -0.1617 -0.3026  0.1340
 1549TIP3    H128842   5.085   4.456  19.126  1.4653 -0.4168 -0.6716
 1549TIP3    H228843   4.983   4.517  19.032  2.1109  1.4893 -0.1804
 1550TIP3   OH228844   2.251   1.475  16.767  0.2140 -0.2469  0.4727
 1550TIP3    H128845   2.333   1.467  16.816  1.2097 -1.6594 -1.3308
 1550TIP3    H228846   2.270   1.540  16.700 -0.5058  0.1921  0.6799
 1551TIP3   OH228847   5.192   6.619  18.254  0.0937  0.0022  0.2031
 1551TIP3    H128848   5.231   6.704  18.276 -0.1809 -0.3753  2.3484
 1551TIP3    H228849   5.266   6.558  18.256  0.1894  0.0714 -0.7416
 1552TIP3   OH228850   1.252   5.263  18.506  0.7706 -0.1753  0.5545
 1552TIP3    H128851   1.163   5.286  18.479 -0.0768 -2.4013  1.2063
 1552TIP3    H228852   1.246   5.248  18.600  0.9771 -3.4649  0.1873
 1553TIP3   OH228853   6.995   2.587  17.678  0.0671  0.3078 -0.1806
 1553TIP3    H128854   6.989   2.528  17.754 -1.0658  0.9130  0.2115
 1553TIP3    H228855   6.948   2.541  17.609 -2.2181  1.3579  0.5546
 1554TIP3   OH228856   7.396   7.238  16.871  0.7949  0.5276 -0.2392
 1554TIP3    H128857   7.338   7.179  16.821 -0.0336 -0.7807  2.1127
 1554TIP3    H228858   7.364   7.326  16.850 -3.2826 -0.1360  2.1320
 1555TIP3   OH228859   6.229   7.097  17.280 -0.2488 -0.3387  0.0456
 1555TIP3    H128860   6.176   7.159  17.329 -0.6023  0.0344 -0.7861
 1555TIP3    H228861   6.168   7.028  17.254 -0.6329  0.6706 -1.9095
 1556TIP3   OH228862   3.081   1.090  18.839  0.3372  0.0996 -0.3768
 1556TIP3    H128863   3.093   1.009  18.890  0.2748 -0.9146 -1.8960
 1556TIP3    H228864   3.144   1.082  18.767 -0.4794  0.8551 -1.1968
 1557TIP3   OH228865   5.499   6.557  19.033  0.2626  0.1328 -0.4139
 1557TIP3    H128866   5.562   6.486  19.025 -1.0184 -1.0212 -0.7041
 1557TIP3    H228867   5.541   6.633  18.992  3.5439  0.9368  3.7543
 1558TIP3   OH228868   4.140   2.796  17.449 -0.0230  0.4818  0.3439
 1558TIP3    H128869   4.147   2.794  17.353 -1.9609 -1.2149  0.1569
 1558TIP3    H228870   4.048   2.776  17.466  0.2700  0.7914  2.5880
 1559TIP3   OH228871   6.119   0.858  18.490  0.0267 -0.2994  0.6508
 1559TIP3    H128872   6.203   0.885  18.454 -0.5121  2.0640  0.9668
 1559TIP3    H228873   6.118   0.763  18.482  2.3193 -0.3053 -0.2039
 1560TIP3   OH228874   5.778   7.136  18.596 -0.1085  0.2058 -0.2042
 1560TIP3    H128875   5.842   7.091  18.651 -0.8675 -1.7161 -0.8284
 1560TIP3    H228876   5.704   7.155  18.654  0.2291  0.7194  0.0699
 1561TIP3   OH228877   2.026   6.855  18.871  0.3887  0.1545  0.0300
 1561TIP3    H128878   2.040   6.834  18.779 -1.6781 -0.7337 -0.1306
 1561TIP3    H228879   2.012   6.949  18.872 -0.2851  0.0738 -0.6815
 1562TIP3   OH228880   4.651   6.661  17.289  0.0392  0.2990 -0.4516
 1562TIP3    H128881   4.602   6.725  17.340 -1.3859 -2.3093  1.7461
 1562TIP3    H228882   4.625   6.679  17.198 -1.1505  2.0921  0.1804
 1563TIP3   OH228883   4.631   0.845  18.389  0.1768 -0.2481 -0.1557
 1563TIP3    H128884   4.590   0.905  18.327 -0.4986 -0.0277  0.4960
 1563TIP3    H228885   4.559   0.808  18.439  0.7156 -0.3326  0.5859
 1564TIP3   OH228886   5.290   0.981  17.505 -0.0854 -0.1365  0.0703
 1564TIP3    H128887   5.296   1.038  17.429  1.9402 -0.5021 -0.1195
 1564TIP3    H228888   5.319   0.895  17.473 -1.7996 -0.9785  0.6564
 1565TIP3   OH228889   7.152   1.713  19.011 -0.5034  0.0404  0.2990
 1565TIP3    H128890   7.080   1.703  18.948 -0.2615  1.9530 -0.3471
 1565TIP3    H228891   7.230   1.685  18.963 -0.8467 -2.9750  1.3083
 1566TIP3   OH228892   7.645   7.509  18.039  0.0559  0.0535  0.3608
 1566TIP3    H128893   7.652   7.604  18.039  0.3404  0.0777  2.7149
 1566TIP3    H228894   7.735   7.478  18.027 -0.0845  0.0249 -0.8263
 1567TIP3   OH228895   4.932   5.333  19.189 -0.5774  0.4488  0.0683
 1567TIP3    H128896   4.838   5.344  19.206 -1.6941 -1.4746 -3.6605
 1567TIP3    H228897   4.954   5.251  19.234 -0.2935  1.5161  1.9590
 1568TIP3   OH228898   4.445   4.693  17.550 -0.2427 -0.3444 -0.0530
 1568TIP3    H128899   4.513   4.634  17.519 -0.0841 -0.2435  0.0994
 1568TIP3    H228900   4.372   4.680  17.490 -0.7652 -1.7863  0.8338
 1569TIP3   OH228901   5.528   0.050  18.314 -0.3524  0.2491  0.2213
 1569TIP3    H128902   5.569   0.038  18.228  0.3047  1.7858  0.2971
 1569TIP3    H228903   5.596   0.023  18.377 -0.0404  1.1806  0.3006
 1570TIP3   OH228904   0.353   6.374  18.777 -0.0935 -0.2440 -0.3399
 1570TIP3    H128905   0.365   6.403  18.868  0.6823  2.6499 -1.2645
 1570TIP3    H228906   0.258   6.380  18.763  0.0235  2.1536 -0.5007
 1571TIP3   OH228907   0.988   7.240  19.008  0.2327  0.4689 -0.0817
 1571TIP3    H128908   0.974   7.286  19.090  1.5433  1.2355 -0.2540
 1571TIP3    H228909   0.941   7.291  18.943  0.6745  0.8862 -0.0786
 1572TIP3   OH228910   4.079   1.743  17.236 -0.3446  0.1290  0.3895
 1572TIP3    H128911   4.095   1.701  17.152 -0.2832  0.4887  0.2184
 1572TIP3    H228912   4.120   1.829  17.228  0.1638 -0.0530  0.9993
 1573TIP3   OH228913   1.839   2.930  18.860 -0.4997  0.1165 -0.4710
 1573TIP3    H128914   1.761   2.916  18.915  0.1848 -1.6486  0.1526
 1573TIP3    H228915   1.909   2.950  18.923  0.3255 -2.0635 -0.5817
 1574TIP3   OH228916   3.602   4.893  17.093  0.2144 -0.6144  0.5888
 1574TIP3    H128917   3.523   4.882  17.041  0.8934  0.1900 -0.6576
 1574TIP3    H228918   3.635   4.804  17.105  0.7980 -0.7416 -1.5904
 1575TIP3   OH228919   6.988   4.734  18.181  0.9391 -0.0404  0.3725
 1575TIP3    H128920   6.912   4.698  18.226 -1.8121  0.4088 -3.3848
 1575TIP3    H228921   7.020   4.662  18.126  2.1588  0.2805  0.6381
 1576TIP3   OH228922   7.524   5.315  17.825  0.5173 -0.0651 -0.5623
 1576TIP3    H128923   7.523   5.395  17.773 -0.9279 -0.2987 -0.9392
 1576TIP3    H228924   7.584   5.257  17.778 -1.6439 -0.7119 -2.7337
 1577TIP3   OH228925   0.467   2.899  17.483  0.3358  0.4098  0.4639
 1577TIP3    H128926   0.399   2.951  17.526  0.5817  1.1446 -0.0302
 1577TIP3    H228927   0.428   2.811  17.476 -0.2507  0.6243  0.8996
 1578TIP3   OH228928   3.809   0.388  18.991  0.1711 -0.2442 -0.3607
 1578TIP3    H128929   3.892   0.349  18.962 -0.8197 -2.4054 -0.4736
 1578TIP3    H228930   3.741   0.337  18.946 -1.2543  0.9786  0.3097
 1579TIP3   OH228931   4.157   1.507  18.504 -0.9431  0.1481  0.3676
 1579TIP3    H128932   4.073   1.508  18.551 -2.5441 -0.5850 -2.2443
 1579TIP3    H228933   4.132   1.505  18.411  1.8896 -2.6837 -0.5276
 1580TIP3   OH228934   4.449   0.096  17.701  0.0502 -0.8608  0.6581
 1580TIP3    H128935   4.461   0.002  17.718 -0.6611 -0.7493  1.8740
 1580TIP3    H228936   4.371   0.120  17.750 -0.8746 -0.0008 -1.1300
 1581TIP3   OH228937   0.686   4.033  16.812  0.4897  0.6999 -0.3040
 1581TIP3    H128938   0.609   4.070  16.769  1.0538  1.0133 -1.0669
 1581TIP3    H228939   0.665   3.941  16.824 -0.2002  0.8831 -0.0531
 1582TIP3   OH228940   3.442   6.660  19.814  0.6154 -0.2692 -0.0022
 1582TIP3    H128941   3.346   6.656  19.813  0.6149 -0.9540  1.1364
 1582TIP3    H228942   3.463   6.749  19.785 -0.3153 -0.4671 -1.3880
 1583TIP3   OH228943   2.270   4.153  18.171 -0.2917 -0.0520  0.1594
 1583TIP3    H128944   2.268   4.197  18.087 -0.8528 -1.5359 -0.6355
 1583TIP3    H228945   2.360   4.121  18.180  0.1545  1.3115  0.8032
 1584TIP3   OH228946   3.636   3.553  17.474 -0.1136 -0.2315  0.4969
 1584TIP3    H128947   3.620   3.604  17.553  1.5392 -0.1840  0.8410
 1584TIP3    H228948   3.554   3.557  17.426 -0.5843  1.2644  1.3568
 1585TIP3   OH228949   3.743   3.622  19.207 -0.1493 -0.0653  0.4679
 1585TIP3    H128950   3.826   3.659  19.237 -0.4914 -1.1560  2.9731
 1585TIP3    H228951   3.714   3.682  19.138  3.9867 -1.0892 -2.6123
 1586TIP3   OH228952   0.877   6.641  16.978  0.2474  0.1855  0.7172
 1586TIP3    H128953   0.883   6.725  16.932  0.6634  0.5300  1.3770
 1586TIP3    H228954   0.933   6.582  16.928 -1.6734 -0.3032 -0.9786
 1587TIP3   OH228955   0.701   0.739  17.219  0.0777  0.0444 -0.7269
 1587TIP3    H128956   0.644   0.733  17.142  0.2658  0.8590 -0.9465
 1587TIP3    H228957   0.784   0.771  17.185  0.4678 -0.5168 -0.3137
 1588TIP3   OH228958   5.571   3.914  19.224 -0.2035  0.4541 -0.1378
 1588TIP3    H128959   5.569   3.818  19.224 -2.1344  0.4373  0.1833
 1588TIP3    H228960   5.555   3.938  19.133  0.1763  0.4648 -0.2003
 1589TIP3   OH228961   6.078   7.308  17.760  0.1710 -0.0194 -0.6391
 1589TIP3    H128962   6.084   7.374  17.830  0.1673 -0.8902  0.2008
 1589TIP3    H228963   5.998   7.331  17.713  0.9132  1.4308 -1.2791
 1590TIP3   OH228964   0.848   0.768  18.382  0.4670  0.1018 -0.9984
 1590TIP3    H128965   0.813   0.857  18.381  0.1893 -0.0138 -1.9041
 1590TIP3    H228966   0.891   0.758  18.297  2.6867  0.2209  0.0416
 1591TIP3   OH228967   4.424   4.999  16.981 -0.4857 -0.0490  0.2711
 1591TIP3    H128968   4.513   4.988  17.014 -0.4664  0.7686  0.5118
 1591TIP3    H228969   4.414   5.093  16.970 -1.4568 -0.0963  0.6172
 1592TIP3   OH228970   2.214   4.480  18.096  0.5233 -0.1105  0.1319
 1592TIP3    H128971   2.153   4.550  18.073  1.8458  1.2332  0.6081
 1592TIP3    H228972   2.229   4.434  18.013  0.1525  0.5758 -0.3250
 1593TIP3   OH228973   5.838   4.905  19.535 -0.0305  0.2218  0.4240
 1593TIP3    H128974   5.920   4.870  19.569 -1.1711 -1.8189  1.2623
 1593TIP3    H228975   5.865   4.967  19.467  2.2218  1.5208  2.3438
 1594TIP3   OH228976   0.949   1.399  19.303  0.4412 -0.1698  0.5809
 1594TIP3    H128977   1.037   1.416  19.337  0.8035  0.0082 -0.4078
 1594TIP3    H228978   0.942   1.304  19.302  0.8985 -0.2042  0.0094
 1595TIP3   OH228979   7.209   6.603  17.962  0.5232  0.2181 -0.2898
 1595TIP3    H128980   7.133   6.552  17.934  1.2664 -0.6211 -0.8147
 1595TIP3    H228981   7.174   6.691  17.978 -0.0874  0.5770 -3.1361
 1596TIP3   OH228982   3.696   6.116  19.615  0.2887  0.3186 -0.1795
 1596TIP3    H128983   3.737   6.075  19.539 -1.3258 -0.7781 -0.5036
 1596TIP3    H228984   3.638   6.182  19.577 -0.1100  0.1478  0.1392
 1597TIP3   OH228985   2.573   4.371  17.610  0.0499  0.1223  0.0801
 1597TIP3    H128986   2.483   4.369  17.578 -0.4805 -2.2040  1.5043
 1597TIP3    H228987   2.601   4.280  17.610  0.7766  0.1575  3.7951
 1598TIP3   OH228988   3.423   1.663  18.144  1.5431  0.1326 -0.5148
 1598TIP3    H128989   3.427   1.631  18.053 -0.4697  0.4631 -0.7617
 1598TIP3    H228990   3.386   1.590  18.193  0.3500  0.7751 -0.4221
 1599TIP3   OH228991   3.136   2.929  17.145 -0.2756 -0.0097 -0.5967
 1599TIP3    H128992   3.076   3.003  17.145 -0.5713 -0.2193  1.1157
 1599TIP3    H228993   3.135   2.897  17.054  1.2060  3.0867 -1.8362
 1600TIP3   OH228994   5.380   7.501  19.334  0.7237  0.1528 -0.1151
 1600TIP3    H128995   5.350   7.444  19.263 -0.6927 -0.4143  0.8771
 1600TIP3    H228996   5.413   7.579  19.290 -2.5674  0.9898 -1.3961
 1601TIP3   OH228997   6.778   5.157  19.260 -0.1288  0.1681  0.8348
 1601TIP3    H128998   6.808   5.087  19.201  0.3460  0.4339  0.7558
 1601TIP3    H228999   6.685   5.166  19.240 -0.0444  0.0297  0.3535
 1602TIP3   OH229000   0.389   7.117  18.209 -0.2443  0.5629  0.0126
 1602TIP3    H129001   0.344   7.119  18.293  2.1029 -1.8720  1.4991
 1602TIP3    H229002   0.327   7.078  18.148 -0.7984 -1.0243  1.5304
 1603TIP3   OH229003   0.281   7.623  19.031  0.4138  0.2091  0.0182
 1603TIP3    H129004   0.228   7.615  18.952 -0.1102  0.6577  0.3120
 1603TIP3    H229005   0.372   7.616  19.000  0.2107  0.2786 -0.6082
 1604TIP3   OH229006   5.944   0.406  19.179  0.0832 -0.4038  0.0428
 1604TIP3    H129007   5.854   0.437  19.191 -0.3346 -0.4113 -2.3957
 1604TIP3    H229008   5.956   0.338  19.245 -1.9649 -0.9004 -0.0320
 1605TIP3   OH229009   0.876   0.592  17.706  0.3408  0.2643 -0.6814
 1605TIP3    H129010   0.834   0.623  17.626  1.6466  1.7946 -0.8189
 1605TIP3    H229011   0.821   0.519  17.735 -1.1483  0.8040 -2.0013
 1606TIP3   OH229012   3.930   7.638  19.319  0.0848 -0.7941 -0.3189
 1606TIP3    H129013   4.003   7.595  19.364  0.8295 -0.1574 -0.9099
 1606TIP3    H229014   3.888   7.568  19.268 -0.1572 -1.3067  0.5522
 1607TIP3   OH229015   6.510   7.537  19.190 -0.2680 -0.3055  0.4088
 1607TIP3    H129016   6.549   7.475  19.253 -0.8876  0.0119  1.1257
 1607TIP3    H229017   6.474   7.606  19.245  1.8463  1.5884 -0.4394
 1608TIP3   OH229018   5.866   6.257  19.157 -0.3491 -0.0476  0.2944
 1608TIP3    H129019   5.860   6.179  19.102  1.9731  0.3685 -0.6398
 1608TIP3    H229020   5.920   6.229  19.231  1.3705  0.9185 -0.5683
 1609TIP3   OH229021   0.845   4.634  16.779  0.0727 -0.5886  0.1811
 1609TIP3    H129022   0.814   4.562  16.725 -2.3478  0.2911  0.3071
 1609TIP3    H229023   0.771   4.657  16.834  0.6213  2.2320 -0.0999
 1610TIP3   OH229024   7.676   0.749  19.197 -0.0436 -0.1120 -0.1520
 1610TIP3    H129025   7.728   0.679  19.159 -1.8551 -0.5169 -2.0743
 1610TIP3    H229026   7.586   0.717  19.194 -0.5545  0.7881  2.5107
 1611TIP3   OH229027   7.034   3.015  18.015  0.0234 -0.4139  0.0829
 1611TIP3    H129028   7.040   2.930  17.973 -0.1045  0.0292 -0.8516
 1611TIP3    H229029   7.076   3.003  18.100  2.2171 -0.7860 -0.9959
 1612TIP3   OH229030   3.525   1.999  19.113  0.0069 -0.3526  0.5602
 1612TIP3    H129031   3.513   2.069  19.049 -1.9548 -1.0079  0.1520
 1612TIP3    H229032   3.620   1.998  19.129  0.2696  1.3374 -0.5890
 1613TIP3   OH229033   1.917   2.437  19.387 -0.3377 -0.7251 -0.1040
 1613TIP3    H129034   1.996   2.407  19.431 -1.7855 -1.8281  1.9089
 1613TIP3    H229035   1.918   2.392  19.303  2.1577  0.9057 -1.0730
 1614TIP3   OH229036   1.856   7.568  16.963 -0.7244 -0.3581 -0.2453
 1614TIP3    H129037   1.921   7.545  16.897 -0.6217 -2.3712  0.4769
 1614TIP3    H229038   1.906   7.576  17.045 -0.9033  1.7493 -0.2794
 1615TIP3   OH229039   1.080   0.170  19.065 -0.3546  0.0640  0.4829
 1615TIP3    H129040   1.174   0.157  19.077 -0.1377  2.0452  1.3322
 1615TIP3    H229041   1.073   0.245  19.007 -1.4181  0.1957  0.7529
 1616TIP3   OH229042   4.758   5.235  19.520  0.4969 -0.2522 -0.0117
 1616TIP3    H129043   4.843   5.194  19.506  1.1206  0.4138  1.6228
 1616TIP3    H229044   4.696   5.161  19.522  0.7923 -0.6621 -2.3752
 1617TIP3   OH229045   5.558   3.336  18.536 -0.0346 -0.1663 -0.1414
 1617TIP3    H129046   5.609   3.405  18.580  1.5315 -1.1970 -0.2714
 1617TIP3    H229047   5.480   3.326  18.590 -0.0750  1.3736  0.1381
 1618TIP3   OH229048   2.988   4.729  17.211  0.4054  0.1850 -0.3734
 1618TIP3    H129049   2.940   4.648  17.193 -0.2338  0.2177  1.0627
 1618TIP3    H229050   2.998   4.771  17.125 -0.1886 -0.8942 -0.9893
 1619TIP3   OH229051   2.162   5.988  16.859  0.2121  0.6047 -0.2455
 1619TIP3    H129052   2.114   6.056  16.908  1.8944  0.8839  1.1137
 1619TIP3    H229053   2.189   6.032  16.778 -0.4337  0.9275 -0.2960
 1620TIP3   OH229054   1.969   5.780  17.393  0.0895 -0.1686  0.3706
 1620TIP3    H129055   1.947   5.822  17.476  0.1874  0.2825  0.1683
 1620TIP3    H229056   2.049   5.731  17.411 -0.5274 -1.0366  0.8525
 1621TIP3   OH229057   1.890   6.343  17.485 -0.3665  0.6377  0.5009
 1621TIP3    H129058   1.871   6.261  17.439  0.0111 -0.1014  1.6425
 1621TIP3    H229059   1.949   6.319  17.556 -0.4640  1.8559  1.0291
 1622TIP3   OH229060   4.265   6.509  17.257  1.1585  0.4759  0.1517
 1622TIP3    H129061   4.268   6.463  17.341  0.2364  0.3920  0.1590
 1622TIP3    H229062   4.337   6.472  17.207  1.0508 -0.2723  0.5188
 1623TIP3   OH229063   4.245   0.450  19.004  0.8383  0.0553  0.6192
 1623TIP3    H129064   4.285   0.473  19.088  2.2725 -0.5169  0.1277
 1623TIP3    H229065   4.278   0.516  18.943 -3.0022  2.7182  1.0631
 1624TIP3   OH229066   0.388   5.856  16.801 -0.1276  0.0128  0.4361
 1624TIP3    H129067   0.431   5.889  16.880 -1.2067  0.2875  0.9281
 1624TIP3    H229068   0.376   5.934  16.747  1.8415 -0.3652 -0.6509
 1625TIP3   OH229069   0.699   6.230  17.875  0.2706 -0.6605 -0.2380
 1625TIP3    H129070   0.627   6.287  17.902 -0.0210 -0.4891 -1.3133
 1625TIP3    H229071   0.712   6.171  17.949 -0.9245 -0.6408  0.0195
 1626TIP3   OH229072   6.470   0.794  19.073  0.2508 -0.0962  0.1502
 1626TIP3    H129073   6.427   0.851  19.137  1.6190  1.4144 -0.2090
 1626TIP3    H229074   6.440   0.826  18.988 -1.8943 -2.3696 -0.0515
 1627TIP3   OH229075   5.022   1.672  18.922 -0.0791 -0.2954 -0.1867
 1627TIP3    H129076   4.930   1.699  18.923 -0.2627 -0.9034  0.0094
 1627TIP3    H229077   5.065   1.734  18.864 -0.6268 -0.0315 -0.3130
 1628TIP3   OH229078   6.506   5.046  19.810 -0.7201 -0.4417 -0.3499
 1628TIP3    H129079   6.457   5.105  19.753 -1.4609  0.1190  0.8353
 1628TIP3    H229080   6.449   5.031  19.885  0.6939 -0.1916  0.8340
 1629TIP3   OH229081   5.835   5.003  17.567 -0.5990 -0.3912  0.0992
 1629TIP3    H129082   5.868   4.956  17.643  0.3141 -1.1191 -0.7184
 1629TIP3    H229083   5.869   4.954  17.492 -1.5321  0.2640 -0.7798
 1630TIP3   OH229084   0.625   5.166  17.360 -0.1096  0.4328  0.0687
 1630TIP3    H129085   0.716   5.139  17.372 -0.5962 -0.6248  1.7834
 1630TIP3    H229086   0.629   5.261  17.347  1.2972  0.2421 -1.1390
 1631TIP3   OH229087   1.089   1.944  18.845 -0.0578  0.0451  0.1322
 1631TIP3    H129088   1.176   1.965  18.810  0.1638 -0.7954  0.1431
 1631TIP3    H229089   1.102   1.936  18.939 -0.4504  1.3238  0.3063
 1632TIP3   OH229090   7.503   3.846  17.616 -0.2905  0.0374 -0.1628
 1632TIP3    H129091   7.474   3.820  17.704  2.3208  1.3550  1.1991
 1632TIP3    H229092   7.507   3.941  17.618  0.9889  0.0497 -1.2743
 1633TIP3   OH229093   4.775   5.773  18.200 -0.4252  0.2675  0.4113
 1633TIP3    H129094   4.734   5.770  18.113  2.0371 -1.8470 -0.7977
 1633TIP3    H229095   4.779   5.867  18.221 -2.4943  0.7421 -0.9780
 1634TIP3   OH229096   4.536   1.056  18.634 -0.2997 -0.3372  0.3709
 1634TIP3    H129097   4.505   1.120  18.697 -0.2869  0.2693 -0.2308
 1634TIP3    H229098   4.624   1.032  18.665  0.4558  1.3172 -0.3892
 1635TIP3   OH229099   2.220   6.256  17.170  0.0945  0.3435 -0.0544
 1635TIP3    H129100   2.159   6.222  17.105 -1.3838  1.7760  0.5145
 1635TIP3    H229101   2.273   6.319  17.122  1.4863 -1.2022 -0.6459
 1636TIP3   OH229102   7.204   2.232  17.556  0.5031 -0.1239 -0.5603
 1636TIP3    H129103   7.137   2.190  17.502  0.6023 -0.6459 -0.2777
 1636TIP3    H229104   7.220   2.170  17.627  2.1529 -0.5456 -1.2682
 1637TIP3   OH229105   5.959   6.712  19.550  0.2059 -0.3344  0.0132
 1637TIP3    H129106   6.054   6.701  19.546 -0.0452 -2.9909 -0.3863
 1637TIP3    H229107   5.924   6.626  19.527 -2.3842  1.2907 -2.9011
 1638TIP3   OH229108   0.123   3.058  17.918  0.9367 -0.0064 -0.0720
 1638TIP3    H129109   0.080   2.990  17.866  0.2502  1.8902 -2.1283
 1638TIP3    H229110   0.067   3.066  17.996 -0.3048 -0.2170 -0.9028
 1639TIP3   OH229111   4.300   0.855  17.738 -0.5649 -0.2541  0.1543
 1639TIP3    H129112   4.269   0.790  17.675 -0.9059  0.0523  0.0006
 1639TIP3    H229113   4.395   0.852  17.730 -0.6195  0.6738 -1.3244
 1640TIP3   OH229114   5.149   6.680  19.628  0.4883 -0.0342  0.2422
 1640TIP3    H129115   5.092   6.738  19.577  0.0802  1.1816  1.9909
 1640TIP3    H229116   5.118   6.592  19.606 -0.0174  0.4659 -1.1735
 1641TIP3   OH229117   5.048   5.297  17.629 -0.3283 -0.4495 -0.1129
 1641TIP3    H129118   5.115   5.337  17.685  0.1026 -1.3710  0.0539
 1641TIP3    H229119   5.026   5.365  17.566  0.0954  0.1823  0.3981
 1642TIP3   OH229120   6.060   6.893  17.567 -0.0922 -0.0244  0.0144
 1642TIP3    H129121   6.024   6.816  17.612 -0.3615  1.7993  3.1934
 1642TIP3    H229122   6.154   6.875  17.561 -0.4379 -1.6120 -1.6133
 1643TIP3   OH229123   4.913   4.665  19.318  0.1361  0.4101  0.4979
 1643TIP3    H129124   4.866   4.645  19.238 -0.2777  1.5088  0.4397
 1643TIP3    H229125   4.968   4.589  19.334  1.8670  0.9899 -2.0224
 1644TIP3   OH229126   1.479   6.591  18.700  0.1201 -0.2439 -0.4519
 1644TIP3    H129127   1.530   6.528  18.649  0.2864  0.0062 -0.5970
 1644TIP3    H229128   1.538   6.619  18.770  0.2973  0.2848 -0.8059
 1645TIP3   OH229129   1.529   0.937  19.399 -0.4040  0.0643  0.2685
 1645TIP3    H129130   1.487   0.868  19.450  0.3221 -1.2726 -0.8503
 1645TIP3    H229131   1.617   0.903  19.382 -0.4928  0.6168 -1.4961
 1646TIP3   OH229132   5.489   2.597  18.295  0.0217  0.3872  0.0612
 1646TIP3    H129133   5.432   2.522  18.278  1.5774 -1.0637  0.8651
 1646TIP3    H229134   5.437   2.673  18.270 -1.6879 -0.9377 -0.6452
 1647TIP3   OH229135   0.340   4.070  18.297 -0.4772  0.6074  0.1075
 1647TIP3    H129136   0.313   4.150  18.252  1.1628  1.1625  0.0497
 1647TIP3    H229137   0.413   4.037  18.246  0.7242  0.6533  1.7081
 1648TIP3   OH229138   1.040   3.658  19.422  0.0064  0.1968 -0.2614
 1648TIP3    H129139   0.996   3.662  19.507 -0.7369  3.3265 -0.6509
 1648TIP3    H229140   0.991   3.593  19.372 -0.0214 -1.1397  1.4097
 1649TIP3   OH229141   1.479   2.053  18.340  1.1735 -0.0562  0.7683
 1649TIP3    H129142   1.461   1.960  18.332 -0.8441  0.4733 -3.0828
 1649TIP3    H229143   1.568   2.057  18.377  1.1707 -3.4023  1.4324
 1650TIP3   OH229144   7.111   1.131  18.474  0.8432 -0.2215 -0.1880
 1650TIP3    H129145   7.044   1.180  18.523  1.7092 -1.0379  1.9435
 1650TIP3    H229146   7.160   1.198  18.426  0.9202  0.8376  1.2950
 1651TIP3   OH229147   5.938   0.327  17.404  0.0524  0.1909  0.3502
 1651TIP3    H129148   5.928   0.418  17.375  0.6346  0.3590  0.6592
 1651TIP3    H229149   5.851   0.289  17.394 -0.4809  1.0959  1.2974
 1652TIP3   OH229150   2.994   3.036  18.103  0.3512 -0.5503  0.1780
 1652TIP3    H129151   3.064   3.073  18.050  0.4736 -0.2937  0.5176
 1652TIP3    H229152   2.984   3.096  18.177 -1.4689  0.4481 -0.8056
 1653TIP3   OH229153   6.877   4.913  18.862  0.4989 -0.7162  0.1760
 1653TIP3    H129154   6.950   4.873  18.815 -0.2948 -2.0604  0.0462
 1653TIP3    H229155   6.887   5.007  18.844  1.2587 -1.0145 -1.1801
 1654TIP3   OH229156   4.475   5.503  17.203  0.2980  0.2839  0.3594
 1654TIP3    H129157   4.397   5.447  17.206  0.3179  0.2601  0.4307
 1654TIP3    H229158   4.482   5.528  17.111  0.6171 -0.2941  0.2242
 1655TIP3   OH229159   4.356   0.167  17.452  0.2649  0.3805 -0.4198
 1655TIP3    H129160   4.271   0.132  17.477 -0.1083  2.1535  0.9919
 1655TIP3    H229161   4.416   0.139  17.521 -0.1940  2.9258  1.1797
 1656TIP3   OH229162   1.602   3.550  18.846 -0.0348  0.0550 -0.2867
 1656TIP3    H129163   1.652   3.632  18.851  2.2582 -1.2945  0.4518
 1656TIP3    H229164   1.513   3.575  18.869  0.6585  2.2954  0.2424
 1657TIP3   OH229165   4.557   5.863  18.927  0.5881  0.2189 -0.5440
 1657TIP3    H129166   4.652   5.877  18.931  0.3808  1.3532  1.4520
 1657TIP3    H229167   4.520   5.951  18.918 -0.3038 -0.1475 -0.5417
 1658TIP3   OH229168   3.961   3.130  17.634 -0.2377 -0.9014  0.3389
 1658TIP3    H129169   4.046   3.171  17.620 -0.6906  0.1861  0.6959
 1658TIP3    H229170   3.897   3.196  17.607 -0.9810 -2.0549 -0.8841
 1659TIP3   OH229171   0.320   4.362  17.161 -0.1156  0.3060 -0.1276
 1659TIP3    H129172   0.243   4.418  17.169 -0.9397 -0.7015 -0.8255
 1659TIP3    H229173   0.344   4.340  17.251 -0.8496  0.3453  0.0823
 1660TIP3   OH229174   0.484   1.595  17.648  0.2272  0.0242 -0.4116
 1660TIP3    H129175   0.420   1.524  17.644 -0.0714  0.2865 -0.2828
 1660TIP3    H229176   0.539   1.574  17.724 -0.4522  0.4282  0.1977
 1661TIP3   OH229177   0.717   4.227  18.125 -0.1247 -0.0064 -0.2447
 1661TIP3    H129178   0.783   4.294  18.141 -0.4438  0.0880  0.7097
 1661TIP3    H229179   0.731   4.201  18.033  1.4989 -0.2789  0.0483
 1662TIP3   OH229180   2.076   3.297  19.265 -0.3847  0.2623  0.2195
 1662TIP3    H129181   2.164   3.278  19.297 -0.7229  0.1028  1.0721
 1662TIP3    H229182   2.090   3.333  19.177  0.5890  1.0347  0.6632
 1663TIP3   OH229183   3.134   1.146  17.022  0.0662 -0.0405  0.2801
 1663TIP3    H129184   3.174   1.112  16.942  0.6394  1.5831 -0.1735
 1663TIP3    H229185   3.041   1.157  16.999  0.6100  2.6933 -1.0903
 1664TIP3   OH229186   6.824   7.169  17.947  0.1725  0.2755  0.2009
 1664TIP3    H129187   6.757   7.196  18.009 -0.0584 -0.9883  0.5267
 1664TIP3    H229188   6.863   7.251  17.916 -0.3004  0.9481  1.3439
 1665TIP3   OH229189   4.616   1.658  18.732  0.2305  0.1119 -0.8508
 1665TIP3    H129190   4.638   1.573  18.770  0.6135 -0.0656 -1.4613
 1665TIP3    H229191   4.666   1.661  18.650  1.6808  1.6988  0.0441
 1666TIP3   OH229192   3.966   5.796  18.859  0.2062 -0.1586 -0.5173
 1666TIP3    H129193   4.035   5.857  18.833 -0.7989  1.6347  0.7490
 1666TIP3    H229194   3.904   5.798  18.785 -0.7522  1.9206  0.2574
 1667TIP3   OH229195   4.548   5.610  16.953  0.1682 -0.0704 -0.1078
 1667TIP3    H129196   4.579   5.698  16.973 -0.5984  0.2991 -0.5359
 1667TIP3    H229197   4.470   5.623  16.899  1.4282 -1.0277 -2.2692
 1668TIP3   OH229198   1.414   3.233  16.969  0.2887 -0.0745 -0.3964
 1668TIP3    H129199   1.425   3.326  16.946  1.3403  0.2277  1.2219
 1668TIP3    H229200   1.320   3.217  16.957  0.0259  1.2949 -0.3474
 1669TIP3   OH229201   2.910   5.834  18.346  0.5177 -0.7535  1.0332
 1669TIP3    H129202   2.852   5.797  18.413 -0.3004 -1.1599  0.1323
 1669TIP3    H229203   2.851   5.857  18.274  1.1699  1.1234  1.0374
 1670TIP3   OH229204   1.944   5.035  17.880 -0.4210  0.2909 -0.3822
 1670TIP3    H129205   1.859   5.033  17.835 -0.2676 -0.8700 -0.6527
 1670TIP3    H229206   1.977   4.945  17.873  0.4717  0.5420  0.4132
 1671TIP3   OH229207   6.648   6.306  16.956 -0.1705 -0.3793  0.1530
 1671TIP3    H129208   6.729   6.356  16.965 -1.1113  1.1341  0.6377
 1671TIP3    H229209   6.667   6.222  16.997  0.8630  0.3000  1.1341
 1672TIP3   OH229210   6.685   7.546  16.717  0.0017 -0.0431  0.0588
 1672TIP3    H129211   6.711   7.627  16.761 -2.2177 -1.1023  3.7650
 1672TIP3    H229212   6.593   7.560  16.694 -0.3113 -1.3924  0.4526
 1673TIP3   OH229213   7.400   6.472  16.889 -0.4967  0.0480  0.0156
 1673TIP3    H129214   7.350   6.487  16.969  0.0774  1.5279  0.1221
 1673TIP3    H229215   7.406   6.558  16.847  2.7044  0.1975  0.4854
 1674TIP3   OH229216   3.167   4.940  16.684 -0.0761  0.0907 -0.2022
 1674TIP3    H129217   3.100   4.997  16.724  0.3261  1.2435 -1.0962
 1674TIP3    H229218   3.168   4.862  16.740 -2.5839 -0.2442 -0.4804
 1675TIP3   OH229219   5.931   2.668  18.985 -0.1300  1.0707  0.8798
 1675TIP3    H129220   5.853   2.653  19.038  0.0943  0.7716  1.1272
 1675TIP3    H229221   5.912   2.626  18.901 -0.3954  1.3507  0.7997
 1676TIP3   OH229222   7.077   7.209  19.448  0.2467 -0.0899  0.3848
 1676TIP3    H129223   7.081   7.114  19.436 -1.3299  0.0171 -1.5904
 1676TIP3    H229224   7.168   7.237  19.450  0.7296 -1.5552  0.2685
 1677TIP3   OH229225   7.075   2.450  17.938 -0.1135 -0.0668 -0.1178
 1677TIP3    H129226   7.078   2.377  17.999  1.9596  1.2500  1.4652
 1677TIP3    H229227   7.164   2.485  17.936 -0.8735  2.0588 -1.2811
 1678TIP3   OH229228   6.968   3.684  18.287  0.0604 -0.5178  0.1121
 1678TIP3    H129229   7.037   3.617  18.288 -0.0425 -0.6519 -0.6891
 1678TIP3    H229230   6.911   3.659  18.214  0.6840  1.0898 -1.0023
 1679TIP3   OH229231   1.294   3.487  17.840  0.0047  0.2789 -0.4548
 1679TIP3    H129232   1.324   3.473  17.930 -0.2588  0.1192 -0.3895
 1679TIP3    H229233   1.201   3.506  17.849 -0.6973 -2.4645 -0.8718
 1680TIP3   OH229234   2.313   4.828  18.265 -0.0315  0.4513  0.3118
 1680TIP3    H129235   2.330   4.745  18.310 -0.5876 -1.0706 -2.1042
 1680TIP3    H229236   2.397   4.853  18.228 -0.1962 -0.0287 -0.4338
 1681TIP3   OH229237   4.919   5.031  19.012  0.0549 -0.6210  0.1790
 1681TIP3    H129238   4.874   4.970  18.954  0.2225 -0.0620 -0.5553
 1681TIP3    H229239   4.849   5.070  19.064 -0.0898 -1.1721  0.4061
 1682TIP3   OH229240   2.330   6.794  19.105  0.0168  0.4609  0.5293
 1682TIP3    H129241   2.401   6.827  19.050  0.6644  0.3853  1.3087
 1682TIP3    H229242   2.254   6.790  19.046  0.2016  2.2355  0.1145
 1683TIP3   OH229243   4.548   1.487  17.157  0.3051 -0.4286 -0.6960
 1683TIP3    H129244   4.520   1.574  17.185  2.0061  0.1752 -0.8036
 1683TIP3    H229245   4.555   1.493  17.061 -0.9329 -1.1292 -0.8638
 1684TIP3   OH229246   2.243   3.838  17.849 -0.8673 -0.1281 -0.3540
 1684TIP3    H129247   2.151   3.863  17.843 -0.5320  0.8507 -2.0281
 1684TIP3    H229248   2.288   3.897  17.789  0.3783 -2.7612 -2.2024
 1685TIP3   OH229249   6.071   2.825  17.216 -0.0940 -0.5622 -0.2488
 1685TIP3    H129250   6.126   2.793  17.145 -0.2909  0.7980 -1.0519
 1685TIP3    H229251   6.034   2.907  17.183 -0.3893 -0.0174  1.3313
 1686TIP3   OH229252   6.300   0.038  18.764  0.1762 -0.3866  0.1403
 1686TIP3    H129253   6.356  -0.010  18.825  0.0943 -0.2354  0.3360
 1686TIP3    H229254   6.259  -0.030  18.711 -1.5258 -0.6904  1.7439
 1687TIP3   OH229255   4.600   1.478  19.562  0.1872  0.0300 -0.1569
 1687TIP3    H129256   4.571   1.547  19.502  0.0854 -1.5241 -1.9919
 1687TIP3    H229257   4.688   1.455  19.531 -0.0224 -1.0758  0.0163
 1688TIP3   OH229258   1.162   1.161  18.077  0.4037  0.2287  0.2917
 1688TIP3    H129259   1.189   1.133  18.164 -1.6610 -0.7998  0.6483
 1688TIP3    H229260   1.173   1.084  18.022 -0.0212  0.3345  0.0510
 1689TIP3   OH229261   0.268   3.069  17.614 -0.1380 -0.1150  0.4261
 1689TIP3    H129262   0.272   3.106  17.702 -2.2396 -1.7758  1.2854
 1689TIP3    H229263   0.194   3.113  17.573  0.2097 -0.0817 -0.1808
 1690TIP3   OH229264   5.692   1.557  18.860 -0.3479 -0.4659 -0.7876
 1690TIP3    H129265   5.723   1.497  18.792  0.0064 -0.7764 -0.3589
 1690TIP3    H229266   5.599   1.537  18.868 -0.3840 -0.4523 -1.1566
 1691TIP3   OH229267   0.898   3.277  18.896  0.0470  0.0769 -0.1395
 1691TIP3    H129268   0.843   3.198  18.904 -0.7520  0.7715  2.4724
 1691TIP3    H229269   0.879   3.311  18.809 -1.6848 -1.1471 -0.3006
 1692TIP3   OH229270   1.127   7.286  17.090 -0.1067  0.2366  0.9753
 1692TIP3    H129271   1.217   7.280  17.123  0.2567  0.9162  0.1383
 1692TIP3    H229272   1.117   7.210  17.032  0.3250  0.7796  0.1691
 1693TIP3   OH229273   3.456   1.237  18.938  0.0564  0.5409  0.0238
 1693TIP3    H129274   3.484   1.216  18.849  0.4329  1.6451 -0.1435
 1693TIP3    H229275   3.514   1.309  18.965 -0.0948  0.2645  1.1383
 1694TIP3   OH229276   0.985   7.451  19.236  0.0791  0.7957 -0.3016
 1694TIP3    H129277   0.961   7.442  19.328 -1.7431 -0.3853 -0.8534
 1694TIP3    H229278   1.072   7.492  19.238 -0.5841  2.2564  1.8857
 1695TIP3   OH229279   6.268   7.320  18.293  0.6779 -0.1349  0.5671
 1695TIP3    H129280   6.359   7.322  18.261 -0.2310  1.4588 -2.2436
 1695TIP3    H229281   6.243   7.228  18.287  1.5018 -0.3032 -0.6240
 1696TIP3   OH229282   4.350   6.508  18.751 -0.3681 -0.6987  0.2014
 1696TIP3    H129283   4.309   6.502  18.837  0.1257  0.9514  0.6049
 1696TIP3    H229284   4.302   6.578  18.706 -1.1167 -2.0409 -1.1955
 1697TIP3   OH229285   2.413   4.025  17.719  0.0713  0.2160  0.0897
 1697TIP3    H129286   2.347   4.046  17.653 -0.3141  1.1440  0.7455
 1697TIP3    H229287   2.497   4.044  17.677 -0.1581  0.5524 -0.2126
 1698TIP3   OH229288   7.505   6.580  18.537 -0.2538  0.2830 -0.3328
 1698TIP3    H129289   7.469   6.669  18.543 -0.7135  0.0219  2.6635
 1698TIP3    H229290   7.582   6.588  18.481  0.3555  2.8294  0.7233
 1699TIP3   OH229291   3.591   5.122  18.273 -0.2070 -0.2912 -0.2028
 1699TIP3    H129292   3.655   5.185  18.241 -0.4635  0.4371  0.6643
 1699TIP3    H229293   3.624   5.095  18.359 -1.0986  0.2053  0.3243
 1700TIP3   OH229294   5.200   5.113  19.593  0.1919  0.1412  0.0641
 1700TIP3    H129295   5.287   5.133  19.630  0.6851  0.7338 -1.3651
 1700TIP3    H229296   5.147   5.189  19.615 -0.0799 -0.3464  1.1932
 1701TIP3   OH229297   2.333   0.192  17.770  0.1170  0.6624  0.0721
 1701TIP3    H129298   2.312   0.127  17.838  0.7745  1.4201  1.0192
 1701TIP3    H229299   2.423   0.218  17.789 -0.3075  2.2397  0.0484
 1702TIP3   OH229300   7.031   2.494  18.940 -0.2472  0.2924  0.3790
 1702TIP3    H129301   7.106   2.552  18.930 -0.2409  0.2672  0.2798
 1702TIP3    H229302   7.060   2.429  19.004  0.2277 -0.3831 -0.4917
 1703TIP3   OH229303   7.087   1.906  18.491 -0.9253  0.1195  0.3615
 1703TIP3    H129304   7.155   1.873  18.433  0.0556  2.4486  0.0565
 1703TIP3    H229305   7.087   1.846  18.566 -0.6257 -1.6086 -0.9766
 1704TIP3   OH229306   4.051   0.291  17.964 -0.0433  0.3256  0.3419
 1704TIP3    H129307   4.089   0.240  17.893 -0.8763 -0.2334  0.2771
 1704TIP3    H229308   4.060   0.382  17.936 -1.0991  0.0845 -0.8811
 1705TIP3   OH229309   7.443   1.869  18.633  0.7025  0.3282 -0.2527
 1705TIP3    H129310   7.498   1.946  18.647  0.5233  0.3790  0.1967
 1705TIP3    H229311   7.359   1.892  18.675  1.5509 -1.2036  2.4702
 1706TIP3   OH229312   2.396   2.569  19.172 -0.1669  0.6399 -0.0837
 1706TIP3    H129313   2.352   2.654  19.174  1.5005  1.5907 -1.3231
 1706TIP3    H229314   2.336   2.511  19.125 -0.9020  1.3864 -0.0685
 1707TIP3   OH229315   3.278   6.625  18.741  0.3985 -0.2157 -0.1437
 1707TIP3    H129316   3.285   6.621  18.837  0.5199 -0.1673 -0.1500
 1707TIP3    H229317   3.316   6.543  18.710 -0.5567 -0.6813 -0.1035
 1708TIP3   OH229318   1.347   4.032  17.209 -0.4675  0.2981  0.3930
 1708TIP3    H129319   1.330   3.938  17.198 -1.7739  0.4049  1.2912
 1708TIP3    H229320   1.440   4.042  17.187 -0.4135 -1.1318 -0.1199
 1709TIP3   OH229321   5.198   2.691  18.993  0.1647  0.9806  0.1535
 1709TIP3    H129322   5.182   2.783  19.011 -1.8481  0.3998  1.6140
 1709TIP3    H229323   5.275   2.669  19.045  0.4980  1.7676 -0.0015
 1710TIP3   OH229324   3.537   0.078  18.515  0.0866  0.1494 -0.2691
 1710TIP3    H129325   3.489   0.016  18.461  1.5914 -0.9415 -0.4145
 1710TIP3    H229326   3.486   0.159  18.510 -1.1160 -0.6353 -1.2975
 1711TIP3   OH229327   6.919   7.104  16.644 -0.1910 -0.7568  0.3349
 1711TIP3    H129328   6.866   7.182  16.627 -0.1223 -0.5287  1.1336
 1711TIP3    H229329   6.856   7.036  16.667 -0.1542 -0.5366  1.0972
 1712TIP3   OH229330   1.208   5.730  19.295 -0.1483 -0.2798  0.2617
 1712TIP3    H129331   1.268   5.790  19.338 -0.6156 -0.1587  0.7509
 1712TIP3    H229332   1.251   5.645  19.300  0.2051 -0.1041  0.1728
 1713TIP3   OH229333   5.856   5.835  16.697  0.3095  0.1118 -0.2805
 1713TIP3    H129334   5.798   5.758  16.697 -1.8801  1.6516 -0.2141
 1713TIP3    H229335   5.894   5.837  16.610 -1.2867  0.1120 -1.0049
 1714TIP3   OH229336   3.963   6.573  18.558  0.0385 -0.1105  0.4572
 1714TIP3    H129337   3.911   6.511  18.609 -1.9830  2.1076  1.2753
 1714TIP3    H229338   4.036   6.595  18.615 -0.7393  0.3005  1.3228
 1715TIP3   OH229339   6.558   7.383  19.419  0.5447 -0.1330  0.5340
 1715TIP3    H129340   6.643   7.340  19.428  0.6094  0.0145  0.6316
 1715TIP3    H229341   6.517   7.373  19.505  0.7996  0.5070  0.7361
 1716TIP3   OH229342   5.169   5.090  18.922  0.6405  0.1547 -0.2541
 1716TIP3    H129343   5.088   5.075  18.971  0.2659  0.8028 -0.6533
 1716TIP3    H229344   5.198   5.002  18.897 -0.0985 -0.0743 -0.3548
 1717TIP3   OH229345   2.273   0.901  18.749 -0.2013 -0.6670  0.4649
 1717TIP3    H129346   2.269   0.824  18.805 -0.1655  0.4115  2.0043
 1717TIP3    H229347   2.351   0.888  18.695 -0.7410 -2.1519 -0.0109
 1718TIP3   OH229348   5.665   3.230  18.811  0.0125  0.6831 -0.8372
 1718TIP3    H129349   5.577   3.222  18.848 -0.2811  0.7947 -1.5092
 1718TIP3    H229350   5.663   3.310  18.759  0.6080  0.8612 -0.6024
 1719TIP3   OH229351   0.536   5.763  17.140  0.2987  0.3194 -0.4778
 1719TIP3    H129352   0.568   5.852  17.126  1.5882 -0.2841 -1.6203
 1719TIP3    H229353   0.570   5.739  17.226 -1.2910  1.4136  0.5006
 1720TIP3   OH229354   0.661   6.779  18.405 -0.6211  0.2308 -0.0045
 1720TIP3    H129355   0.598   6.828  18.457 -0.5098 -0.2705  0.6151
 1720TIP3    H229356   0.609   6.743  18.333 -0.5911  1.7125 -0.8005
 1721TIP3   OH229357   1.585   7.495  16.924 -0.0347 -0.4427 -0.0568
 1721TIP3    H129358   1.592   7.456  16.837  0.7154  1.7315 -1.0352
 1721TIP3    H229359   1.674   7.490  16.960  0.2052  0.7803 -0.4246
 1722TIP3   OH229360   3.561   7.322  19.092 -0.2065 -0.0679 -0.2980
 1722TIP3    H129361   3.507   7.351  19.166  1.0366 -0.3238  0.7622
 1722TIP3    H229362   3.537   7.380  19.020 -1.0989  0.5242  0.4563
 1723TIP3   OH229363   4.471   3.560  17.336  0.3313  0.3728  0.3058
 1723TIP3    H129364   4.456   3.647  17.297  2.0586  0.7171  0.3347
 1723TIP3    H229365   4.535   3.519  17.278  1.3719  0.0834  1.6332
 1724TIP3   OH229366   5.051   0.101  19.525  0.5175  0.0246  0.4011
 1724TIP3    H129367   5.084   0.011  19.534 -0.6517 -0.6426 -1.4038
 1724TIP3    H229368   5.127   0.156  19.542  1.7212 -1.3646 -0.2583
 1725TIP3   OH229369   0.765   3.867  19.356 -0.2123  0.2000 -0.1899
 1725TIP3    H129370   0.801   3.813  19.286  1.9480  0.6622  0.4931
 1725TIP3    H229371   0.833   3.869  19.423 -1.6176  0.9812  1.3014
 1726TIP3   OH229372   7.135   5.936  18.826 -0.1003 -0.3101 -0.2461
 1726TIP3    H129373   7.060   5.900  18.873  0.8253 -0.9151  0.8105
 1726TIP3    H229374   7.112   6.027  18.808 -0.6856 -0.2112  0.9382
 1727TIP3   OH229375   1.732   2.565  18.670  0.1594 -0.0692 -0.1719
 1727TIP3    H129376   1.695   2.496  18.615  1.1868 -1.7536  1.1701
 1727TIP3    H229377   1.817   2.585  18.630 -0.2636  0.6830 -0.7326
 1728TIP3   OH229378   7.251   5.553  18.294 -0.1228  0.9837 -0.3787
 1728TIP3    H129379   7.177   5.540  18.235 -1.2460  1.4279  0.8715
 1728TIP3    H229380   7.327   5.559  18.237 -0.9501 -0.1572 -1.6634
 1729TIP3   OH229381   0.506   4.891  17.099  0.4795 -0.2265 -0.2427
 1729TIP3    H129382   0.435   4.892  17.035 -0.2472 -1.5958  0.4729
 1729TIP3    H229383   0.530   4.982  17.110 -0.0269  0.1188 -1.7488
 1730TIP3   OH229384   4.138   6.610  18.246 -0.5298 -0.2588 -0.5138
 1730TIP3    H129385   4.050   6.632  18.217 -0.7749 -0.6206 -0.0493
 1730TIP3    H229386   4.169   6.688  18.292 -0.8712 -0.3830 -0.0728
 1731TIP3   OH229387   2.725   1.154  19.775  0.7658  0.1723 -0.3126
 1731TIP3    H129388   2.685   1.239  19.794 -0.4763 -0.2485 -0.9829
 1731TIP3    H229389   2.813   1.176  19.743  1.4416  1.0742  1.9366
 1732TIP3   OH229390   2.776   2.398  17.280 -0.3935 -0.0898  0.1116
 1732TIP3    H129391   2.695   2.376  17.326 -0.0970  0.9753  1.1903
 1732TIP3    H229392   2.754   2.475  17.227  0.0708  0.6644  0.9787
 1733TIP3   OH229393   0.155   5.602  18.201 -0.4927 -0.2344  0.5522
 1733TIP3    H129394   0.142   5.523  18.253 -0.3080 -0.4543  0.2652
 1733TIP3    H229395   0.086   5.661  18.231 -2.5909 -1.5722 -1.3105
 1734TIP3   OH229396   0.894   2.378  17.357  0.1705 -0.4928 -0.1226
 1734TIP3    H129397   0.864   2.363  17.447  0.9364  0.5678  0.3257
 1734TIP3    H229398   0.988   2.358  17.360  0.3365  0.2017 -0.5193
 1735TIP3   OH229399   5.602   6.398  18.142  0.3313 -0.4408  0.1095
 1735TIP3    H129400   5.558   6.317  18.167 -1.1285 -0.1040 -1.2077
 1735TIP3    H229401   5.696   6.376  18.143  0.2333 -1.1716  3.0039
 1736TIP3   OH229402   3.216   7.303  17.377 -0.5175 -0.4602  0.2101
 1736TIP3    H129403   3.122   7.291  17.361 -0.5752  1.2204 -0.9456
 1736TIP3    H229404   3.220   7.351  17.460 -0.6804 -0.4047  0.1871
 1737TIP3   OH229405   5.805   5.657  16.341  0.2834  0.1280 -0.7173
 1737TIP3    H129406   5.804   5.669  16.246  2.1991 -0.1215 -0.8065
 1737TIP3    H229407   5.879   5.708  16.372  0.7727 -1.1799  0.4143
 1738TIP3   OH229408   6.847   4.094  17.840 -0.6622 -0.0712 -0.1942
 1738TIP3    H129409   6.803   4.079  17.756 -2.7531 -0.0365  0.8169
 1738TIP3    H229410   6.805   4.033  17.900  0.2839  0.3944  0.9817
 1739TIP3   OH229411   6.825   4.694  17.863 -0.2803 -0.1538  0.5321
 1739TIP3    H129412   6.830   4.781  17.823  1.6949 -1.0738 -1.4252
 1739TIP3    H229413   6.854   4.708  17.954 -3.1017  1.6814  1.2973
 1740TIP3   OH229414   0.798   3.524  16.778 -0.4398  0.6085  0.3228
 1740TIP3    H129415   0.762   3.535  16.690 -0.0432  0.0886  0.0939
 1740TIP3    H229416   0.888   3.495  16.764 -0.6242 -0.2754  0.9003
 1741TIP3   OH229417   4.873   4.830  18.831  0.2730  0.3998 -0.7853
 1741TIP3    H129418   4.922   4.886  18.770 -0.8107  0.8128 -1.2901
 1741TIP3    H229419   4.831   4.764  18.775 -0.5767  0.6642 -0.4655
 1742TIP3   OH229420   6.833   1.932  18.952 -0.1756 -0.7163  0.2852
 1742TIP3    H129421   6.834   1.922  18.857 -0.9736  0.7274  0.0893
 1742TIP3    H229422   6.740   1.927  18.975 -0.0491 -0.3292  0.8874
 1743TIP3   OH229423   0.609   0.026  19.843 -0.1737  0.3261 -0.1485
 1743TIP3    H129424   0.544   0.064  19.902 -1.1343  0.2285 -1.1205
 1743TIP3    H229425   0.568  -0.054  19.810  0.8079 -0.2206 -0.0904
 1744TIP3   OH229426   4.285   6.930  18.443 -0.2373  0.3290  0.0613
 1744TIP3    H129427   4.225   6.912  18.371  0.2617  2.6311 -1.0341
 1744TIP3    H229428   4.369   6.949  18.400  0.2067  1.2232  1.2590
 1745TIP3   OH229429   5.315   1.339  17.780 -0.0900 -0.4261 -0.1379
 1745TIP3    H129430   5.249   1.301  17.722 -0.8641  1.0746 -0.3048
 1745TIP3    H229431   5.281   1.323  17.868 -0.9509  0.7144 -0.2316
 1746TIP3   OH229432   7.192   5.954  17.524 -0.2518 -0.5250 -0.6481
 1746TIP3    H129433   7.198   5.995  17.438  0.5218  1.5792  0.3226
 1746TIP3    H229434   7.128   6.008  17.571 -0.8151 -1.7672  0.0414
 1747TIP3   OH229435   0.632   0.673  17.899  0.3627 -0.2968 -0.5837
 1747TIP3    H129436   0.661   0.764  17.907 -1.7184  0.3808 -0.1059
 1747TIP3    H229437   0.669   0.630  17.976 -0.5736  0.7333  0.4801
 1748TIP3   OH229438   7.427   6.177  17.652  0.1082  0.9903 -0.1724
 1748TIP3    H129439   7.408   6.126  17.730  1.8910  0.8352  0.2039
 1748TIP3    H229440   7.491   6.242  17.681  1.0041  0.7554 -1.5456
 1749TIP3   OH229441   5.244   4.799  18.882 -0.0171 -0.8141  0.0688
 1749TIP3    H129442   5.215   4.849  18.805 -0.5097 -1.9817 -0.5379
 1749TIP3    H229443   5.248   4.708  18.851  2.3887 -0.9798  0.6982
 1750TIP3   OH229444   2.731   6.118  19.181  0.0280 -0.3648 -0.2078
 1750TIP3    H129445   2.718   6.024  19.193  0.0747 -0.7224 -2.4969
 1750TIP3    H229446   2.642   6.154  19.178 -0.1039 -0.7427 -1.7976
 1751TIP3   OH229447   1.198   4.406  19.191  0.2885  0.1284  0.6859
 1751TIP3    H129448   1.174   4.491  19.228  0.3706  0.8038 -0.7757
 1751TIP3    H229449   1.140   4.395  19.116  1.1146 -0.5433  0.1321
 1752TIP3   OH229450   5.119   1.229  17.312 -0.4070 -0.3814 -0.0043
 1752TIP3    H129451   5.209   1.237  17.281 -0.6232  0.5447 -0.4369
 1752TIP3    H229452   5.088   1.147  17.275 -0.2741  0.1195 -1.2782
 1753TIP3   OH229453   4.200   2.510  18.617 -0.2165 -0.2439 -0.3949
 1753TIP3    H129454   4.244   2.462  18.686 -3.0009 -1.0458  0.9784
 1753TIP3    H229455   4.244   2.482  18.536 -0.4369 -3.7080  0.5088
 1754TIP3   OH229456   2.444   0.040  17.181 -0.7103 -0.3611 -0.1817
 1754TIP3    H129457   2.378   0.093  17.226 -1.7230  0.4711 -2.4802
 1754TIP3    H229458   2.396  -0.039  17.153 -0.5083 -0.2094 -0.9992
 1755TIP3   OH229459   5.548   7.120  19.300  0.5763 -0.3537 -0.6606
 1755TIP3    H129460   5.595   7.133  19.382  1.5187 -0.8366 -1.1123
 1755TIP3    H229461   5.572   7.031  19.272 -0.5437 -0.5862 -0.9492
 1756TIP3   OH229462   6.832   4.651  18.674 -0.4020 -0.2130  0.0168
 1756TIP3    H129463   6.806   4.698  18.595 -0.5529 -2.1234 -1.1137
 1756TIP3    H229464   6.925   4.675  18.686 -0.8919  1.6612  0.4778
 1757TIP3   OH229465   1.228   1.290  19.265 -0.4867 -0.6031  0.5789
 1757TIP3    H129466   1.192   1.203  19.283  1.9517 -1.7897  0.1228
 1757TIP3    H229467   1.322   1.276  19.254 -0.1637  1.9212 -0.7151
 1758TIP3   OH229468   6.227   7.530  18.594  0.6170  0.4381  0.0268
 1758TIP3    H129469   6.153   7.470  18.583  2.4909 -2.0690  0.0118
 1758TIP3    H229470   6.263   7.540  18.506  0.3192  1.6507  0.0314
 1759TIP3   OH229471   4.471   4.283  17.540 -0.7541  0.1123  0.3554
 1759TIP3    H129472   4.551   4.335  17.543  0.6085 -1.9054  1.1501
 1759TIP3    H229473   4.493   4.208  17.484 -2.5677  0.1902 -0.5565
 1760TIP3   OH229474   3.247   1.195  19.126 -0.0124  0.0118  0.3136
 1760TIP3    H129475   3.167   1.236  19.093 -1.3461 -1.6896  1.1968
 1760TIP3    H229476   3.314   1.215  19.061 -2.1215 -1.9725 -2.7181
 1761TIP3   OH229477   5.921   5.648  18.144  0.3662  0.5389  0.2301
 1761TIP3    H129478   5.937   5.569  18.092 -1.7315  0.7769 -0.9251
 1761TIP3    H229479   5.841   5.685  18.106  1.0583  3.0015  1.0067
 1762TIP3   OH229480   4.532   2.425  17.973 -0.0262 -0.1177 -0.0561
 1762TIP3    H129481   4.624   2.395  17.973 -0.2842 -1.1511 -2.2623
 1762TIP3    H229482   4.524   2.476  17.892 -1.1339  0.9481  0.6981
 1763TIP3   OH229483   5.751   2.878  16.844 -0.0939 -0.1534  0.6329
 1763TIP3    H129484   5.784   2.960  16.806 -1.2742  1.2547  2.4847
 1763TIP3    H229485   5.804   2.810  16.804  0.3441  1.4215 -1.6618
 1764TIP3   OH229486   0.156   3.970  17.481 -0.0647 -0.8379  0.2388
 1764TIP3    H129487   0.171   3.934  17.394 -0.6386 -1.7665  0.5138
 1764TIP3    H229488   0.143   3.894  17.537 -2.6684 -0.2168  0.5795
 1765TIP3   OH229489   2.703   0.785  19.087  0.0317  0.1387  0.2397
 1765TIP3    H129490   2.638   0.755  19.151 -1.1799 -0.1388 -1.0659
 1765TIP3    H229491   2.726   0.873  19.116 -1.3092  0.4331  0.4652
 1766TIP3   OH229492   5.576   6.057  18.496 -0.1180 -0.4929  0.0533
 1766TIP3    H129493   5.541   5.968  18.504  0.8917 -0.9259 -0.2619
 1766TIP3    H229494   5.612   6.077  18.582 -2.4747  0.5656  0.8737
 1767TIP3   OH229495   0.967   3.983  18.557  0.3472  0.2359 -0.0123
 1767TIP3    H129496   1.027   4.056  18.574 -1.1171  1.3360  0.6825
 1767TIP3    H229497   0.914   4.012  18.483  0.1445 -0.3928 -0.1199
 1768TIP3   OH229498   2.623   0.076  17.362  0.6822  0.0564  0.1174
 1768TIP3    H129499   2.666  -0.004  17.330  0.0378 -0.3631  0.2891
 1768TIP3    H229500   2.554   0.093  17.298  0.6088  0.2886  0.2601
 1769TIP3   OH229501   0.859   3.615  17.591 -0.4020 -1.2372  0.1207
 1769TIP3    H129502   0.897   3.641  17.675 -0.6219 -3.7533  1.0783
 1769TIP3    H229503   0.926   3.636  17.527 -0.6470  1.7590  0.6898
 1770TIP3   OH229504   0.530   0.383  19.729 -0.0130 -0.6561 -0.3036
 1770TIP3    H129505   0.568   0.301  19.761  0.4211 -0.7903 -1.1397
 1770TIP3    H229506   0.537   0.377  19.634 -0.0470  0.3209 -0.3768
 1771TIP3   OH229507   7.196   7.651  18.659 -0.2492 -0.3134 -0.5416
 1771TIP3    H129508   7.157   7.575  18.702  1.1133 -0.3655  0.6734
 1771TIP3    H229509   7.264   7.614  18.602 -0.4019 -0.0799 -0.8782
 1772TIP3   OH229510   3.129   7.672  18.237 -0.7998 -0.9374 -0.0088
 1772TIP3    H129511   3.098   7.704  18.152  0.0562 -1.0331 -0.3625
 1772TIP3    H229512   3.049   7.646  18.283 -1.1404 -3.6533 -1.8728
 1773TIP3   OH229513   5.119   0.203  16.583  0.5429  0.0654  0.4951
 1773TIP3    H129514   5.036   0.212  16.631  0.7296  1.0447  0.6565
 1773TIP3    H229515   5.095   0.211  16.491  0.4665  0.4769  0.5481
 1774TIP3   OH229516   1.256   2.496  18.203 -0.0197  0.1368 -0.1580
 1774TIP3    H129517   1.310   2.418  18.213 -1.0375 -0.3881  1.8458
 1774TIP3    H229518   1.316   2.569  18.221  0.0989 -0.4406  2.0554
 1775TIP3   OH229519   4.374   2.776  18.176  0.1465 -1.0388 -0.2243
 1775TIP3    H129520   4.413   2.689  18.178 -1.1370 -1.6440  2.0080
 1775TIP3    H229521   4.419   2.821  18.104  2.4115 -2.7840 -0.0034
 1776TIP3   OH229522   7.327   0.797  17.058  0.3485  0.9349 -0.0626
 1776TIP3    H129523   7.296   0.881  17.024  2.1525  1.3659 -0.6930
 1776TIP3    H229524   7.394   0.768  16.997  0.6995 -0.3237  0.8679
 1777TIP3   OH229525   5.877   6.567  19.136  0.2974  0.4252 -0.0978
 1777TIP3    H129526   5.864   6.473  19.138 -1.4033  0.6373 -0.0058
 1777TIP3    H229527   5.871   6.590  19.043  1.4835  0.3806 -0.2101
 1778TIP3   OH229528   5.619   7.160  18.037 -0.4513  0.8014 -0.1330
 1778TIP3    H129529   5.630   7.246  17.998 -0.1546  1.1742  0.7556
 1778TIP3    H229530   5.709   7.129  18.051 -0.5592  0.5738  0.0548
 1779TIP3   OH229531   5.706   0.777  17.711 -0.1111 -0.1005  0.1027
 1779TIP3    H129532   5.680   0.798  17.800 -0.1346 -1.1557  0.3536
 1779TIP3    H229533   5.669   0.848  17.658  1.2248  1.4028  1.0814
 1780TIP3   OH229534   0.269   5.156  19.479  0.4585  0.1244 -0.4190
 1780TIP3    H129535   0.180   5.148  19.446 -0.0761  1.4171  0.6329
 1780TIP3    H229536   0.324   5.126  19.406 -0.7975 -0.3274 -1.2178
 1781TIP3   OH229537   5.054   4.670  17.883  0.0378 -0.3298 -0.0660
 1781TIP3    H129538   5.056   4.732  17.810  0.6408  1.8143  1.6735
 1781TIP3    H229539   4.985   4.704  17.941 -1.1121 -2.5337 -0.0301
 1782TIP3   OH229540   2.101   5.484  18.099  0.3573  0.1629 -0.5463
 1782TIP3    H129541   2.118   5.539  18.023  1.1048 -1.1027 -1.3418
 1782TIP3    H229542   2.047   5.412  18.064  1.1588 -0.7173 -0.0187
 1783TIP3   OH229543   6.713   5.584  17.264  0.9588 -0.5008 -0.2466
 1783TIP3    H129544   6.685   5.526  17.193  1.0948 -0.8423 -0.0247
 1783TIP3    H229545   6.702   5.673  17.229 -0.5627 -0.6004 -0.1174
 1784TIP3   OH229546   6.204   3.875  16.911 -0.0302 -0.5153 -0.8062
 1784TIP3    H129547   6.152   3.955  16.899  1.3519  0.9659  2.1115
 1784TIP3    H229548   6.139   3.805  16.914 -1.6050  0.8813 -0.3406
 1785TIP3   OH229549   0.948   6.162  18.314 -0.1809  0.3245 -0.5242
 1785TIP3    H129550   0.964   6.094  18.249 -0.4271  1.7360 -2.1369
 1785TIP3    H229551   1.024   6.160  18.371 -1.4222 -3.1737  1.2905
 1786TIP3   OH229552   3.727   6.874  19.168  0.3698  0.2503 -1.2866
 1786TIP3    H129553   3.741   6.959  19.210 -1.8177 -0.1037  0.3678
 1786TIP3    H229554   3.632   6.861  19.173  0.7802 -3.3789  0.8119
 1787TIP3   OH229555   0.937   3.951  16.877  0.1003 -0.0242 -0.3038
 1787TIP3    H129556   0.995   3.952  16.801  0.4950 -2.3417 -0.1083
 1787TIP3    H229557   0.853   3.982  16.844  0.4141 -0.4806 -1.5640
 1788TIP3   OH229558   3.218   4.224  18.360 -0.3778 -0.0350 -0.3814
 1788TIP3    H129559   3.248   4.136  18.385  1.0335  0.1766 -1.2211
 1788TIP3    H229560   3.163   4.253  18.433  0.0260 -1.1808  0.3962
 1789TIP3   OH229561   6.101   0.614  19.359  0.0056 -0.4433 -0.3460
 1789TIP3    H129562   6.058   0.589  19.277  1.3584  1.5514 -1.7556
 1789TIP3    H229563   6.071   0.704  19.375  1.0541 -0.2057  0.4032
 1790TIP3   OH229564   4.567   0.832  19.827  0.1839 -0.3136 -0.2150
 1790TIP3    H129565   4.657   0.828  19.860 -0.2960 -3.2143  1.0335
 1790TIP3    H229566   4.568   0.783  19.746 -0.3989 -1.0828  0.2276
 1791TIP3   OH229567   2.944   4.080  18.310  0.6677 -0.3550 -0.6273
 1791TIP3    H129568   3.022   4.027  18.296  2.8060  2.1028  1.1693
 1791TIP3    H229569   2.928   4.075  18.404 -0.8103 -0.0608 -0.8379
 1792TIP3   OH229570   4.583   7.660  18.716  0.0700  0.2838  0.3443
 1792TIP3    H129571   4.529   7.700  18.783 -1.7599  1.5438 -1.7551
 1792TIP3    H229572   4.662   7.714  18.714 -1.4788  2.6856 -1.0157
 1793TIP3   OH229573   7.410   2.197  19.116  0.2937  0.2017  0.4174
 1793TIP3    H129574   7.492   2.218  19.160  0.3271 -0.3759  0.6384
 1793TIP3    H229575   7.413   2.102  19.104 -0.0041  0.2685 -0.2522
 1794TIP3   OH229576   0.940   1.653  17.452 -0.5784  0.1955 -0.4249
 1794TIP3    H129577   0.982   1.568  17.464  0.1116  0.3160 -1.7738
 1794TIP3    H229578   0.899   1.648  17.366  0.7174  1.7051 -1.1728
 1795TIP3   OH229579   1.840   3.974  18.595  0.3399  0.0443  0.4725
 1795TIP3    H129580   1.788   4.038  18.644  0.5843  0.8528 -0.3175
 1795TIP3    H229581   1.799   3.970  18.509 -0.1731 -1.4809  0.7482
 1796TIP3   OH229582   5.632   7.410  18.515  0.4394  0.0090  0.1944
 1796TIP3    H129583   5.618   7.344  18.447  1.1652 -0.6009  0.6182
 1796TIP3    H229584   5.685   7.478  18.473  0.2582 -0.0023 -0.0535
 1797TIP3   OH229585   6.535   0.327  17.805  0.2523 -0.2649  0.3463
 1797TIP3    H129586   6.455   0.358  17.761  0.0305 -1.3407 -0.0486
 1797TIP3    H229587   6.508   0.315  17.896 -0.1840 -1.0232  0.1356
 1798TIP3   OH229588   1.782   0.044  19.101  0.0840  0.8337  0.1603
 1798TIP3    H129589   1.775   0.004  19.187 -2.0006  0.7217 -0.0130
 1798TIP3    H229590   1.729  -0.011  19.044  0.7223  1.3967 -1.0166
 1799TIP3   OH229591   5.024   1.859  18.452 -0.0407  0.3034  0.0510
 1799TIP3    H129592   5.063   1.876  18.366 -1.3008  0.6664 -0.4625
 1799TIP3    H229593   4.958   1.928  18.462 -0.7794 -0.4943  0.7611
 1800TIP3   OH229594   1.338   4.784  18.143 -0.1799 -0.1243 -0.5275
 1800TIP3    H129595   1.325   4.817  18.232  1.7292 -1.9497  0.4882
 1800TIP3    H229596   1.249   4.762  18.113 -0.7800 -0.1663  1.1813
 1801TIP3   OH229597   6.151   4.809  17.172  0.8339 -0.0536 -0.7747
 1801TIP3    H129598   6.231   4.841  17.129  1.2947  0.4107  0.4058
 1801TIP3    H229599   6.181   4.739  17.230  0.3578  0.0340 -0.4200
 1802TIP3   OH229600   2.626   4.086  19.241 -0.0568 -0.2621  0.4415
 1802TIP3    H129601   2.704   4.109  19.292  0.3286  0.0242 -0.2623
 1802TIP3    H229602   2.609   4.164  19.188  0.1682 -0.9192 -0.6259
 1803TIP3   OH229603   2.989   7.005  16.982  0.2861 -0.0019  0.2244
 1803TIP3    H129604   2.932   7.078  16.957  0.6737  1.1708  2.4474
 1803TIP3    H229605   3.075   7.027  16.946 -0.0480 -0.4296 -0.8642
 1804TIP3   OH229606   0.878   4.125  18.335 -0.2340 -0.2115  0.0817
 1804TIP3    H129607   0.949   4.189  18.325 -1.7018  1.6639  0.9791
 1804TIP3    H229608   0.827   4.132  18.255 -0.6120  0.0480  0.3389
 1805TIP3   OH229609   3.644   0.361  19.263 -0.4494 -0.1333 -0.5056
 1805TIP3    H129610   3.722   0.324  19.305 -0.6603 -0.4423 -0.3746
 1805TIP3    H229611   3.624   0.301  19.192 -1.3414 -0.8208  0.2863
 1806TIP3   OH229612   5.631   6.750  18.595  0.2935  0.0331  0.4455
 1806TIP3    H129613   5.670   6.665  18.574  0.0766  0.2181 -0.8138
 1806TIP3    H229614   5.667   6.810  18.529 -0.2336  0.7275  0.7748
 1807TIP3   OH229615   0.809   4.586  17.596 -0.4846  0.2082  0.5564
 1807TIP3    H129616   0.729   4.608  17.548 -0.1806 -0.8555 -0.4938
 1807TIP3    H229617   0.877   4.638  17.556 -0.2017 -0.7959 -0.3163
 1808TIP3   OH229618   0.891   5.966  17.624 -0.3131  0.1384 -0.6754
 1808TIP3    H129619   0.985   5.979  17.625 -0.3611  0.4825 -0.4868
 1808TIP3    H229620   0.877   5.885  17.673 -0.2120  0.7806  0.4621
 1809TIP3   OH229621   0.448   0.894  17.934  0.2906  0.2020  0.0095
 1809TIP3    H129622   0.421   0.810  17.972  0.2552  0.6525  1.0151
 1809TIP3    H229623   0.506   0.871  17.862  2.5626 -0.6710  2.0001
 1810TIP3   OH229624   7.414   3.978  19.096 -0.0727  0.1345 -0.4406
 1810TIP3    H129625   7.465   3.938  19.026  0.7710 -0.3586  0.4403
 1810TIP3    H229626   7.478   4.003  19.162 -1.0278 -1.3706  1.1371
 1811TIP3   OH229627   0.962   0.350  17.818 -0.4761  0.6811 -0.0085
 1811TIP3    H129628   1.015   0.325  17.742  0.0284 -1.4920  0.9909
 1811TIP3    H229629   0.875   0.316  17.799 -0.5123  0.7078  0.1066
 1812TIP3   OH229630   0.020   6.731  17.860 -0.1877  0.4309 -0.4691
 1812TIP3    H129631   0.086   6.778  17.809 -0.0674 -0.0616 -0.7724
 1812TIP3    H229632   0.068   6.659  17.902 -0.6278 -0.2592 -1.1310
 1813TIP3   OH229633   7.562   7.053  19.422 -0.5417  0.1793  0.5226
 1813TIP3    H129634   7.484   6.998  19.431  0.2988 -0.8016  2.4573
 1813TIP3    H229635   7.580   7.083  19.511  0.7175  1.2134 -0.0552
 1814TIP3   OH229636   2.309   4.727  17.931 -0.6168 -0.1346 -0.5672
 1814TIP3    H129637   2.280   4.791  17.866 -4.4231 -0.7258  0.2658
 1814TIP3    H229638   2.311   4.776  18.013  0.6877 -0.1668 -0.5722
 1815TIP3   OH229639   4.701   5.374  18.865  0.1008 -0.3790 -0.2470
 1815TIP3    H129640   4.764   5.414  18.925 -0.5227  0.2606 -0.0049
 1815TIP3    H229641   4.631   5.438  18.857 -0.5353 -1.0838 -0.4996
 1816TIP3   OH229642   5.688   5.632  16.583 -0.1878  0.3997 -0.4217
 1816TIP3    H129643   5.725   5.627  16.495  1.2654  1.7654  0.0667
 1816TIP3    H229644   5.596   5.657  16.569 -0.6262 -1.6211 -1.5969
 1817TIP3   OH229645   1.919   2.203  18.521  0.1477  0.0292  0.2332
 1817TIP3    H129646   1.985   2.250  18.573  0.3520  0.7243 -0.6254
 1817TIP3    H229647   1.875   2.272  18.471 -0.7475 -0.5166  0.2574
 1818TIP3   OH229648   6.323   2.648  19.359 -0.0113 -0.3876 -0.9822
 1818TIP3    H129649   6.390   2.673  19.423 -1.8260 -0.5293  1.0991
 1818TIP3    H229650   6.284   2.731  19.332  0.3619 -0.3704 -1.4836
 1819TIP3   OH229651   2.523   0.264  19.375  0.2134 -0.1352 -0.0208
 1819TIP3    H129652   2.504   0.308  19.457  0.1333  0.3015 -0.2718
 1819TIP3    H229653   2.441   0.222  19.351  0.1306  0.0510 -0.0673
 1820TIP3   OH229654   7.602   4.854  18.096 -0.5550 -0.1319 -0.2736
 1820TIP3    H129655   7.639   4.926  18.149 -0.0284 -0.2795 -0.4362
 1820TIP3    H229656   7.518   4.835  18.138  0.5712 -1.3653  1.5644
 1821TIP3   OH229657   0.720   2.998  17.393  0.6762  0.2908  0.4692
 1821TIP3    H129658   0.637   2.962  17.425  0.4336  2.1473  2.1234
 1821TIP3    H229659   0.787   2.956  17.447  0.4746  1.5162  1.7134
 1822TIP3   OH229660   1.988   6.583  17.624 -0.0884 -0.2036  0.3405
 1822TIP3    H129661   1.920   6.571  17.557 -0.8587  0.1716  1.0236
 1822TIP3    H229662   2.011   6.494  17.651 -0.9555 -0.3286  0.7152
 1823TIP3   OH229663   4.272   1.904  17.066 -0.3988 -0.1556 -0.4921
 1823TIP3    H129664   4.206   1.908  16.996  2.0188  1.1885 -2.8574
 1823TIP3    H229665   4.356   1.911  17.021  1.4133 -1.2804  2.4355
 1824TIP3   OH229666   0.685   1.487  18.259  0.3550  0.0160  0.2654
 1824TIP3    H129667   0.711   1.424  18.326  0.5743 -1.1232 -0.8438
 1824TIP3    H229668   0.602   1.454  18.225 -0.2157  1.0825  0.5898
 1825TIP3   OH229669   1.472   6.046  18.423 -0.4552 -0.4941  0.1971
 1825TIP3    H129670   1.491   5.964  18.469 -0.5805 -1.7008 -1.8049
 1825TIP3    H229671   1.458   6.020  18.332 -0.7084  1.7425 -0.4574
 1826TIP3   OH229672   1.285   2.387  17.123  0.3099 -0.3534  0.1618
 1826TIP3    H129673   1.274   2.348  17.036  1.8757 -3.5331  1.2253
 1826TIP3    H229674   1.337   2.466  17.108  0.6064 -0.8818 -1.7753
 1827TIP3   OH229675   1.381   5.599  18.867  0.2583 -0.0630 -0.4328
 1827TIP3    H129676   1.413   5.558  18.947  0.1226  1.3336  0.3644
 1827TIP3    H229677   1.287   5.612  18.882  0.3690  0.8889 -0.4893
 1828TIP3   OH229678   6.075   5.052  18.197  0.1467  0.2804 -0.1151
 1828TIP3    H129679   6.085   4.959  18.176  1.7977  0.2328  0.7388
 1828TIP3    H229680   6.068   5.095  18.112 -1.3707 -0.6670 -0.5109
 1829TIP3   OH229681   0.168   3.389  17.616  0.4094  0.5869  0.0393
 1829TIP3    H129682   0.145   3.411  17.706 -0.7317  0.6894 -0.2600
 1829TIP3    H229683   0.111   3.316  17.593  0.1388  1.0494 -0.8352
 1830TIP3   OH229684   6.436   3.453  17.831  0.3517  0.2030 -0.2909
 1830TIP3    H129685   6.348   3.491  17.839 -0.8342 -2.1374 -1.3285
 1830TIP3    H229686   6.428   3.387  17.762  3.3070  0.8685 -1.4410
 1831TIP3   OH229687   3.108   2.179  17.064 -0.2778  0.0601 -0.6464
 1831TIP3    H129688   3.158   2.101  17.041 -0.8377 -0.4040 -0.3166
 1831TIP3    H229689   3.102   2.229  16.983  1.0635  0.3255 -0.5948
 1832TIP3   OH229690   7.280   2.740  18.274  0.2661 -0.2403  0.4488
 1832TIP3    H129691   7.288   2.823  18.227  0.0840  1.6615  3.4665
 1832TIP3    H229692   7.326   2.676  18.219  0.5818  1.8651 -1.9130
 1833TIP3   OH229693   2.325   2.633  18.452 -0.2978 -0.3153 -0.2444
 1833TIP3    H129694   2.351   2.543  18.471  1.5229 -0.6897 -3.6285
 1833TIP3    H229695   2.366   2.685  18.521 -1.2001 -1.9621  1.6496
 1834TIP3   OH229696   6.573   1.984  18.635  0.1733 -0.2460  0.2013
 1834TIP3    H129697   6.656   1.984  18.588 -0.1221  1.2423 -0.3646
 1834TIP3    H229698   6.587   2.044  18.709 -0.4405  0.1425  0.0097
 1835TIP3   OH229699   7.040   2.757  17.951 -0.4223 -0.6419 -0.2038
 1835TIP3    H129700   7.077   2.685  17.901 -1.0999 -0.0499 -1.5982
 1835TIP3    H229701   6.993   2.715  18.023  0.7547 -1.4969  0.0870
 1836TIP3   OH229702   1.186   7.100  18.934  0.4998 -0.1123 -0.0104
 1836TIP3    H129703   1.266   7.146  18.959  1.1263 -1.0014 -0.3530
 1836TIP3    H229704   1.115   7.158  18.964  1.2533  0.3355  0.9618
 1837TIP3   OH229705   5.745   0.489  17.740  0.0410  0.5504  0.0623
 1837TIP3    H129706   5.746   0.575  17.698 -0.1032  1.0631  1.0570
 1837TIP3    H229707   5.704   0.505  17.826 -0.3505 -0.5837  0.1103
 1838TIP3   OH229708   0.578   3.458  17.718 -0.1797 -0.1884 -0.1699
 1838TIP3    H129709   0.597   3.439  17.626 -0.6879  1.0067 -0.5528
 1838TIP3    H229710   0.510   3.526  17.714 -3.1601 -2.8025  1.0573
 1839TIP3   OH229711   3.602   1.350  18.453 -0.6787 -0.2050 -0.4183
 1839TIP3    H129712   3.639   1.262  18.454 -1.0053 -0.3425 -0.2719
 1839TIP3    H229713   3.568   1.363  18.542 -1.1973 -0.1765 -0.6175
 1840TIP3   OH229714   0.517   3.749  19.361  0.4381 -0.0015  0.5753
 1840TIP3    H129715   0.596   3.801  19.375  1.2621 -1.0084 -0.1865
 1840TIP3    H229716   0.534   3.701  19.281 -0.9816 -0.2067  0.3757
 1841TIP3   OH229717   3.201   4.717  17.851  0.1975 -0.0259 -0.0396
 1841TIP3    H129718   3.146   4.673  17.915 -1.4337  0.3930 -1.0824
 1841TIP3    H229719   3.164   4.805  17.843  1.6407  0.6165 -0.0684
 1842TIP3   OH229720   1.909   5.824  18.464 -0.0463 -0.1300 -0.5781
 1842TIP3    H129721   1.948   5.773  18.536  0.2401 -0.0545 -0.6773
 1842TIP3    H229722   1.842   5.877  18.506  0.4698  0.2978 -0.2805
 1843TIP3   OH229723   3.581   4.702  19.287  0.3241 -0.4611  0.8764
 1843TIP3    H129724   3.494   4.667  19.305 -0.4117  1.4642  1.2938
 1843TIP3    H229725   3.641   4.645  19.335 -0.7909 -1.1717  1.4517
 1844TIP3   OH229726   0.322   0.216  19.081  0.5261  0.0063 -0.7017
 1844TIP3    H129727   0.414   0.239  19.067  0.4681  0.2386 -0.7083
 1844TIP3    H229728   0.321   0.121  19.080  0.8678 -0.0090 -0.0520
 1845TIP3   OH229729   6.265   0.447  17.775 -0.0861  0.2695 -0.8290
 1845TIP3    H129730   6.252   0.525  17.830 -0.3887 -1.6817  2.1113
 1845TIP3    H229731   6.177   0.413  17.761  0.2028 -1.1814  0.6001
 1846TIP3   OH229732   2.069   1.021  17.667 -0.2876 -0.2339  0.4734
 1846TIP3    H129733   2.157   0.983  17.663 -0.3765 -0.3810 -0.4102
 1846TIP3    H229734   2.080   1.104  17.713  0.4086 -0.0230 -0.0593
 1847TIP3   OH229735   6.320   5.188  19.646 -0.1546 -0.2419  0.2174
 1847TIP3    H129736   6.330   5.155  19.557  0.8878  1.2447 -0.2516
 1847TIP3    H229737   6.232   5.226  19.648  0.1114  0.4059 -0.4115
 1848TIP3   OH229738   2.238   7.277  18.148 -0.5588 -0.2063 -0.3235
 1848TIP3    H129739   2.174   7.218  18.188 -0.4630  0.4209  0.7986
 1848TIP3    H229740   2.186   7.335  18.093 -0.8836 -0.1569  0.0294
 1849TIP3   OH229741   3.239   1.581  19.222 -0.6164  0.6577 -0.1185
 1849TIP3    H129742   3.222   1.555  19.312 -1.7458  2.0262  0.0907
 1849TIP3    H229743   3.206   1.509  19.169 -1.0703  0.3805  0.5341
 1850TIP3   OH229744   0.045   4.891  19.421  0.1176 -0.7260 -0.3500
 1850TIP3    H129745   0.074   4.830  19.353 -1.4297  1.2106 -2.9561
 1850TIP3    H229746   0.118   4.896  19.482  2.4854 -1.0767 -2.9684
 1851TIP3   OH229747   2.251   3.773  17.152 -0.5865 -0.4388 -0.1095
 1851TIP3    H129748   2.330   3.769  17.207 -0.0603  0.5025 -0.7827
 1851TIP3    H229749   2.240   3.683  17.120  1.2097 -0.2684 -1.3569
 1852TIP3   OH229750   4.125   1.641  19.133  0.7261  0.0875 -0.2539
 1852TIP3    H129751   4.177   1.578  19.085 -0.8707 -2.0831  0.7085
 1852TIP3    H229752   4.126   1.610  19.224  0.0779  1.5678  0.3007
 1853TIP3   OH229753   5.991   5.364  17.539  0.2339  0.1219 -0.1803
 1853TIP3    H129754   5.913   5.337  17.589  0.5307  1.3866  1.0025
 1853TIP3    H229755   5.970   5.452  17.507  1.5509  0.9055  1.0230
 1854TIP3   OH229756   7.369   1.961  18.103  0.3378 -0.1571  0.3210
 1854TIP3    H129757   7.394   1.896  18.036  1.4355  1.2798 -0.7363
 1854TIP3    H229758   7.302   2.014  18.060  1.7720  1.4137 -0.0709
 1855TIP3   OH229759   5.272   7.413  18.449 -0.1518  0.4567  0.0492
 1855TIP3    H129760   5.273   7.317  18.446 -0.7581  0.4053  1.1841
 1855TIP3    H229761   5.197   7.435  18.504  1.6109  1.5110  2.1987
 1856TIP3   OH229762   3.218   0.647  17.021  0.3515 -0.1752  0.1977
 1856TIP3    H129763   3.194   0.556  17.004  1.4162 -0.4962  0.3403
 1856TIP3    H229764   3.222   0.687  16.934 -2.2918  0.3409  0.2449
 1857TIP3   OH229765   7.073   5.385  17.859  1.0010  0.4609  0.6729
 1857TIP3    H129766   7.127   5.461  17.835  0.0834  0.9281  0.0493
 1857TIP3    H229767   7.079   5.326  17.784 -2.8379  2.4495 -1.4515
 1858TIP3   OH229768   5.928   6.441  19.505 -0.5421  0.2801  0.6153
 1858TIP3    H129769   5.859   6.457  19.440 -0.5193 -0.5674  0.3706
 1858TIP3    H229770   5.965   6.356  19.480  1.7199  1.4400 -0.2426
 1859TIP3   OH229771   3.502   4.054  17.583 -0.1023 -0.2629 -0.1498
 1859TIP3    H129772   3.408   4.074  17.584 -0.0474  0.0440  1.0619
 1859TIP3    H229773   3.520   4.023  17.672  0.8809 -0.6502 -0.4745
 1860TIP3   OH229774   4.175   7.038  16.951  0.4112 -0.3537 -0.0689
 1860TIP3    H129775   4.208   6.952  16.974 -0.1861 -1.2098 -2.1849
 1860TIP3    H229776   4.090   7.021  16.909  0.1905  1.2727 -0.3647
 1861TIP3   OH229777   1.347   0.487  19.449 -0.1433 -0.4565 -0.3329
 1861TIP3    H129778   1.375   0.405  19.491 -1.5877 -1.4048 -1.0970
 1861TIP3    H229779   1.313   0.540  19.521 -0.7627 -1.2480 -0.0222
 1862TIP3   OH229780   4.159   3.869  16.640 -0.2944 -0.2181 -0.4944
 1862TIP3    H129781   4.167   3.922  16.719 -0.6849 -0.1089 -0.5261
 1862TIP3    H229782   4.172   3.779  16.669 -0.4630 -0.1800 -0.3049
 1863TIP3   OH229783   3.050   0.034  17.561 -0.3129  0.9444  0.1896
 1863TIP3    H129784   3.095   0.107  17.603 -0.5114  2.2071 -1.6806
 1863TIP3    H229785   3.048   0.057  17.468 -0.8801 -1.1878 -0.3883
 1864TIP3   OH229786   2.612   7.023  17.825 -0.1899 -0.1590 -0.5999
 1864TIP3    H129787   2.532   7.069  17.850 -0.1280 -0.2584 -0.2044
 1864TIP3    H229788   2.582   6.938  17.794 -0.3173  0.1987 -1.4864
 1865TIP3   OH229789   6.891   6.002  17.404 -0.5254 -0.5075 -0.0222
 1865TIP3    H129790   6.942   6.047  17.337 -1.2728 -1.1675 -1.0567
 1865TIP3    H229791   6.896   6.059  17.481  0.3360  0.2596 -0.6374
 1866TIP3   OH229792   5.127   5.395  18.211 -0.2752 -0.2210 -0.0560
 1866TIP3    H129793   5.099   5.310  18.246 -0.0712  0.4084  1.7427
 1866TIP3    H229794   5.051   5.453  18.226 -0.4140 -0.0713 -1.2712
 1867TIP3   OH229795   7.032   6.591  17.311 -0.6876  0.0163 -0.9350
 1867TIP3    H129796   7.041   6.499  17.337  2.8229  0.4506 -0.1111
 1867TIP3    H229797   7.032   6.640  17.394 -2.4296  0.8199 -1.3687
 1868TIP3   OH229798   0.807   1.721  17.033 -0.3970  0.0145  0.3233
 1868TIP3    H129799   0.734   1.743  17.091  0.9768  2.5039  1.2882
 1868TIP3    H229800   0.781   1.755  16.947 -0.1393  1.6026  0.8321
 1869TIP3   OH229801   2.303   5.820  17.239  0.2175  0.0897 -0.1876
 1869TIP3    H129802   2.271   5.731  17.256 -0.9182  0.2954 -1.0872
 1869TIP3    H229803   2.330   5.818  17.147  1.5240  0.3191  0.1691
 1870TIP3   OH229804   6.786   1.654  18.161  0.0809  0.1869 -0.5711
 1870TIP3    H129805   6.783   1.579  18.221 -0.0402 -0.6114 -1.5380
 1870TIP3    H229806   6.854   1.631  18.098 -0.2394  0.7036 -1.1128
 1871TIP3   OH229807   3.720   6.996  18.654 -0.7238  0.8245  0.7900
 1871TIP3    H129808   3.790   6.941  18.688 -1.2404  0.5762  1.4559
 1871TIP3    H229809   3.749   7.018  18.565  0.4408  1.1514  1.2277
 1872TIP3   OH229810   0.390   5.574  18.546 -0.4143  0.4361  0.0058
 1872TIP3    H129811   0.440   5.573  18.464 -0.6514 -1.5760 -0.1487
 1872TIP3    H229812   0.319   5.637  18.530  2.2344  3.8400  0.4342
 1873TIP3   OH229813   3.047   2.785  17.394 -0.4145  0.0051 -0.1669
 1873TIP3    H129814   3.095   2.808  17.315  0.2496  3.1185  1.0064
 1873TIP3    H229815   3.106   2.727  17.442 -0.2833 -0.8355 -1.3075
 1874TIP3   OH229816   1.892   2.310  19.110  0.2250 -0.3658 -0.7810
 1874TIP3    H129817   1.862   2.348  19.028 -0.0566  0.1096 -0.4660
 1874TIP3    H229818   1.827   2.243  19.132  0.4269 -0.6526 -1.0621
 1875TIP3   OH229819   5.033   3.049  17.597  0.2068 -0.0532 -0.2984
 1875TIP3    H129820   5.035   3.105  17.519 -2.3043  1.1692  0.4147
 1875TIP3    H229821   4.976   2.976  17.573  0.2552 -0.2118  0.0706
 1876TIP3   OH229822   3.622   5.117  19.642  0.6594  0.7765  0.6631
 1876TIP3    H129823   3.599   5.055  19.573 -1.8886  2.5435 -0.2310
 1876TIP3    H229824   3.705   5.085  19.677 -0.7499 -3.4475  0.7108
 1877TIP3   OH229825   6.441   4.057  17.715  0.0291 -0.1096  0.5636
 1877TIP3    H129826   6.535   4.037  17.714 -0.1449 -0.9345 -0.0015
 1877TIP3    H229827   6.398   3.972  17.726 -0.6276  0.3965  2.2132
 1878TIP3   OH229828   5.926   2.244  18.921 -0.0455 -0.6993 -0.5583
 1878TIP3    H129829   5.923   2.276  19.011 -0.9350  1.5749 -1.3221
 1878TIP3    H229830   5.850   2.285  18.878  1.3840 -0.1875 -2.8003
 1879TIP3   OH229831   5.826   4.633  17.553 -0.2337  0.3313 -0.3865
 1879TIP3    H129832   5.892   4.571  17.584 -0.7002  0.1933  0.3581
 1879TIP3    H229833   5.827   4.703  17.618 -0.8831  0.2816 -0.3221
 1880TIP3   OH229834   5.000   6.669  19.086  0.3863  0.2029  0.0619
 1880TIP3    H129835   5.087   6.630  19.089  0.3987  0.1223 -0.9728
 1880TIP3    H229836   4.960   6.632  19.007 -0.6749  0.0471  0.6552
 1881TIP3   OH229837   5.137   1.223  17.587  0.4659  0.4805 -0.1876
 1881TIP3    H129838   5.167   1.203  17.499  0.4465 -0.4198  0.0006
 1881TIP3    H229839   5.089   1.145  17.615  0.1229  0.9091  0.4672
 1882TIP3   OH229840   5.109   4.492  18.371 -0.1633 -0.2258  0.6606
 1882TIP3    H129841   5.180   4.495  18.308 -0.1408  0.2754  0.7051
 1882TIP3    H229842   5.075   4.582  18.374 -1.1798 -0.5837  0.2060
 1883TIP3   OH229843   4.071   0.324  17.274 -0.2351 -0.4142 -0.0437
 1883TIP3    H129844   3.984   0.359  17.259  0.5706  1.3783 -0.8669
 1883TIP3    H229845   4.107   0.311  17.187  0.2149 -1.4808  0.2820
 1884TIP3   OH229846   3.631   1.326  19.441  0.1892 -0.5320  0.4686
 1884TIP3    H129847   3.645   1.243  19.395  0.3918 -0.6773  0.7880
 1884TIP3    H229848   3.591   1.301  19.524 -0.8984 -0.2060  0.0500
 1885TIP3   OH229849   1.371   4.973  17.387 -0.5704 -0.0406  0.5858
 1885TIP3    H129850   1.444   5.034  17.401  0.7501 -1.4783  0.1309
 1885TIP3    H229851   1.401   4.913  17.320 -1.2475 -2.1333  2.0504
 1886TIP3   OH229852   6.952   4.648  18.948  0.9267 -0.0247  0.1898
 1886TIP3    H129853   6.934   4.710  18.878  1.8248  1.3667  1.1232
 1886TIP3    H229854   6.866   4.623  18.982  0.5508  1.7318  0.6237
 1887TIP3   OH229855   1.949   7.021  19.365  0.7204 -0.3346 -0.1917
 1887TIP3    H129856   1.856   7.018  19.339  0.0216  0.5485  1.9700
 1887TIP3    H229857   1.950   6.981  19.452  2.1619  0.7451  0.3215
 1888TIP3   OH229858   3.243   5.468  19.569 -0.0814 -0.1022  0.1415
 1888TIP3    H129859   3.294   5.541  19.602 -2.8144  1.7558  0.6196
 1888TIP3    H229860   3.296   5.391  19.589  1.7738  1.5114  2.0001
 1889TIP3   OH229861   5.663   5.343  19.611 -0.4172 -0.1742 -0.0006
 1889TIP3    H129862   5.720   5.289  19.556 -0.4727  0.5646 -0.7844
 1889TIP3    H229863   5.719   5.415  19.640 -1.6021  2.1382 -3.0548
 1890TIP3   OH229864   4.541   4.749  18.016  0.4506 -0.1979  0.1975
 1890TIP3    H129865   4.538   4.732  17.922 -0.9563  0.2210  0.1543
 1890TIP3    H229866   4.540   4.663  18.057  1.5899 -0.3993 -0.1657
 1891TIP3   OH229867   4.704   6.647  18.042 -0.3158 -0.4628  0.1507
 1891TIP3    H129868   4.762   6.675  18.112 -0.8544  0.5902  0.1883
 1891TIP3    H229869   4.641   6.588  18.085 -1.0903  0.7421  0.7256
 1892TIP3   OH229870   3.112   2.977  18.781  0.3140 -0.0215 -0.2245
 1892TIP3    H129871   3.126   2.898  18.729  0.8232  0.1712 -0.3796
 1892TIP3    H229872   3.020   2.999  18.767  0.3065 -0.2907 -0.5993
 1893TIP3   OH229873   3.037   0.036  17.975 -0.1264 -0.2479  0.1063
 1893TIP3    H129874   2.956   0.085  17.968  0.9873  1.7826  0.8034
 1893TIP3    H229875   3.086   0.059  17.895  0.6543  0.2861  0.7233
 1894TIP3   OH229876   5.107   2.354  16.559 -0.6034 -0.0458  0.0683
 1894TIP3    H129877   5.127   2.268  16.524 -1.3673 -0.7063  1.1784
 1894TIP3    H229878   5.011   2.359  16.558 -0.6409  0.0687  1.6060
 1895TIP3   OH229879   1.839   1.809  19.272 -0.4817 -0.4483  0.4224
 1895TIP3    H129880   1.756   1.843  19.304 -0.4158 -0.9727  1.1751
 1895TIP3    H229881   1.832   1.714  19.282  0.4042 -0.4737  0.9967
 1896TIP3   OH229882   1.422   3.796  17.991  0.1531 -0.3259  0.0751
 1896TIP3    H129883   1.437   3.704  18.013 -0.1935 -0.5453 -0.5645
 1896TIP3    H229884   1.506   3.839  18.008  0.9570 -1.1573 -1.5872
 1897TIP3   OH229885   2.519   2.590  18.105  0.1223 -0.0915  0.4219
 1897TIP3    H129886   2.537   2.524  18.038 -0.9820  1.0593 -1.0986
 1897TIP3    H229887   2.464   2.544  18.169  0.4825 -1.0008  0.0955
 1898TIP3   OH229888   4.265   0.446  17.861 -0.3410 -0.2034  0.1366
 1898TIP3    H129889   4.232   0.498  17.788 -0.4362 -0.6794 -0.1684
 1898TIP3    H229890   4.356   0.425  17.836 -0.6336 -1.0605 -0.2435
 1899TIP3   OH229891   5.323   1.580  17.342  0.6068 -0.4016  0.5673
 1899TIP3    H129892   5.321   1.571  17.438  0.7515 -0.1082  0.6014
 1899TIP3    H229893   5.413   1.556  17.318  1.1329  1.3036  0.7070
 1900TIP3   OH229894   2.430   7.089  18.251  0.1573  0.5671  0.2248
 1900TIP3    H129895   2.362   7.146  18.213 -0.8233 -1.1272 -0.6754
 1900TIP3    H229896   2.511   7.120  18.211 -0.6481 -0.0773 -2.0742
 1901TIP3   OH229897   1.565   6.177  17.311 -0.2122  0.5784  0.5252
 1901TIP3    H129898   1.562   6.139  17.399  0.7436 -0.8297 -0.0118
 1901TIP3    H229899   1.506   6.122  17.259  1.4292 -0.4695 -0.3313
 1902TIP3   OH229900   2.087   3.698  16.499 -0.7264 -0.2452 -0.1854
 1902TIP3    H129901   1.996   3.709  16.527 -0.4568 -0.7997  0.9721
 1902TIP3    H229902   2.137   3.753  16.559 -0.3604  0.8307 -1.4348
 1903TIP3   OH229903   6.038   7.644  16.516  0.1278 -0.1823  0.2934
 1903TIP3    H129904   6.093   7.619  16.590  1.8855 -0.2793 -0.9772
 1903TIP3    H229905   6.099   7.684  16.453 -1.4464  0.7532 -0.7278
 1904TIP3   OH229906   4.856   1.317  17.851 -0.2008 -0.3905  0.1898
 1904TIP3    H129907   4.883   1.404  17.823 -0.8619 -0.5451 -1.0215
 1904TIP3    H229908   4.930   1.283  17.901  0.3106  0.6168  0.1333
 1905TIP3   OH229909   0.896   4.828  18.904 -0.0633  0.2999  0.2013
 1905TIP3    H129910   0.852   4.795  18.982  2.9536 -1.3057  1.3903
 1905TIP3    H229911   0.925   4.750  18.857 -0.4790  1.2555 -1.7570
 1906TIP3   OH229912   7.099   0.844  18.080  0.0366  0.0391 -0.8091
 1906TIP3    H129913   7.027   0.846  18.143  1.0646 -0.0472  0.3950
 1906TIP3    H229914   7.135   0.756  18.087  0.2880  0.0896 -1.3927
 1907TIP3   OH229915   6.124   2.270  16.783  0.4049 -0.8068 -0.6921
 1907TIP3    H129916   6.093   2.360  16.787 -0.9523 -1.2407 -0.9413
 1907TIP3    H229917   6.133   2.251  16.689  1.8121 -0.5885 -0.6291
 1908TIP3   OH229918   7.086   0.412  19.377  0.0085  0.2271  0.0550
 1908TIP3    H129919   7.011   0.358  19.401 -0.8613  1.0365 -0.7488
 1908TIP3    H229920   7.110   0.381  19.289  0.2671  0.3254  0.0911
 1909TIP3   OH229921   3.992   0.038  18.098  0.2439 -0.5898 -0.4148
 1909TIP3    H129922   4.037   0.120  18.082 -0.6300  0.0998  0.5095
 1909TIP3    H229923   4.019  -0.019  18.027  3.1712 -0.4816  0.4640
 1910TIP3   OH229924   5.803   7.090  17.202 -0.5818  0.0432  0.5647
 1910TIP3    H129925   5.807   7.080  17.107 -0.1275 -1.1399  0.6857
 1910TIP3    H229926   5.717   7.056  17.226 -2.1158  3.3581  0.3051
 1911TIP3   OH229927   7.340   7.535  17.089  0.0405 -0.2966  0.3111
 1911TIP3    H129928   7.335   7.627  17.061  0.0526 -0.9427 -1.9761
 1911TIP3    H229929   7.428   7.527  17.127 -0.2365  0.7930  1.2361
 1912TIP3   OH229930   6.031   3.250  18.240 -0.0850  0.0390  0.3701
 1912TIP3    H129931   6.072   3.225  18.322 -1.3963 -0.1964  0.9816
 1912TIP3    H229932   6.075   3.331  18.214 -0.2291  0.5709  1.7433
 1913TIP3   OH229933   0.946   6.877  17.792  0.1040  0.1027  0.6268
 1913TIP3    H129934   0.976   6.840  17.709  0.8257 -0.6661  1.2240
 1913TIP3    H229935   0.985   6.964  17.795 -1.2950  0.8400 -0.6079
 1914TIP3   OH229936   7.351   6.864  19.430 -0.5836 -0.8145 -0.3671
 1914TIP3    H129937   7.268   6.910  19.415 -0.0141 -0.0941 -1.4244
 1914TIP3    H229938   7.336   6.776  19.396 -0.7734 -0.5414 -1.0132
 1915TIP3   OH229939   4.635   6.413  17.449 -0.4944  0.0328  0.3823
 1915TIP3    H129940   4.657   6.421  17.542 -0.4336  0.7745  0.3088
 1915TIP3    H229941   4.622   6.503  17.419 -2.1632 -0.2798  0.0604
 1916TIP3   OH229942   4.571   0.161  19.292 -0.1892 -0.4335 -0.6806
 1916TIP3    H129943   4.618   0.144  19.373 -1.2929  0.3125  0.1361
 1916TIP3    H229944   4.487   0.117  19.303 -0.5835  0.1830 -1.1647
 1917TIP3   OH229945   3.261   4.082  16.259 -0.1199 -0.0051  0.4214
 1917TIP3    H129946   3.229   4.171  16.275 -0.7809 -0.1342 -0.1195
 1917TIP3    H229947   3.348   4.079  16.300 -0.3171  0.7209  0.8994
 1918TIP3   OH229948   5.126   4.169  18.414  1.2673 -0.4057  0.4095
 1918TIP3    H129949   5.101   4.082  18.382  3.6073 -0.6381 -1.0516
 1918TIP3    H229950   5.094   4.229  18.346  0.2636 -0.1672  1.0748
 1919TIP3   OH229951   3.580   5.882  19.566  0.1006 -0.1342  0.2473
 1919TIP3    H129952   3.599   5.959  19.620  0.6632  0.9522 -1.4211
 1919TIP3    H229953   3.665   5.842  19.551  0.3279  1.0290 -1.8777
 1920TIP3   OH229954   1.300   1.869  19.668 -0.0645  0.0357 -0.0789
 1920TIP3    H129955   1.205   1.858  19.675 -0.0975 -0.7671 -1.3392
 1920TIP3    H229956   1.323   1.927  19.741 -1.4295 -0.2306  0.6093
 1921TIP3   OH229957   0.040   6.647  18.874  0.0052  0.6911  0.2093
 1921TIP3    H129958   0.055   6.562  18.832  0.0318  1.4442 -1.3335
 1921TIP3    H229959   0.086   6.710  18.819 -1.0575  1.8703  0.6356
 1922TIP3   OH229960   2.690   0.421  19.227  0.1994  0.1845 -0.2502
 1922TIP3    H129961   2.639   0.356  19.276  0.0131  0.3102 -0.2771
 1922TIP3    H229962   2.676   0.503  19.273 -1.0974  0.5871 -1.2809
 1923TIP3   OH229963   4.803   6.834  19.536 -0.2908 -0.3446 -0.0066
 1923TIP3    H129964   4.862   6.821  19.461 -0.5952 -1.2281 -0.1014
 1923TIP3    H229965   4.740   6.763  19.529  0.7232 -1.5170  2.1120
 1924TIP3   OH229966   3.364   3.444  18.720  0.3919 -0.6568  0.0285
 1924TIP3    H129967   3.275   3.449  18.685 -0.1756 -1.6136  1.2691
 1924TIP3    H229968   3.352   3.414  18.810  2.0733 -2.6703 -0.3495
 1925TIP3   OH229969   1.686   6.565  17.539 -0.0205  0.4600 -0.2346
 1925TIP3    H129970   1.733   6.489  17.573 -0.0441 -0.1583 -1.5174
 1925TIP3    H229971   1.614   6.579  17.600 -0.2327 -0.7839 -0.1835
 1926TIP3   OH229972   1.053   4.685  19.172 -0.2297  0.4575  0.4318
 1926TIP3    H129973   1.017   4.774  19.165 -2.9947 -0.5605  0.2864
 1926TIP3    H229974   1.032   4.658  19.261  0.8146  0.0149  0.5520
 1927TIP3   OH229975   7.481   3.363  18.166  0.1430 -0.2096  0.5411
 1927TIP3    H129976   7.443   3.436  18.117  2.8559  0.1582 -1.2178
 1927TIP3    H229977   7.526   3.404  18.240  1.8055 -0.0146 -0.5378
 1928TIP3   OH229978   6.774   5.275  17.771  0.3000 -0.0464  0.5417
 1928TIP3    H129979   6.776   5.211  17.700 -0.2765 -0.0634  0.5345
 1928TIP3    H229980   6.848   5.334  17.753  1.1907 -1.0359  0.8616
 1929TIP3   OH229981   5.985   2.706  17.692 -0.0241  0.2541  0.9870
 1929TIP3    H129982   6.040   2.771  17.647  2.1695 -0.7365  2.1093
 1929TIP3    H229983   5.958   2.646  17.622  0.2219  0.8288  0.3847
 1930TIP3   OH229984   5.330   2.597  17.379 -0.0820  0.3577  0.0940
 1930TIP3    H129985   5.352   2.590  17.286  0.0681 -0.7035  0.1967
 1930TIP3    H229986   5.406   2.562  17.424 -0.7115 -0.4441  0.5586
 1931TIP3   OH229987   5.773   3.530  17.729  0.3471 -0.5073  0.3175
 1931TIP3    H129988   5.722   3.605  17.697  0.5124 -0.4461  0.2003
 1931TIP3    H229989   5.717   3.490  17.795 -1.3606 -2.4076 -2.0648
 1932TIP3   OH229990   1.874   3.824  18.283  0.0278  0.2325 -0.5720
 1932TIP3    H129991   1.837   3.833  18.371 -0.5826  0.8339 -0.8790
 1932TIP3    H229992   1.949   3.883  18.282  1.5167 -1.5550  0.3022
 1933TIP3   OH229993   5.319   7.658  17.834  0.2553  0.3213 -0.5718
 1933TIP3    H129994   5.262   7.659  17.758 -0.3815  1.9479 -0.1099
 1933TIP3    H229995   5.407   7.663  17.798  0.1144 -1.3926 -1.2592
 1934TIP3   OH229996   6.068   1.897  18.751  0.5953  0.3320 -0.2329
 1934TIP3    H129997   5.983   1.868  18.786  0.3756  1.2508  0.0031
 1934TIP3    H229998   6.088   1.833  18.682  0.7610 -1.1915  1.1438
 1935TIP3   OH229999   3.855   2.765  18.437  0.1827  0.1433 -0.2637
 1935TIP3    H130000   3.889   2.763  18.348  2.2533 -0.2134  0.4724
 1935TIP3    H230001   3.806   2.683  18.447  0.5437 -0.1481 -0.8628
 1936TIP3   OH230002   0.189   1.718  17.634  0.3412  0.3547 -0.1114
 1936TIP3    H130003   0.128   1.752  17.568 -1.2636  0.2150  1.2536
 1936TIP3    H230004   0.272   1.762  17.614 -0.6045  1.8132 -1.0153
 1937TIP3   OH230005   4.089   2.582  18.859 -0.1428 -0.1169 -0.4548
 1937TIP3    H130006   4.125   2.607  18.774  0.3218 -2.7931 -1.1496
 1937TIP3    H230007   4.125   2.646  18.921 -1.6121  2.7737 -2.3634
 1938TIP3   OH230008   7.397   2.242  18.513 -0.0394 -0.1740  0.3788
 1938TIP3    H130009   7.385   2.195  18.430  1.6404 -1.9469  1.0888
 1938TIP3    H230010   7.312   2.234  18.557  0.2841 -2.9744  0.6459
 1939TIP3   OH230011   0.122   4.663  19.071 -0.1541 -0.5528  0.1775
 1939TIP3    H130012   0.144   4.606  18.997  1.6945 -0.2371  0.4240
 1939TIP3    H230013   0.068   4.732  19.032 -0.6924 -1.3520 -0.5231
 1940TIP3   OH230014   2.664   5.891  17.119 -0.4303  0.9266  0.0780
 1940TIP3    H130015   2.647   5.975  17.075  0.4929  1.5200  0.8133
 1940TIP3    H230016   2.619   5.826  17.065 -0.6342  1.8186 -0.8595
 1941TIP3   OH230017   7.370   3.154  17.333  0.3831 -0.1566  0.1299
 1941TIP3    H130018   7.290   3.109  17.304 -0.6057  0.8724  1.1693
 1941TIP3    H230019   7.415   3.178  17.252 -0.9217  0.2374 -0.5007
 1942TIP3   OH230020   1.889   2.750  17.939 -0.3747  0.3095  0.1750
 1942TIP3    H130021   1.957   2.785  17.997  1.9771  1.6454 -3.0667
 1942TIP3    H230022   1.855   2.828  17.894 -1.3091 -0.7360 -0.9872
 1943TIP3   OH230023   6.029   0.655  17.977  0.3327 -0.2844  0.3795
 1943TIP3    H130024   5.956   0.654  18.039 -0.2137 -0.4033 -0.2515
 1943TIP3    H230025   5.990   0.686  17.895  0.6452 -1.8796 -0.3941
 1944TIP3   OH230026   1.853   1.199  18.152 -0.0979  0.2791 -0.0285
 1944TIP3    H130027   1.806   1.226  18.073 -0.2457  1.6912  0.5032
 1944TIP3    H230028   1.898   1.119  18.127 -1.4144 -0.1767 -1.0671
 1945TIP3   OH230029   5.013   6.421  19.294  0.6136  0.1761  0.3727
 1945TIP3    H130030   4.989   6.490  19.232 -0.7493 -1.4900 -1.1018
 1945TIP3    H230031   5.093   6.383  19.258  1.5110  1.1174  1.3260
 1946TIP3   OH230032   3.411   2.644  19.175  0.4155 -0.3024 -0.7260
 1946TIP3    H130033   3.498   2.604  19.178  1.1105  1.1716  1.5612
 1946TIP3    H230034   3.358   2.588  19.231  0.4344 -0.0890 -0.4930
 1947TIP3   OH230035   3.309   5.613  17.748 -0.3272  0.3247 -0.2663
 1947TIP3    H130036   3.320   5.684  17.812  1.1820 -0.4264  0.3380
 1947TIP3    H230037   3.236   5.562  17.783  1.1310 -0.6805  1.4946
 1948TIP3   OH230038   5.336   2.090  16.929  0.0745 -0.2105 -0.1598
 1948TIP3    H130039   5.392   2.162  16.902 -0.7577  1.0158  1.1924
 1948TIP3    H230040   5.396   2.027  16.970  0.8636 -0.5303 -1.7177
 1949TIP3   OH230041   1.291   4.040  17.466  0.5640  0.1306 -0.2273
 1949TIP3    H130042   1.346   4.069  17.539  0.0710  1.5030 -0.3766
 1949TIP3    H230043   1.345   4.052  17.389  0.9450 -0.9521 -0.1474
 1950TIP3   OH230044   6.319   2.454  17.338  0.4786 -0.5749  0.6141
 1950TIP3    H130045   6.311   2.525  17.402  1.0068  0.0537 -0.0045
 1950TIP3    H230046   6.280   2.378  17.382 -0.5313  0.1994  1.1104
 1951TIP3   OH230047   1.552   7.656  18.369 -0.4789 -0.2730 -0.8042
 1951TIP3    H130048   1.538   7.598  18.293 -0.8858  0.1961 -1.0887
 1951TIP3    H230049   1.625   7.713  18.342 -0.1335 -0.5895 -0.5548
 1952TIP3   OH230050   3.940   6.438  17.649  0.3876 -0.2563 -0.3612
 1952TIP3    H130051   4.025   6.424  17.608 -0.0606  1.1658 -1.9121
 1952TIP3    H230052   3.916   6.528  17.625 -0.1307  0.5393  2.7361
 1953TIP3   OH230053   6.764   7.665  19.102  0.0048  0.2146  0.2876
 1953TIP3    H130054   6.776   7.575  19.073 -0.3747  0.4994 -0.8156
 1953TIP3    H230055   6.672   7.670  19.129 -0.2345  0.4815 -0.5257
 1954TIP3   OH230056   4.859   0.411  19.068 -0.0809 -0.0456  0.0130
 1954TIP3    H130057   4.910   0.341  19.028 -1.0378 -0.4757 -0.4965
 1954TIP3    H230058   4.768   0.389  19.048 -0.6122 -0.1987  2.2506
 1955TIP3   OH230059   6.794   0.408  17.828  0.1368  0.1013 -0.0292
 1955TIP3    H130060   6.733   0.363  17.770  1.0899 -0.7411 -0.3952
 1955TIP3    H230061   6.813   0.345  17.898  0.5719  0.3535  0.0878
 1956TIP3   OH230062   2.651   1.012  17.986 -0.6298 -0.5025  0.2798
 1956TIP3    H130063   2.605   1.019  18.070 -0.5869 -0.0203  0.2658
 1956TIP3    H230064   2.581   1.004  17.921 -0.6537 -1.4009  0.4026
 1957TIP3   OH230065   3.222   0.930  17.458  0.0958 -0.2713  0.0177
 1957TIP3    H130066   3.199   0.846  17.499 -1.7329  0.5779  0.8897
 1957TIP3    H230067   3.199   0.919  17.366 -1.3645 -0.3612  0.3644
 1958TIP3   OH230068   2.646   3.031  17.597  0.1036  0.3585  0.2957
 1958TIP3    H130069   2.739   3.007  17.599 -0.0521 -0.4330 -0.7871
 1958TIP3    H230070   2.606   2.973  17.662  0.3575  0.7109  0.7755
 1959TIP3   OH230071   2.465   6.559  17.633  0.0970  0.1631 -0.5101
 1959TIP3    H130072   2.396   6.552  17.699  0.2231  0.8271 -0.2975
 1959TIP3    H230073   2.524   6.486  17.652 -0.5285 -0.4046 -0.6886
 1960TIP3   OH230074   5.975   6.733  18.119  0.3535 -0.7604 -0.0109
 1960TIP3    H130075   5.944   6.651  18.081 -0.1722 -0.3331 -0.5284
 1960TIP3    H230076   6.051   6.757  18.066 -0.4250 -0.1249 -0.8820
 1961TIP3   OH230077   2.358   4.240  18.846 -0.5974  0.0452 -0.3477
 1961TIP3    H130078   2.268   4.218  18.823  0.3648 -1.7143 -2.8581
 1961TIP3    H230079   2.383   4.309  18.785 -0.0181  0.0404 -0.1303
 1962TIP3   OH230080   0.018   5.795  18.883  0.1325  0.5950 -0.0291
 1962TIP3    H130081   0.101   5.832  18.851 -0.1549  1.0325 -0.2784
 1962TIP3    H230082  -0.030   5.771  18.803 -0.4860  1.4638  0.0697
 1963TIP3   OH230083   4.419   4.290  18.910 -0.6958  0.1268 -0.6851
 1963TIP3    H130084   4.439   4.223  18.844  0.0334 -0.3104 -0.0395
 1963TIP3    H230085   4.353   4.345  18.869  0.9530  0.8914 -2.4657
 1964TIP3   OH230086   3.389   3.476  17.435  0.2746  0.5061 -0.3906
 1964TIP3    H130087   3.301   3.489  17.399 -0.3565 -0.8262  0.5925
 1964TIP3    H230088   3.419   3.394  17.396 -0.4987 -1.0863  2.0759
 1965TIP3   OH230089   3.904   2.366  18.269 -0.0554  0.1214 -0.4337
 1965TIP3    H130090   3.928   2.277  18.243  1.2713  0.5828 -0.9068
 1965TIP3    H230091   3.933   2.421  18.196 -0.0447  1.0325  0.2347
 1966TIP3   OH230092   2.633   6.184  17.484 -0.5980  0.6772  0.5735
 1966TIP3    H130093   2.648   6.105  17.432 -0.5232 -0.2263  1.9208
 1966TIP3    H230094   2.557   6.164  17.537  1.2446  0.2204  3.2497
 1967TIP3   OH230095   2.671   0.463  17.903 -0.3292 -0.2210  0.2810
 1967TIP3    H130096   2.636   0.499  17.821 -0.3969 -0.8835  0.0124
 1967TIP3    H230097   2.672   0.537  17.964 -2.6669 -0.2768  0.4511
 1968TIP3   OH230098   1.484   6.956  18.251  0.4393 -0.0519  0.2236
 1968TIP3    H130099   1.468   6.936  18.159  1.2089  0.5645 -0.0654
 1968TIP3    H230100   1.476   6.873  18.296  0.1254 -0.3746 -0.4137
 1969TIP3   OH230101   5.422   3.820  18.258  0.0902  0.3309 -0.0144
 1969TIP3    H130102   5.395   3.912  18.261 -0.5473  0.1390  0.3085
 1969TIP3    H230103   5.345   3.773  18.226  0.6004 -0.0247 -0.7330
 1970TIP3   OH230104   0.678   2.801  17.116 -0.0202  0.1293  0.1333
 1970TIP3    H130105   0.712   2.725  17.164 -0.2346 -1.9115 -2.7061
 1970TIP3    H230106   0.586   2.781  17.102  0.1474  0.4062 -1.5118
 1971TIP3   OH230107   6.197   6.604  17.188 -0.7836  0.2523  0.1299
 1971TIP3    H130108   6.244   6.602  17.104 -0.0772 -0.7894  0.5280
 1971TIP3    H230109   6.179   6.697  17.203 -0.8016  0.4688 -1.1085
 1972TIP3   OH230110   4.104   4.790  18.665  0.2188  0.6431 -0.4278
 1972TIP3    H130111   4.170   4.822  18.603  0.5291 -0.8875 -0.9319
 1972TIP3    H230112   4.048   4.734  18.613  1.3280 -1.8444  0.8930
 1973TIP3   OH230113   6.198   5.947  17.599 -0.5903 -0.0809  0.1795
 1973TIP3    H130114   6.289   5.945  17.630  0.2068  1.7954 -1.8029
 1973TIP3    H230115   6.167   5.857  17.611  1.2616 -0.6012  1.5914
 1974TIP3   OH230116   7.082   7.541  17.538  0.0894 -0.2730  0.6684
 1974TIP3    H130117   7.040   7.479  17.479  1.5990 -0.6404 -0.0838
 1974TIP3    H230118   7.142   7.591  17.482  0.0195  0.8166  1.5307
 1975TIP3   OH230119   7.024   4.921  17.914  0.8002 -0.2811  0.7352
 1975TIP3    H130120   6.989   4.951  17.997 -0.0151  0.8284  0.0146
 1975TIP3    H230121   6.959   4.947  17.849  1.0474 -1.8009 -0.1750
 1976TIP3   OH230122   2.440   2.586  17.565 -0.4251  0.1423  0.2742
 1976TIP3    H130123   2.493   2.607  17.642  0.6733 -0.4727 -0.3038
 1976TIP3    H230124   2.350   2.584  17.599 -0.0778  0.9577  1.3130
 1977TIP3   OH230125   6.767   7.525  18.828 -0.0792 -0.6844  0.7917
 1977TIP3    H130126   6.811   7.503  18.746  0.9187  0.0458  1.1169
 1977TIP3    H230127   6.771   7.445  18.880  2.1573 -0.2506  1.3688
 1978TIP3   OH230128   1.520   0.011  19.896  0.1715  0.2154  0.2845
 1978TIP3    H130129   1.475   0.084  19.937 -0.1585  0.5551 -0.6467
 1978TIP3    H230130   1.585   0.052  19.839  1.9999 -0.2717  1.9416
 1979TIP3   OH230131   1.141   5.343  17.186  0.6080  0.2020  0.2134
 1979TIP3    H130132   1.219   5.300  17.151  1.7230  0.1760  2.5596
 1979TIP3    H230133   1.071   5.278  17.177  1.1928 -0.3377 -0.5182
 1980TIP3   OH230134   4.739   5.252  16.965 -0.0121  0.0920  0.1037
 1980TIP3    H130135   4.717   5.159  16.970  0.9027 -0.0761  2.5414
 1980TIP3    H230136   4.655   5.297  16.974 -0.5385 -0.4322 -1.7086
 1981TIP3   OH230137   1.545   3.822  17.515 -0.2733  0.2599  0.0745
 1981TIP3    H130138   1.547   3.811  17.420  1.1393  0.9029  0.0043
 1981TIP3    H230139   1.532   3.733  17.549  2.4675 -0.5202 -0.6707
 1982TIP3   OH230140   5.879   4.785  18.104 -0.3559  0.1555  0.1804
 1982TIP3    H130141   5.967   4.765  18.135 -0.3399 -1.1754 -0.6619
 1982TIP3    H230142   5.822   4.760  18.177 -0.1141 -0.0429  0.3007
 1983TIP3   OH230143   7.062   5.929  17.874  0.1253 -0.3579 -0.3346
 1983TIP3    H130144   7.039   6.006  17.823 -1.7680  0.3213  1.3845
 1983TIP3    H230145   6.978   5.888  17.895  0.7798 -0.6525  2.0451
 1984TIP3   OH230146   0.661   6.010  18.069  0.1237 -0.1368  0.3682
 1984TIP3    H130147   0.743   5.969  18.099 -0.9101 -2.4716  0.2558
 1984TIP3    H230148   0.636   5.958  17.992 -1.3487  0.6752  0.2751
 1985TIP3   OH230149   3.796   3.344  17.629  0.0413 -0.1212  0.2461
 1985TIP3    H130150   3.820   3.381  17.544 -0.4861 -0.3892 -0.0250
 1985TIP3    H230151   3.771   3.419  17.682  0.5568  0.0666  0.2308
 1986TIP3   OH230152   2.723   5.730  18.499 -0.2215 -0.0531 -0.2167
 1986TIP3    H130153   2.629   5.749  18.501 -0.1625  0.3088 -0.7130
 1986TIP3    H230154   2.728   5.638  18.472 -0.3818  0.6190 -2.8426
 1987TIP3   OH230155   0.396   7.478  19.421  0.0977 -0.4025 -0.2788
 1987TIP3    H130156   0.378   7.572  19.429  1.7992 -0.1178  0.6878
 1987TIP3    H230157   0.469   7.473  19.359 -0.0068 -1.1065 -0.3523
 1988TIP3   OH230158   2.956   1.809  18.078 -0.7415  0.3399  0.1442
 1988TIP3    H130159   2.940   1.716  18.059  0.8691  0.2266 -0.8321
 1988TIP3    H230160   2.892   1.855  18.024  0.5791 -0.1512 -1.9821
 1989TIP3   OH230161   0.450   0.132  16.561  0.3252  0.0591  0.0504
 1989TIP3    H130162   0.473   0.102  16.649 -0.9256  0.6891  0.6149
 1989TIP3    H230163   0.487   0.220  16.555 -0.5986  0.4923  0.4178
 1990TIP3   OH230164   6.036   1.574  18.275 -0.1864 -0.2227 -0.5005
 1990TIP3    H130165   5.942   1.574  18.254 -0.7852 -0.9789  1.8494
 1990TIP3    H230166   6.068   1.491  18.240 -0.2133  0.3189 -1.8730
 1991TIP3   OH230167   1.011   3.238  17.570  0.0754  1.0118  0.1455
 1991TIP3    H130168   1.097   3.240  17.611  0.3556  1.0977 -0.4285
 1991TIP3    H230169   0.978   3.150  17.587  1.5396 -0.0798 -2.1321
 1992TIP3   OH230170   5.193   3.263  19.339 -0.4305 -0.6551 -0.0892
 1992TIP3    H130171   5.206   3.284  19.246  0.2113  0.2909  0.2050
 1992TIP3    H230172   5.197   3.167  19.342 -2.3957 -0.8317 -1.3123
 1993TIP3   OH230173   6.198   2.294  17.553 -0.2507  0.3939 -0.5405
 1993TIP3    H130174   6.254   2.298  17.631  0.1850 -1.1412 -0.7298
 1993TIP3    H230175   6.169   2.203  17.550 -0.2744  0.4216 -2.1605
 1994TIP3   OH230176   1.024   2.717  18.577 -0.4653 -0.1863  0.7239
 1994TIP3    H130177   1.028   2.681  18.489  2.3967  2.9238 -0.6027
 1994TIP3    H230178   1.092   2.671  18.626  0.9261  1.0096 -0.0186
 1995TIP3   OH230179   7.594   0.466  18.045 -0.2494 -0.2172 -0.4868
 1995TIP3    H130180   7.683   0.457  18.011 -0.3872  2.0293 -1.6560
 1995TIP3    H230181   7.597   0.543  18.101 -1.4227 -0.1754 -0.4506
 1996TIP3   OH230182   4.061   3.342  17.858  0.2221 -0.6520  0.3521
 1996TIP3    H130183   3.970   3.347  17.831 -0.2352  1.3873  1.9764
 1996TIP3    H230184   4.106   3.409  17.807  0.5115 -0.6765  0.5664
 1997TIP3   OH230185   2.768   2.519  18.197  0.3343 -0.0025  0.2434
 1997TIP3    H130186   2.675   2.534  18.181  0.1492 -1.3156 -0.0545
 1997TIP3    H230187   2.779   2.531  18.291  0.0519  1.0378  0.1519
 1998TIP3   OH230188   6.391   6.578  18.206 -1.2067 -0.2249 -0.1112
 1998TIP3    H130189   6.462   6.514  18.210 -0.9050  0.1693  1.1920
 1998TIP3    H230190   6.386   6.603  18.113  0.1349 -0.4905 -0.2701
 1999TIP3   OH230191   3.100   1.318  18.568 -0.5900 -0.3935  0.1276
 1999TIP3    H130192   3.007   1.315  18.545 -0.4042 -0.7538 -0.6374
 1999TIP3    H230193   3.125   1.226  18.572 -0.1710 -0.2899 -0.1023
 2000TIP3   OH230194   1.999   4.273  18.950  0.3823  0.2886 -0.9513
 2000TIP3    H130195   2.004   4.350  19.006 -0.7373 -0.2186 -0.1152
 2000TIP3    H230196   1.992   4.199  19.010  2.3579 -0.5907 -1.7187
 2001TIP3   OH230197   0.812   4.887  17.134  0.2711  0.2255 -0.0323
 2001TIP3    H130198   0.898   4.860  17.104  0.0129  0.3978 -0.9443
 2001TIP3    H230199   0.750   4.840  17.079 -0.2288  0.0211  0.6825
 2002TIP3   OH230200   2.432   3.757  18.742  0.1939 -0.1201 -0.2025
 2002TIP3    H130201   2.409   3.789  18.654 -0.8874 -0.2036  0.0395
 2002TIP3    H230202   2.468   3.834  18.786 -0.5160  0.2663 -0.2839
 2003TIP3   OH230203   5.154   6.409  17.327 -0.4540 -0.1297  0.0268
 2003TIP3    H130204   5.233   6.460  17.346  0.9833 -2.0821 -0.3375
 2003TIP3    H230205   5.096   6.426  17.401  0.5123  0.9339  0.5847
 2004TIP3   OH230206   7.309   1.181  17.470  0.6125  0.0915 -0.2321
 2004TIP3    H130207   7.387   1.236  17.465 -0.2394  1.8078  2.7537
 2004TIP3    H230208   7.316   1.137  17.555 -1.5554  0.1772  0.0557
 2005TIP3   OH230209   5.137   2.979  18.108 -0.8757 -0.1573 -0.0996
 2005TIP3    H130210   5.150   3.039  18.034  1.3035 -1.8320 -1.1718
 2005TIP3    H230211   5.043   2.962  18.108 -1.2804  1.8277 -0.8796
 2006TIP3   OH230212   6.973   6.754  19.143 -0.2606 -0.6418  0.8183
 2006TIP3    H130213   7.023   6.721  19.068 -0.0739  1.2372  0.0553
 2006TIP3    H230214   6.956   6.676  19.197  1.6829 -1.6715  0.0586
 2007TIP3   OH230215   1.092   6.691  17.975 -0.0457 -0.3442  0.0402
 2007TIP3    H130216   1.173   6.738  17.955  0.3017 -0.3168  1.4180
 2007TIP3    H230217   1.023   6.745  17.936  0.4913  0.2973 -0.0472
 2008TIP3   OH230218   3.624   2.013  17.621  0.3007 -0.2073  0.3986
 2008TIP3    H130219   3.686   1.940  17.620  0.5848 -0.0209  2.0939
 2008TIP3    H230220   3.619   2.040  17.713  1.1765  2.7206 -0.2926
 2009TIP3   OH230221   0.418   3.481  19.428 -0.3251 -0.0168 -0.7795
 2009TIP3    H130222   0.332   3.515  19.404 -0.2065  0.2412 -0.8537
 2009TIP3    H230223   0.474   3.559  19.428 -0.3277 -0.0028  0.3935
 2010TIP3   OH230224   3.354   2.164  17.715  0.2240  0.1652  0.4241
 2010TIP3    H130225   3.342   2.132  17.625  0.1292 -0.7155  0.7419
 2010TIP3    H230226   3.356   2.085  17.769  0.6005  0.6684  1.1673
 2011TIP3   OH230227   1.988   7.396  19.649  0.0137 -0.1271 -0.0396
 2011TIP3    H130228   1.913   7.368  19.702 -1.9017  1.0357 -1.9796
 2011TIP3    H230229   1.976   7.351  19.565  1.4685  0.1601 -0.4261
 2012TIP3   OH230230   0.105   6.730  18.468  0.0091  0.1153 -0.1508
 2012TIP3    H130231   0.099   6.635  18.469 -0.8763  0.1244  2.3286
 2012TIP3    H230232   0.192   6.748  18.433 -0.3449 -1.4875 -2.0910
 2013TIP3   OH230233   0.508   4.402  16.765 -0.3250 -0.1822  0.2684
 2013TIP3    H130234   0.592   4.356  16.771 -0.2225 -0.1164 -0.5245
 2013TIP3    H230235   0.497   4.442  16.851  1.2646  1.1677 -0.0990
 2014TIP3   OH230236   1.385   0.997  17.981 -0.1951 -0.9166 -0.0326
 2014TIP3    H130237   1.311   0.952  17.940  1.6718 -2.6902 -1.6642
 2014TIP3    H230238   1.395   1.077  17.929 -0.1172 -1.3524 -0.7032
 2015TIP3   OH230239   3.062   2.601  18.318 -0.0944  0.5840  0.2857
 2015TIP3    H130240   2.991   2.658  18.349 -0.7173 -0.1463  0.2299
 2015TIP3    H230241   3.024   2.513  18.319  0.1324  0.4179 -1.7309
 2016TIP3   OH230242   6.905   2.214  19.003  0.2000  0.3983  0.2083
 2016TIP3    H130243   6.909   2.120  19.020 -1.6263  0.5590  2.0220
 2016TIP3    H230244   6.956   2.253  19.074 -1.2348  0.8344  1.0360
 2017TIP3   OH230245   1.118   3.900  18.924 -0.4478  0.0858  0.0454
 2017TIP3    H130246   1.174   3.967  18.962  1.3451 -0.2010 -1.8969
 2017TIP3    H230247   1.140   3.820  18.973  0.7031  0.0321 -0.5230
 2018TIP3   OH230248   2.455   2.776  18.649 -0.1161  0.2682  0.3407
 2018TIP3    H130249   2.447   2.869  18.628 -0.7188  0.1110 -0.1580
 2018TIP3    H230250   2.499   2.774  18.733 -0.2224  1.0128  0.4191
 2019TIP3   OH230251   4.255   7.560  18.768  0.3394  0.3386  0.0991
 2019TIP3    H130252   4.279   7.645  18.803 -1.0423  0.1766  1.5671
 2019TIP3    H230253   4.249   7.503  18.844 -0.7217 -0.5690 -0.6121
 2020TIP3   OH230254   0.554   0.465  17.433  0.1346  0.2145 -0.0818
 2020TIP3    H130255   0.517   0.489  17.518  0.5876  0.1249  0.1459
 2020TIP3    H230256   0.482   0.422  17.387 -1.0966  2.9856 -0.9771
 2021TIP3   OH230257   4.442   6.655  18.132 -0.5905 -0.1001  0.7999
 2021TIP3    H130258   4.375   6.671  18.066 -0.3068 -0.1762  0.4928
 2021TIP3    H230259   4.407   6.582  18.184 -0.7188 -0.1796  0.6033
 2022TIP3   OH230260   4.232   0.574  16.886 -0.7992 -0.1478  0.2612
 2022TIP3    H130261   4.183   0.593  16.807  0.2020  1.2377 -0.0684
 2022TIP3    H230262   4.313   0.533  16.855  0.5993  2.3800  0.3110
 2023TIP3   OH230263   3.340   0.913  17.073 -0.3850  0.1252 -0.5198
 2023TIP3    H130264   3.292   0.990  17.105  0.9920  0.9834 -0.4604
 2023TIP3    H230265   3.275   0.842  17.075 -2.5578  1.8191 -3.2608
 2024TIP3   OH230266   6.317   0.735  19.473 -0.2299  0.8517  0.4211
 2024TIP3    H130267   6.379   0.700  19.537  0.8568  0.9435 -0.5490
 2024TIP3    H230268   6.264   0.659  19.447  1.5780  0.0253 -1.0637
 2025TIP3   OH230269   5.306   2.085  17.885  0.0539 -0.5812  0.0991
 2025TIP3    H130270   5.371   2.040  17.830  0.8151 -0.2457  0.7090
 2025TIP3    H230271   5.332   2.064  17.975 -0.4777 -0.1544  0.3558
 2026TIP3   OH230272   4.110   1.712  18.236  0.2968 -0.1907 -0.5856
 2026TIP3    H130273   4.041   1.770  18.269  0.9301  0.6540 -0.7130
 2026TIP3    H230274   4.067   1.627  18.225  0.2301 -0.8046  3.2319
 2027TIP3   OH230275   5.394   6.938  17.054  0.2916 -0.4824 -0.3986
 2027TIP3    H130276   5.354   6.865  17.005  1.1983 -1.5424  0.3973
 2027TIP3    H230277   5.322   7.000  17.065 -0.6701 -1.5153 -0.5918
 2028TIP3   OH230278   6.429   1.790  18.765 -0.2137 -0.1643  0.3015
 2028TIP3    H130279   6.350   1.835  18.796 -0.4678  0.2497 -0.9102
 2028TIP3    H230280   6.468   1.851  18.702  0.3411 -0.9451 -0.1238
 2029TIP3   OH230281   5.522   4.421  17.884  0.1194  0.2644  0.2303
 2029TIP3    H130282   5.489   4.333  17.897  0.9497 -0.0957 -0.0135
 2029TIP3    H230283   5.446   4.478  17.897 -1.6857 -0.6816 -4.2923
 2030TIP3   OH230284   5.112   0.992  18.946 -0.0250  0.1890 -0.3222
 2030TIP3    H130285   5.030   1.038  18.927  1.6856  3.1706 -1.1875
 2030TIP3    H230286   5.168   1.059  18.985  2.4338 -1.4119 -0.9018
 2031TIP3   OH230287   1.386   3.144  19.094  0.1190  0.6273  0.3322
 2031TIP3    H130288   1.448   3.092  19.145  2.1762  1.3316 -1.3098
 2031TIP3    H230289   1.393   3.232  19.130 -0.9828  0.4519  1.0217
 2032TIP3   OH230290   6.886   0.204  17.973 -0.0689  0.0896 -0.1303
 2032TIP3    H130291   6.972   0.162  17.979  0.0300  0.2222 -0.6192
 2032TIP3    H230292   6.846   0.187  18.058 -0.8106 -2.6600 -0.9078
 2033TIP3   OH230293   5.460   0.596  18.650 -0.0339 -0.3961  0.3093
 2033TIP3    H130294   5.458   0.501  18.635  0.5525 -0.5358  1.0485
 2033TIP3    H230295   5.391   0.631  18.594  0.6196 -1.1188 -0.9962
 2034TIP3   OH230296   7.248   4.329  17.802 -0.1518  0.2234  0.4208
 2034TIP3    H130297   7.292   4.353  17.883  0.4778  1.0829 -0.1524
 2034TIP3    H230298   7.159   4.307  17.828  0.3954 -0.7756  1.5057
 2035TIP3   OH230299   2.907   6.112  19.405  0.4493  0.1737  0.0878
 2035TIP3    H130300   2.841   6.108  19.335 -1.1308 -0.8713  1.5607
 2035TIP3    H230301   2.912   6.022  19.438  1.0453  0.6728  1.4132
 2036TIP3   OH230302   2.446   1.890  18.535 -0.4859  0.2370 -0.5171
 2036TIP3    H130303   2.504   1.892  18.611 -0.3921  0.7473 -0.5977
 2036TIP3    H230304   2.504   1.873  18.461 -0.2597  1.8340 -0.7416
 2037TIP3   OH230305   7.457   6.966  17.080 -0.0850 -0.0567 -0.4395
 2037TIP3    H130306   7.417   6.947  16.995 -0.4091  1.0228 -0.5542
 2037TIP3    H230307   7.411   6.909  17.142  1.8599 -2.7381 -1.2754
 2038TIP3   OH230308   7.272   0.538  18.814 -0.1657  0.5157 -0.2715
 2038TIP3    H130309   7.196   0.537  18.755 -1.3976  0.2732  1.2385
 2038TIP3    H230310   7.289   0.446  18.832 -1.1304  0.5986  1.3043
 2039TIP3   OH230311   3.287   2.572  17.261  0.2131  0.3127 -0.3038
 2039TIP3    H130312   3.302   2.546  17.170  0.8572 -2.4661  0.5024
 2039TIP3    H230313   3.194   2.555  17.275  0.4466 -0.7949 -0.0277
 2040TIP3   OH230314   2.271   0.157  19.373 -0.0757  0.0126  0.2945
 2040TIP3    H130315   2.257   0.109  19.292 -2.3961  2.8551 -1.1634
 2040TIP3    H230316   2.241   0.097  19.442 -0.2815 -1.5706 -1.1176
 2041TIP3   OH230317   1.613   1.149  18.585 -0.3087 -0.4166  0.1819
 2041TIP3    H130318   1.661   1.072  18.617  0.9769  0.2662 -0.0239
 2041TIP3    H230319   1.679   1.200  18.538 -0.9006  1.2860  1.1154
 2042TIP3   OH230320   5.595   2.306  17.166 -0.2102  0.5023  0.1479
 2042TIP3    H130321   5.541   2.333  17.091 -1.2506  0.0568  0.7183
 2042TIP3    H230322   5.648   2.234  17.132  0.7254  1.5175 -0.6641
 2043TIP3   OH230323   1.782   2.961  17.816 -0.0751  0.1449 -0.0705
 2043TIP3    H130324   1.785   2.924  17.728 -4.3736  0.2434 -0.4967
 2043TIP3    H230325   1.801   3.054  17.804 -1.2418  0.2806 -1.0488
 2044TIP3   OH230326   3.517   2.143  18.200  0.6046  0.5385 -0.1429
 2044TIP3    H130327   3.542   2.108  18.115  0.8832  1.4170 -0.4315
 2044TIP3    H230328   3.533   2.070  18.261  1.4536  0.2549 -0.6845
 2045TIP3   OH230329   1.705   0.348  18.493 -0.1205  0.4281 -0.2002
 2045TIP3    H130330   1.649   0.352  18.570 -0.3582  1.4981 -0.4139
 2045TIP3    H230331   1.716   0.254  18.476  2.1352  0.0543  2.6778
 2046TIP3   OH230332   0.344   2.805  18.283  0.2331  0.2236 -0.0258
 2046TIP3    H130333   0.250   2.795  18.297  0.1384  0.6049 -0.3561
 2046TIP3    H230334   0.372   2.721  18.247 -0.2237  0.5336 -1.1477
 2047TIP3   OH230335   4.086   4.145  17.904  0.1085  0.0258 -0.2632
 2047TIP3    H130336   4.081   4.230  17.860 -0.5122  1.1773  1.8811
 2047TIP3    H230337   4.178   4.135  17.927  0.4290 -0.5624 -1.6952
 2048TIP3   OH230338   7.198   4.768  17.453 -0.2070  0.2233  0.1669
 2048TIP3    H130339   7.263   4.836  17.470 -0.1426 -0.2099  1.8838
 2048TIP3    H230340   7.137   4.774  17.527 -1.8592  0.3019 -1.1605
 2049TIP3   OH230341   2.720   2.513  18.762  0.6571 -0.3304 -0.4605
 2049TIP3    H130342   2.793   2.561  18.800 -0.9203  0.2375  2.1365
 2049TIP3    H230343   2.752   2.423  18.754  1.7744 -0.0135  0.1997
 2050TIP3   OH230344   4.470   2.655  17.201  0.0684  0.6562 -0.3295
 2050TIP3    H130345   4.448   2.743  17.170 -1.3640  0.2652 -0.4988
 2050TIP3    H230346   4.524   2.618  17.131 -1.2263  0.6001 -1.3487
 2051TIP3   OH230347   0.895   5.131  17.817  0.1510 -0.2429 -0.0705
 2051TIP3    H130348   0.801   5.115  17.812  0.1900 -0.6159  0.2868
 2051TIP3    H230349   0.932   5.047  17.845  0.8014 -0.6645 -2.0339
 2052TIP3   OH230350   1.319   3.417  16.666  0.5050  0.1021  0.1808
 2052TIP3    H130351   1.358   3.446  16.749 -1.5746 -0.5069  1.4420
 2052TIP3    H230352   1.379   3.450  16.599 -0.0826  4.8914  1.6012
 2053TIP3   OH230353   6.029   5.628  16.910 -0.0641 -0.1697 -0.1281
 2053TIP3    H130354   6.121   5.653  16.925 -0.6534  2.6477 -0.6045
 2053TIP3    H230355   6.022   5.621  16.815 -0.2321 -0.8525 -0.0642
 2054TIP3   OH230356   7.172   4.671  19.076  1.2249  0.4752 -0.2509
 2054TIP3    H130357   7.189   4.746  19.133  1.1920 -0.2516  0.7405
 2054TIP3    H230358   7.080   4.679  19.052  1.1323  0.5601  0.1301
 2055TIP3   OH230359   3.475   0.832  17.339 -0.3896 -0.6725  0.3524
 2055TIP3    H130360   3.481   0.928  17.344 -0.9116 -0.5158 -1.3635
 2055TIP3    H230361   3.381   0.814  17.345 -0.3372 -1.0292  0.1074
 2056TIP3   OH230362   2.926   0.355  17.713 -0.2913 -0.6607  0.0081
 2056TIP3    H130363   2.881   0.322  17.635  0.1959 -1.1934 -0.0563
 2056TIP3    H230364   2.885   0.439  17.730  0.3129 -0.0199 -1.4592
 2057TIP3   OH230365   3.970   3.028  17.286  0.1197  0.2077  0.1433
 2057TIP3    H130366   3.990   3.117  17.256 -0.7916  0.4322  0.1749
 2057TIP3    H230367   4.056   2.986  17.294  0.5542  1.0352 -0.0123
 2058TIP3   OH230368   2.777   5.145  18.500 -0.1791  0.0328 -0.5106
 2058TIP3    H130369   2.855   5.104  18.537  0.9979  1.4777 -1.3144
 2058TIP3    H230370   2.715   5.149  18.574  0.0358 -2.1515 -0.1489
 2059TIP3   OH230371   6.859   2.475  16.832 -0.1473  0.0245  0.0925
 2059TIP3    H130372   6.823   2.394  16.870  0.6136 -0.5208 -0.3230
 2059TIP3    H230373   6.796   2.542  16.856 -0.3139 -0.5180  1.2856
 2060TIP3   OH230374   4.415   1.065  19.056 -0.9052  0.2119 -0.0737
 2060TIP3    H130375   4.424   0.994  19.120  1.0754  1.1839  0.8263
 2060TIP3    H230376   4.321   1.083  19.053 -1.1586 -0.5485  1.8352
 2061TIP3   OH230377   2.090   2.149  17.174 -0.0684  0.2933  0.3703
 2061TIP3    H130378   2.069   2.077  17.234  1.7540 -2.0252 -1.5615
 2061TIP3    H230379   2.036   2.133  17.097  1.7117 -0.1521 -0.8262
 2062TIP3   OH230380   0.310   4.756  19.526  0.2757  0.2523 -0.0815
 2062TIP3    H130381   0.272   4.689  19.469 -1.1855 -0.5596  1.7622
 2062TIP3    H230382   0.376   4.709  19.577 -1.1402  0.0364  1.6161
 2063TIP3   OH230383   3.493   4.997  18.999 -0.1825 -0.0658 -0.0734
 2063TIP3    H130384   3.523   4.908  18.979 -0.2172 -0.1741  0.3398
 2063TIP3    H230385   3.412   4.984  19.049  0.1620  0.1794  0.5618
 2064TIP3   OH230386   0.577   2.188  19.131 -0.1533  0.0484  0.9486
 2064TIP3    H130387   0.652   2.149  19.177  1.8391 -0.0489 -2.0489
 2064TIP3    H230388   0.611   2.271  19.098 -1.3936  0.0706 -0.3533
 2065TIP3   OH230389   7.054   0.506  17.957 -0.0562 -0.4929  0.5002
 2065TIP3    H130390   6.964   0.487  17.930 -0.7501  2.3030  0.5057
 2065TIP3    H230391   7.048   0.522  18.051 -0.2117  2.4847  0.0843
 2066TIP3   OH230392   3.151   6.628  16.791 -0.2219  0.2141  0.5200
 2066TIP3    H130393   3.201   6.710  16.795 -1.4110  1.1775 -2.0541
 2066TIP3    H230394   3.059   6.656  16.798 -0.6415 -0.8818 -0.3636
 2067TIP3   OH230395   7.297   6.188  18.915 -0.0864 -0.3846  0.1576
 2067TIP3    H130396   7.353   6.265  18.900 -0.6955  0.3340  1.3583
 2067TIP3    H230397   7.354   6.125  18.958 -0.1883  0.4111  1.5367
 2068TIP3   OH230398   0.022   5.588  17.116 -0.2305  0.0323 -0.5195
 2068TIP3    H130399   0.016   5.617  17.024 -0.3359  0.6960 -0.3102
 2068TIP3    H230400   0.111   5.555  17.124 -0.1298  0.2258 -0.7952
 2069TIP3   OH230401   6.987   2.843  18.500 -0.1604 -0.8604  0.1106
 2069TIP3    H130402   6.908   2.883  18.464  0.2232 -1.3092 -1.2671
 2069TIP3    H230403   6.965   2.825  18.592 -0.9145  0.9217  0.3083
 2070TIP3   OH230404   4.133   3.857  17.854  0.1822 -0.3621 -0.5166
 2070TIP3    H130405   4.063   3.792  17.851  0.3134 -0.4799 -1.1855
 2070TIP3    H230406   4.088   3.941  17.839  0.2887 -0.5285 -1.8761
 2071TIP3   OH230407   5.867   3.827  19.477  0.4322 -0.2841  0.1265
 2071TIP3    H130408   5.853   3.791  19.564 -1.4892 -0.8949 -0.3926
 2071TIP3    H230409   5.819   3.910  19.477 -0.1914 -0.6247 -0.5418
 2072TIP3   OH230410   7.382   2.524  18.570  0.2192  0.3260  0.7127
 2072TIP3    H130411   7.360   2.432  18.559 -0.4546  0.3605  1.7060
 2072TIP3    H230412   7.373   2.561  18.482 -0.1775 -0.4070  0.4351
 2073TIP3   OH230413   5.864   0.659  17.428  0.1661 -0.3722 -0.3635
 2073TIP3    H130414   5.958   0.656  17.444  0.1002 -0.4628  0.0265
 2073TIP3    H230415   5.846   0.749  17.400  0.1381  0.1025  1.0895
 2074TIP3   OH230416   5.088   2.466  18.344  0.0829 -0.8054 -0.0881
 2074TIP3    H130417   5.074   2.523  18.268  0.5346  1.3461  1.3398
 2074TIP3    H230418   5.179   2.438  18.337  0.0091 -0.9415 -0.5340
 2075TIP3   OH230419   0.138   0.366  18.592 -0.2901  0.3491  0.5215
 2075TIP3    H130420   0.214   0.422  18.577  1.3755 -1.4950  1.6659
 2075TIP3    H230421   0.104   0.348  18.504  1.3912  0.1686 -0.1298
 2076TIP3   OH230422   0.647   3.158  18.150  0.1888 -0.3347 -0.7802
 2076TIP3    H130423   0.599   3.154  18.068 -1.3039  1.0009 -0.0387
 2076TIP3    H230424   0.730   3.200  18.127 -0.7763  1.3432 -1.4272
 2077TIP3   OH230425   6.685   5.998  17.765 -0.1739 -0.1886  0.3960
 2077TIP3    H130426   6.743   5.923  17.754  0.1221  0.0788  0.0876
 2077TIP3    H230427   6.744   6.074  17.766 -0.3864 -0.0212  1.5808
 2078TIP3   OH230428   2.524   1.091  17.212  0.2659 -0.6178  0.0018
 2078TIP3    H130429   2.496   1.109  17.123  1.5457  1.7745  0.0145
 2078TIP3    H230430   2.565   1.004  17.207 -2.9423 -2.2190 -0.8835
 2079TIP3   OH230431   1.538   7.576  18.639  0.2917  0.5865 -0.1383
 2079TIP3    H130432   1.540   7.622  18.555  0.8975 -0.1358 -0.5298
 2079TIP3    H230433   1.481   7.500  18.624 -0.4479  1.0129  0.4143
 2080TIP3   OH230434   5.332   4.180  19.013  0.1817  0.2981 -0.4259
 2080TIP3    H130435   5.274   4.118  19.056  1.2692  0.5263  1.4686
 2080TIP3    H230436   5.355   4.243  19.081  2.3921  0.3879 -1.1678
 2081TIP3   OH230437   3.405   3.725  18.989  0.1617  0.3246  0.7798
 2081TIP3    H130438   3.404   3.638  18.950 -0.8843  1.8151 -3.0418
 2081TIP3    H230439   3.496   3.754  18.978  0.5844 -0.3246  2.3341
 2082TIP3   OH230440   4.592   7.423  18.121 -0.7862  0.2556  0.6160
 2082TIP3    H130441   4.633   7.338  18.141 -1.2739  0.1853  1.3439
 2082TIP3    H230442   4.655   7.487  18.154 -1.2670  0.1461  1.7876
 2083TIP3   OH230443   1.407   1.589  17.718  0.3941  0.1639 -0.1429
 2083TIP3    H130444   1.406   1.671  17.669  1.8759 -0.3596 -1.1073
 2083TIP3    H230445   1.400   1.521  17.651  3.5936 -0.6101  0.1702
 2084TIP3   OH230446   4.799   7.089  17.308 -0.1219 -0.1626 -0.4097
 2084TIP3    H130447   4.779   7.060  17.398 -0.8146 -0.6494 -0.7126
 2084TIP3    H230448   4.742   7.164  17.294 -0.0158 -0.0886 -0.4427
 2085TIP3   OH230449   3.563   2.536  18.182  0.3575  0.2874  0.1983
 2085TIP3    H130450   3.489   2.580  18.139 -0.8598 -2.0241 -0.2382
 2085TIP3    H230451   3.582   2.461  18.126  2.7625  0.5322  0.5768
 2086TIP3   OH230452   4.194   5.190  18.701 -0.6243  0.4145  0.7980
 2086TIP3    H130453   4.105   5.222  18.694 -0.2763  1.0491 -1.5835
 2086TIP3    H230454   4.228   5.230  18.781 -1.7086  2.1655  0.4341
 2087TIP3   OH230455   7.466   3.310  17.043  0.0124 -0.0530  0.0595
 2087TIP3    H130456   7.494   3.218  17.041  2.1771  0.5706 -1.8258
 2087TIP3    H230457   7.497   3.347  16.961 -1.3435  2.2672  0.4872
 2088TIP3   OH230458   4.067   4.999  17.391 -0.0206  0.5213  0.7289
 2088TIP3    H130459   4.142   4.938  17.391 -0.0030  0.5420  0.8688
 2088TIP3    H230460   4.022   4.981  17.308  0.4330  0.8708  0.4011
 2089TIP3   OH230461   1.269   1.936  17.853  0.0298  0.4662 -0.5726
 2089TIP3    H130462   1.302   2.010  17.803 -0.0392 -0.7324 -2.5021
 2089TIP3    H230463   1.338   1.870  17.848  0.6323  0.7489  2.1649
 2090TIP3   OH230464   5.567   2.477  17.921 -0.3105  0.0364 -0.2112
 2090TIP3    H130465   5.639   2.464  17.859  0.0568 -2.9678  0.6842
 2090TIP3    H230466   5.610   2.496  18.004 -0.7169  1.3578 -0.2766
 2091TIP3   OH230467   1.639   3.335  18.056  0.4469 -0.5288  0.1581
 2091TIP3    H130468   1.628   3.384  17.975 -0.2524 -0.5787  0.2111
 2091TIP3    H230469   1.553   3.295  18.071 -0.1862  1.3875  2.1700
 2092TIP3   OH230470   4.457   5.280  16.933 -0.2093  0.0235 -0.1176
 2092TIP3    H130471   4.474   5.309  16.843 -3.3626  0.8504 -0.5733
 2092TIP3    H230472   4.399   5.348  16.969 -1.1090 -1.5886  1.6532
 2093TIP3   OH230473   1.692   3.292  19.201 -0.8665 -0.4041 -0.0359
 2093TIP3    H130474   1.702   3.199  19.223 -0.6361 -0.4875 -0.4692
 2093TIP3    H230475   1.599   3.310  19.215 -0.9837 -0.7932 -0.2826
 2094TIP3   OH230476   0.570   7.478  17.109  0.3701  0.1281  0.3991
 2094TIP3    H130477   0.626   7.461  17.033  0.0027  0.4332  0.0543
 2094TIP3    H230478   0.625   7.459  17.185  1.2930  1.4683  0.0855
 2095TIP3   OH230479   6.808   4.075  19.346  0.3454 -0.7356 -0.7470
 2095TIP3    H130480   6.798   4.166  19.318  2.4104 -0.0185  0.6087
 2095TIP3    H230481   6.727   4.055  19.393  0.4083  0.8825  0.1047
 2096TIP3   OH230482   2.850   7.469  19.213  0.3959 -0.7738 -0.2102
 2096TIP3    H130483   2.847   7.423  19.297  1.9423  0.4908  0.5952
 2096TIP3    H230484   2.879   7.402  19.151 -0.2709 -1.5986  0.3526
 2097TIP3   OH230485   2.409   6.366  16.751 -0.1591 -0.3118  0.3737
 2097TIP3    H130486   2.500   6.352  16.778  0.2601 -1.4639 -1.4266
 2097TIP3    H230487   2.412   6.444  16.697 -0.4657  0.2971  1.2175
 2098TIP3   OH230488   3.618   6.748  19.430  0.4201  0.1389 -0.0132
 2098TIP3    H130489   3.704   6.720  19.400 -0.0640 -1.0939 -0.3261
 2098TIP3    H230490   3.558   6.682  19.395 -0.8491  1.7783 -1.0479
 2099TIP3   OH230491   2.219   0.072  18.840  0.4300 -0.2249  0.0652
 2099TIP3    H130492   2.156   0.007  18.872  0.7113 -0.2882  0.5040
 2099TIP3    H230493   2.205   0.075  18.746 -2.8607  2.4314  0.4238
 2100TIP3   OH230494   3.365   6.000  17.891 -0.2218  0.2593  0.1304
 2100TIP3    H130495   3.270   6.003  17.879 -0.3510 -2.1247 -0.0514
 2100TIP3    H230496   3.380   5.919  17.940  1.6429  1.2472  1.3309
 2101TIP3   OH230497   7.164   4.086  19.020  0.3367  0.1783 -0.0120
 2101TIP3    H130498   7.256   4.061  19.030 -0.1272 -1.6322  0.0051
 2101TIP3    H230499   7.116   4.025  19.076 -1.0542 -0.4186 -1.7775
 2102TIP3   OH230500   0.239   1.170  18.936  0.1929 -0.4332  0.2167
 2102TIP3    H130501   0.192   1.149  18.855 -3.4147 -0.4802  2.1113
 2102TIP3    H230502   0.189   1.126  19.005  2.1044  0.9643  2.6714
 2103TIP3   OH230503   5.184   3.131  17.885 -0.6347  0.4048  0.3878
 2103TIP3    H130504   5.256   3.133  17.822 -0.1832 -0.8193  0.8378
 2103TIP3    H230505   5.116   3.186  17.845  0.6369  1.8324  0.0958
 2104TIP3   OH230506   1.035   3.513  18.011  0.4679 -0.2608 -0.4470
 2104TIP3    H130507   1.035   3.424  18.046  1.6349  0.2750  1.0070
 2104TIP3    H230508   0.942   3.538  18.010  0.3956  0.1038  3.4863
 2105TIP3   OH230509   5.872   5.035  18.447 -0.8836 -0.2069 -0.0918
 2105TIP3    H130510   5.923   5.098  18.396 -0.7572  0.0613  0.3626
 2105TIP3    H230511   5.921   4.954  18.441 -0.2492  0.1153  0.5655
 2106TIP3   OH230512   5.607   0.570  17.463 -0.0188 -0.0389  0.3795
 2106TIP3    H130513   5.611   0.490  17.515  0.1396 -1.5230 -1.7761
 2106TIP3    H230514   5.698   0.597  17.452  0.1655 -1.2094 -1.2218
 2107TIP3   OH230515   0.471   6.950  17.266  0.5170  0.1908 -0.0486
 2107TIP3    H130516   0.447   6.961  17.174  2.0947  3.1840 -0.2333
 2107TIP3    H230517   0.481   6.855  17.277 -1.1260 -0.3645 -2.5397
 2108TIP3   OH230518   4.200   1.452  18.823  0.6747  0.3659 -0.3119
 2108TIP3    H130519   4.187   1.364  18.789  0.1485  0.2859  0.0941
 2108TIP3    H230520   4.170   1.509  18.752  1.4190  0.2329 -0.7452
 2109TIP3   OH230521   3.862   2.729  17.488  0.4204 -0.3814  0.2410
 2109TIP3    H130522   3.810   2.653  17.511 -1.9639  1.3195  0.7857
 2109TIP3    H230523   3.805   2.782  17.432  1.8222  1.2252  0.2428
 2110TIP3   OH230524   1.679   7.323  17.634 -0.1526 -0.0963  0.4738
 2110TIP3    H130525   1.731   7.256  17.678  2.4478  0.5033 -1.4244
 2110TIP3    H230526   1.633   7.276  17.565  0.9796 -0.1182 -0.2975
 2111TIP3   OH230527   2.032   1.376  18.730 -0.5119 -0.6410 -0.0564
 2111TIP3    H130528   2.120   1.340  18.728 -0.9705 -1.7505 -2.0966
 2111TIP3    H230529   1.976   1.309  18.691 -2.4146 -0.2563  1.7745
 2112TIP3   OH230530   6.890   6.305  19.019 -0.4206 -0.6540 -0.4620
 2112TIP3    H130531   6.959   6.310  18.953  0.2681  0.1287  0.2972
 2112TIP3    H230532   6.906   6.221  19.063 -0.0845 -0.5853 -0.4468
 2113TIP3   OH230533   3.247   0.076  18.712  0.0283 -0.4608  0.4419
 2113TIP3    H130534   3.181   0.142  18.690 -0.3656 -0.2076  2.2113
 2113TIP3    H230535   3.260   0.027  18.631 -0.9638  0.6721 -0.4367
 2114TIP3   OH230536   3.940   0.831  17.488 -0.3641  0.4430 -0.1905
 2114TIP3    H130537   3.930   0.879  17.406 -0.6297  0.8420  0.0745
 2114TIP3    H230538   3.919   0.740  17.465 -0.6082  0.5832 -0.5261
 2115TIP3   OH230539   0.460   6.926  18.914 -0.0785  0.4322 -0.4484
 2115TIP3    H130540   0.496   6.943  19.001  0.0057 -0.2160 -0.3507
 2115TIP3    H230541   0.535   6.898  18.862 -0.2808 -0.0585 -0.4834
 2116TIP3   OH230542   4.774   5.416  17.693  0.0603 -0.0551  0.0259
 2116TIP3    H130543   4.791   5.510  17.703 -0.7549  0.0395  0.6564
 2116TIP3    H230544   4.753   5.404  17.601  1.9490  0.0661 -0.4636
 2117TIP3   OH230545   3.551   4.275  17.920 -0.1461  0.0756 -0.0895
 2117TIP3    H130546   3.466   4.292  17.880 -0.0988  2.4677  0.6545
 2117TIP3    H230547   3.530   4.235  18.005 -0.4636 -0.6222 -0.4971
 2118TIP3   OH230548   0.523   4.621  17.247 -0.0689  0.1131 -0.1032
 2118TIP3    H130549   0.545   4.611  17.340  0.0814  1.3586  0.0105
 2118TIP3    H230550   0.497   4.713  17.238  1.4615  0.4529 -1.6061
 2119TIP3   OH230551   3.437   6.665  17.749  0.2821  0.0373 -1.2318
 2119TIP3    H130552   3.529   6.689  17.739  0.7939 -1.7982 -1.3064
 2119TIP3    H230553   3.425   6.650  17.843  0.3639 -0.7891 -1.3466
 2120TIP3   OH230554   0.235   1.844  18.398  0.3709 -0.0708  0.1314
 2120TIP3    H130555   0.237   1.925  18.347 -0.1860 -0.6224 -0.7784
 2120TIP3    H230556   0.291   1.862  18.473 -0.0691  1.3058  0.1576
 2121TIP3   OH230557   3.964   4.891  17.160  0.2646 -0.0579  0.0198
 2121TIP3    H130558   3.909   4.817  17.134  0.8197 -1.4199  2.3718
 2121TIP3    H230559   4.046   4.878  17.113 -0.8205  1.1452 -2.3434
 2122TIP3   OH230560   2.633   3.820  16.787 -0.2779 -0.0578 -0.7610
 2122TIP3    H130561   2.708   3.828  16.846 -0.5214 -1.4721 -0.2113
 2122TIP3    H230562   2.571   3.887  16.817 -0.1302 -0.3299  0.2025
 2123TIP3   OH230563   1.043   0.719  18.769 -0.0859  0.0689 -0.4229
 2123TIP3    H130564   1.073   0.628  18.773 -0.8329 -0.1875 -0.4727
 2123TIP3    H230565   0.949   0.714  18.786  0.0403  0.9434  0.6355
 2124TIP3   OH230566   3.654   6.132  17.072  0.2992 -0.5841  0.3343
 2124TIP3    H130567   3.640   6.127  17.166  0.1089  0.9348  0.4095
 2124TIP3    H230568   3.718   6.202  17.060 -0.9836  0.4591 -0.7510
 2125TIP3   OH230569   6.652   1.332  17.485 -0.1179  0.4069 -0.0587
 2125TIP3    H130570   6.689   1.311  17.571 -0.8614 -1.8137 -0.2169
 2125TIP3    H230571   6.558   1.342  17.500 -0.4112 -1.0812 -0.7482
 2126TIP3   OH230572   4.534   3.267  18.868  0.2254  0.4859  0.2883
 2126TIP3    H130573   4.602   3.262  18.801 -0.1343  2.2250 -0.2547
 2126TIP3    H230574   4.458   3.223  18.829  0.0776  1.3246 -0.3961
 2127TIP3   OH230575   7.287   3.191  18.270  0.1347 -0.0709  0.0889
 2127TIP3    H130576   7.353   3.249  18.232 -0.7669  0.7872 -0.2168
 2127TIP3    H230577   7.335   3.137  18.333  1.6058 -1.2873 -1.9584
 2128TIP3   OH230578   4.285   0.753  19.162  0.5196  0.0729  0.3444
 2128TIP3    H130579   4.235   0.715  19.234 -0.3106 -1.2143 -0.8639
 2128TIP3    H230580   4.374   0.761  19.197  0.6389 -2.5821  0.8703
 2129TIP3   OH230581   3.564   6.411  19.787 -0.0014  0.2168  0.0888
 2129TIP3    H130582   3.559   6.506  19.780  2.2309  0.5274  1.6309
 2129TIP3    H230583   3.578   6.380  19.698  0.0926  1.4083 -0.3170
 2130TIP3   OH230584   6.113   3.490  19.185  0.7582  0.4728 -0.3240
 2130TIP3    H130585   6.043   3.467  19.245 -0.4949  0.5373 -1.7158
 2130TIP3    H230586   6.139   3.408  19.144  0.6294  0.6141 -0.7020
 2131TIP3   OH230587   3.778   1.004  17.353 -0.3438  0.6927  0.2444
 2131TIP3    H130588   3.721   1.022  17.279  0.5141  0.3993 -0.5036
 2131TIP3    H230589   3.753   1.069  17.419 -3.3083 -1.0060  0.9660
 2132TIP3   OH230590   3.449   2.623  17.829  0.0740  0.1517  0.1982
 2132TIP3    H130591   3.532   2.666  17.807  0.0348  0.5462  0.7984
 2132TIP3    H230592   3.474   2.533  17.850  0.4856  0.5169  1.3215
 2133TIP3   OH230593   2.539   3.211  17.829  0.2541 -0.0042  0.1129
 2133TIP3    H130594   2.531   3.306  17.842 -0.9542 -0.0513 -0.0886
 2133TIP3    H230595   2.594   3.202  17.752  1.1581  0.5009  0.6860
 2134TIP3   OH230596   1.932   0.500  18.462  0.1821 -0.4468  0.2231
 2134TIP3    H130597   1.851   0.457  18.489  0.1645 -0.4890  0.1022
 2134TIP3    H230598   1.906   0.588  18.436 -0.1277 -1.0332 -1.6328
 2135TIP3   OH230599   1.439   2.666  17.925 -0.0319 -0.4299  0.1888
 2135TIP3    H130600   1.472   2.652  18.014  0.5898  0.3200  0.0906
 2135TIP3    H230601   1.516   2.656  17.869 -0.4348 -0.9683 -0.2787
 2136TIP3   OH230602   3.515   5.094  18.735  0.2266  0.3172 -0.5852
 2136TIP3    H130603   3.434   5.141  18.715  0.3071  0.5172 -0.4345
 2136TIP3    H230604   3.512   5.080  18.829  1.5198  2.4682 -0.1657
 2137TIP3   OH230605   6.073   1.886  17.141 -0.3853 -0.0781  0.4397
 2137TIP3    H130606   6.131   1.949  17.097 -1.4968 -0.2444 -1.3829
 2137TIP3    H230607   6.117   1.802  17.130 -0.5498 -0.0878 -0.2070
 2138TIP3   OH230608   0.390   4.208  18.721  0.1919 -0.3463  0.0046
 2138TIP3    H130609   0.302   4.238  18.744  0.5625  1.7314 -1.0534
 2138TIP3    H230610   0.375   4.138  18.657 -0.6795 -0.7306  0.6100
 2139TIP3   OH230611   4.454   4.419  16.688  0.3027 -0.6356 -0.2552
 2139TIP3    H130612   4.389   4.389  16.624  1.3837 -2.5489 -0.5324
 2139TIP3    H230613   4.518   4.468  16.636 -1.4204  2.3073  0.1857
 2140TIP3   OH230614   6.075   7.177  17.505  0.6906  0.3323 -0.1466
 2140TIP3    H130615   6.100   7.208  17.592 -1.0835  1.3720  0.0304
 2140TIP3    H230616   6.083   7.082  17.510  1.7105  0.4492  0.7739
 2141TIP3   OH230617   0.569   1.968  19.342 -0.6674  0.5323 -0.1868
 2141TIP3    H130618   0.487   1.918  19.348 -0.3373  0.1416  2.2790
 2141TIP3    H230619   0.549   2.052  19.384  0.0824  0.5501  0.1462
 2142TIP3   OH230620   7.278   4.467  19.216  0.2335 -0.1841  0.0301
 2142TIP3    H130621   7.244   4.539  19.162  0.3596  1.2857  1.8126
 2142TIP3    H230622   7.207   4.446  19.276  1.0677  0.1905  1.1730
 2143TIP3   OH230623   5.055   4.568  17.336  0.1288  0.2468  0.0372
 2143TIP3    H130624   4.979   4.513  17.317 -2.6540  3.4931  0.6868
 2143TIP3    H230625   5.045   4.644  17.279  2.1457  1.4097  1.1090
 2144TIP3   OH230626   2.704   6.501  19.626 -0.2548  0.4188  0.0563
 2144TIP3    H130627   2.766   6.439  19.665  0.1176  1.0719  0.5416
 2144TIP3    H230628   2.758   6.575  19.598 -0.4231 -0.3221 -2.4075
 2145TIP3   OH230629   6.080   6.805  18.503  0.0496  0.5046 -0.1423
 2145TIP3    H130630   6.173   6.828  18.492 -0.1599  1.2839 -0.3725
 2145TIP3    H230631   6.080   6.710  18.518  0.8178  0.3504 -1.0140
 2146TIP3   OH230632   2.788   7.555  18.486  0.6047 -0.0098 -0.0599
 2146TIP3    H130633   2.830   7.477  18.522 -0.5866 -0.8291 -0.3727
 2146TIP3    H230634   2.827   7.565  18.399  0.9032 -0.1375  0.0551
 2147TIP3   OH230635   4.676   5.028  17.289 -0.0177 -0.9313 -0.6025
 2147TIP3    H130636   4.741   5.098  17.297  0.2428 -0.9351 -2.2772
 2147TIP3    H230637   4.658   5.023  17.195 -3.0560 -0.4033 -0.1330
 2148TIP3   OH230638   6.704   3.679  18.950  0.5485 -0.3820  0.1562
 2148TIP3    H130639   6.794   3.709  18.962  0.1980  0.4579  0.7457
 2148TIP3    H230640   6.696   3.603  19.008  1.0344 -0.7980 -0.3129
 2149TIP3   OH230641   1.339   6.623  19.173 -0.0680  0.2334 -0.0910
 2149TIP3    H130642   1.286   6.609  19.251 -1.0221  1.7475 -0.4328
 2149TIP3    H230643   1.409   6.558  19.179 -0.0912  0.3494  2.0564
 2150TIP3   OH230644   3.959   5.962  17.564 -0.0974 -0.5081 -0.0638
 2150TIP3    H130645   4.026   5.971  17.497  1.6418  1.0981  1.7765
 2150TIP3    H230646   3.980   5.880  17.608 -0.0482 -0.5831 -0.2278
 2151TIP3   OH230647   0.502   5.716  19.500 -0.2591 -0.6612  0.1245
 2151TIP3    H130648   0.422   5.673  19.527 -0.1564 -1.5216 -0.8940
 2151TIP3    H230649   0.512   5.694  19.407  1.3919 -0.9834  0.3355
 2152TIP3   OH230650   3.385   1.564  17.893 -0.2529 -0.4537  0.9560
 2152TIP3    H130651   3.332   1.490  17.865 -0.8382  0.5015 -0.6273
 2152TIP3    H230652   3.466   1.555  17.843 -0.2953 -0.0826  0.8179
 2153TIP3   OH230653   4.496   1.320  17.373  0.0192 -0.3289  0.1428
 2153TIP3    H130654   4.549   1.357  17.443 -0.3709 -0.1288  0.3395
 2153TIP3    H230655   4.528   1.361  17.293 -1.4715  1.7206  0.5202
 2154TIP3   OH230656   0.977   2.943  17.554 -0.1383  0.2348 -0.4071
 2154TIP3    H130657   1.067   2.913  17.543  0.2667  1.0359  0.5421
 2154TIP3    H230658   0.947   2.901  17.634 -0.6122 -0.0270 -0.7192
 2155TIP3   OH230659   1.580   1.527  18.442  0.3788 -0.0734 -0.3195
 2155TIP3    H130660   1.641   1.453  18.445 -0.1748 -0.5546 -0.6351
 2155TIP3    H230661   1.528   1.519  18.522  1.5266  1.0509  0.5655
 2156TIP3   OH230662   2.274   6.393  19.020  0.0699  0.0007 -0.5367
 2156TIP3    H130663   2.200   6.421  19.075 -0.6145  0.7080 -1.7864
 2156TIP3    H230664   2.236   6.378  18.934  1.2071 -0.6993 -0.9426
 2157TIP3   OH230665   3.337   0.764  19.370 -1.1921 -0.2747  0.0046
 2157TIP3    H130666   3.386   0.738  19.292 -0.2643 -0.4132  0.6253
 2157TIP3    H230667   3.374   0.710  19.440 -1.7595  0.1237  0.6161
 2158TIP3   OH230668   3.899   0.790  18.858  0.5968 -0.0733 -0.7303
 2158TIP3    H130669   3.932   0.747  18.938  1.0598 -1.2041 -1.5105
 2158TIP3    H230670   3.892   0.882  18.883  1.5788 -0.2594  0.3701
 2159TIP3   OH230671   5.297   1.570  18.339 -0.0357 -0.1105 -0.5961
 2159TIP3    H130672   5.318   1.480  18.364 -3.6712 -1.6076 -2.2452
 2159TIP3    H230673   5.233   1.598  18.403 -1.2464  0.0796 -1.8493
 2160TIP3   OH230674   6.832   0.898  19.106 -0.5405 -0.6241 -0.3214
 2160TIP3    H130675   6.915   0.908  19.152  0.1523 -2.6281 -1.0124
 2160TIP3    H230676   6.766   0.927  19.169  0.5515 -0.7918  0.9486
 2161TIP3   OH230677   4.160   3.248  19.280 -0.1896  0.1565 -0.4576
 2161TIP3    H130678   4.250   3.238  19.313 -1.0171  1.1675  2.3951
 2161TIP3    H230679   4.160   3.333  19.236 -0.1496  1.0185  1.1589
 2162TIP3   OH230680   1.353   3.237  18.154 -0.7355 -0.2963 -0.5055
 2162TIP3    H130681   1.364   3.290  18.233 -0.3192  0.4624 -1.0652
 2162TIP3    H230682   1.404   3.158  18.171  0.1952  0.3099 -0.4254
 2163TIP3   OH230683   3.230   1.048  18.609 -0.1431 -0.7183 -0.9934
 2163TIP3    H130684   3.228   0.953  18.621  1.7882 -0.9624 -2.0970
 2163TIP3    H230685   3.322   1.068  18.591 -0.7330  1.1487 -2.3389
 2164TIP3   OH230686   3.408   5.936  19.887 -0.1896  0.4823  0.4763
 2164TIP3    H130687   3.329   5.988  19.903  0.3562  1.6076 -0.3340
 2164TIP3    H230688   3.480   5.997  19.905  0.5134 -0.5839  1.3941
 2165TIP3   OH230689   5.136   0.383  18.241 -0.4078  0.3078 -0.2490
 2165TIP3    H130690   5.068   0.375  18.175 -0.4660  0.5122 -0.2145
 2165TIP3    H230691   5.166   0.293  18.256 -1.6462  0.0392  0.7560
 2166TIP3   OH230692   3.467   6.414  18.774 -0.2384  0.3427  0.2142
 2166TIP3    H130693   3.431   6.346  18.831 -1.5742  1.8396  1.2454
 2166TIP3    H230694   3.460   6.378  18.686  0.0829 -1.2592  0.8116
 2167TIP3   OH230695   5.423   3.449  19.338  0.2575 -0.3610 -0.2452
 2167TIP3    H130696   5.489   3.458  19.406  0.5533 -1.9090 -0.2988
 2167TIP3    H230697   5.358   3.390  19.375 -0.1709 -0.3004 -0.8788
 2168TIP3   OH230698   1.149   5.438  17.451  0.1601  1.1689 -0.3012
 2168TIP3    H130699   1.191   5.370  17.503 -0.2805  1.4596  0.4507
 2168TIP3    H230700   1.130   5.396  17.367 -2.6797 -0.5586  1.0686
 2169TIP3   OH230701   6.419   2.495  17.090  0.0320 -0.0956 -0.7499
 2169TIP3    H130702   6.485   2.433  17.119  2.0608  2.2954  0.0911
 2169TIP3    H230703   6.361   2.506  17.165  1.5484  1.3561  0.2444
 2170TIP3   OH230704   0.861   5.943  19.580  0.6994 -0.2355  0.1716
 2170TIP3    H130705   0.907   5.933  19.663  0.2198 -0.1719  0.4444
 2170TIP3    H230706   0.901   6.021  19.540  1.1333 -0.4384  0.2024
 2171TIP3   OH230707   5.525   6.816  18.224 -0.6064  0.1283  0.8055
 2171TIP3    H130708   5.513   6.721  18.215 -2.8197  0.3686  0.7267
 2171TIP3    H230709   5.532   6.848  18.134 -1.6714  0.2145  0.7406
 2172TIP3   OH230710   7.286   2.598  18.969 -0.7308 -0.0540  0.2832
 2172TIP3    H130711   7.332   2.552  18.899 -0.3282 -1.2261  1.2814
 2172TIP3    H230712   7.331   2.571  19.049 -0.3327  2.2655  0.9185
 2173TIP3   OH230713   0.546   0.040  19.246 -0.6989  0.0502 -0.2710
 2173TIP3    H130714   0.527   0.038  19.340  0.5065  1.2114  0.0215
 2173TIP3    H230715   0.563   0.132  19.227 -0.3829 -0.2571 -1.5233
 2174TIP3   OH230716   1.659   5.535  17.277  0.3935  0.0512  0.3635
 2174TIP3    H130717   1.669   5.441  17.294  1.4128 -0.0932 -0.8234
 2174TIP3    H230718   1.582   5.541  17.221 -0.0436 -0.0137  0.9618
 2175TIP3   OH230719   1.291   4.058  19.079 -0.2397  0.2325 -0.0998
 2175TIP3    H130720   1.326   4.005  19.150  0.1354 -0.5136 -0.8170
 2175TIP3    H230721   1.360   4.121  19.059 -0.7239  1.0888  0.8195
 2176TIP3   OH230722   3.569   4.478  18.168 -0.4909  0.0186  0.2141
 2176TIP3    H130723   3.485   4.487  18.215 -1.2965 -1.2376 -0.9224
 2176TIP3    H230724   3.547   4.494  18.077 -0.0269 -2.7389 -0.4684
 2177TIP3   OH230725   3.052   5.215  17.432  0.7184  0.4674 -0.1055
 2177TIP3    H130726   3.062   5.310  17.429  0.6777  0.4537 -0.7262
 2177TIP3    H230727   3.108   5.188  17.505  2.5026  0.7654 -1.2690
 2178TIP3   OH230728   1.594   7.680  19.369  0.1437  0.0271  0.4304
 2178TIP3    H130729   1.678   7.666  19.412  0.3431  0.5274  0.2065
 2178TIP3    H230730   1.539   7.608  19.401  0.3515  0.2596  1.3610
 2179TIP3   OH230731   7.042   4.493  18.062 -0.9554  0.0039  0.2983
 2179TIP3    H130732   7.056   4.448  18.146 -0.0821  0.0248  0.1760
 2179TIP3    H230733   6.999   4.427  18.007  2.6966 -1.7484 -0.7805
 2180TIP3   OH230734   0.770   0.612  17.453 -0.3019 -0.1651 -0.0114
 2180TIP3    H130735   0.745   0.653  17.370  0.7663 -0.4935 -0.5003
 2180TIP3    H230736   0.712   0.536  17.460  0.6355 -1.0326 -1.2389
 2181TIP3   OH230737   4.415   0.397  19.487  0.3073 -0.5567 -0.0833
 2181TIP3    H130738   4.456   0.318  19.523  0.2738 -0.2610  0.6291
 2181TIP3    H230739   4.323   0.391  19.512  0.3783 -0.1153  0.3090
 2182TIP3   OH230740   1.619   0.889  18.423 -0.1500 -0.3435  0.1946
 2182TIP3    H130741   1.563   0.872  18.498 -1.1374 -2.0180 -0.8432
 2182TIP3    H230742   1.558   0.904  18.350  0.7262 -1.3300 -0.7851
 2183TIP3   OH230743   7.128   1.267  18.819 -0.0680  0.1333 -0.1364
 2183TIP3    H130744   7.156   1.281  18.728  1.8855 -1.4829  0.1194
 2183TIP3    H230745   7.076   1.186  18.815  1.5303 -0.9781  0.3499
 2184TIP3   OH230746   2.035   4.050  17.807  0.0631  0.1955  0.3124
 2184TIP3    H130747   2.041   4.113  17.735 -0.0331  0.2554  0.3551
 2184TIP3    H230748   2.061   4.100  17.884 -1.7559  0.7144  0.6419
 2185TIP3   OH230749   3.882   3.488  17.398  0.0335 -0.2362  0.0152
 2185TIP3    H130750   3.940   3.555  17.364  0.0959  0.2253  1.0308
 2185TIP3    H230751   3.799   3.533  17.413  0.1228 -0.3479  0.8549
 2186TIP3   OH230752   4.694   0.457  17.661  0.2205 -0.3011 -0.0154
 2186TIP3    H130753   4.752   0.439  17.735  1.3806  1.3472 -0.4492
 2186TIP3    H230754   4.748   0.439  17.584 -0.2818 -0.0374 -0.4345
 2187TIP3   OH230755   7.680   2.148  18.049 -0.5904  0.4476  0.5705
 2187TIP3    H130756   7.598   2.098  18.045 -0.6369  0.2896  2.5782
 2187TIP3    H230757   7.716   2.128  18.135  1.7193  0.3039 -0.3679
 2188TIP3   OH230758   2.144   0.564  17.246 -0.1983  0.6520  0.0903
 2188TIP3    H130759   2.171   0.604  17.164  0.1027  0.3018  0.0155
 2188TIP3    H230760   2.066   0.613  17.272 -1.2900 -0.2761 -1.2532
 2189TIP3   OH230761   0.905   2.080  19.053 -0.3117 -0.2275  0.5657
 2189TIP3    H130762   0.944   2.117  19.132 -0.6610  1.2820  0.0604
 2189TIP3    H230763   0.923   1.986  19.059  3.1863  0.3155  0.4727
 2190TIP3   OH230764   2.072   7.295  20.023 -0.1691  0.0579 -0.4263
 2190TIP3    H130765   2.155   7.259  19.992  1.1084  1.3015  1.4088
 2190TIP3    H230766   2.073   7.387  19.997 -0.9161  0.1202 -0.2746
 2191TIP3   OH230767   6.241   3.865  17.473  0.2572 -0.2964  0.1368
 2191TIP3    H130768   6.217   3.956  17.460  0.2090 -0.3570 -0.2167
 2191TIP3    H230769   6.280   3.838  17.390 -2.5275 -1.4885 -0.9284
 2192TIP3   OH230770   0.612   0.297  19.142  0.6228 -0.2872  0.1383
 2192TIP3    H130771   0.701   0.272  19.168  1.1280 -0.2963 -1.4677
 2192TIP3    H230772   0.624   0.361  19.072 -0.5345 -2.3960 -2.1459
 2193TIP3   OH230773   5.664   0.224  17.303 -0.0444  0.0938  0.1670
 2193TIP3    H130774   5.584   0.181  17.274  0.8533 -1.0500 -0.7625
 2193TIP3    H230775   5.729   0.201  17.236  0.9248  1.4498  0.5958
 2194TIP3   OH230776   5.300   4.560  18.767 -0.1445 -0.5649  0.0466
 2194TIP3    H130777   5.307   4.583  18.674  0.2256  0.7510  0.3782
 2194TIP3    H230778   5.248   4.479  18.768 -0.0047 -0.6952 -1.3099
 2195TIP3   OH230779   0.470   1.878  18.933  0.4211  0.3201 -0.4022
 2195TIP3    H130780   0.430   1.805  18.980 -0.1153  0.7444 -0.1795
 2195TIP3    H230781   0.472   1.950  18.997  0.0128  0.7960 -0.9089
 2196TIP3   OH230782   4.365   0.964  18.439  0.0910 -0.0061 -0.4072
 2196TIP3    H130783   4.416   0.982  18.518 -0.9139  0.6288  0.1208
 2196TIP3    H230784   4.357   0.868  18.437 -0.1676 -0.0085  0.4547
 2197TIP3   OH230785   3.278   4.195  17.892  0.1897 -0.6878  0.0042
 2197TIP3    H130786   3.252   4.105  17.875 -1.7221 -0.0025 -0.9682
 2197TIP3    H230787   3.217   4.225  17.960 -0.9865  0.6466 -1.5710
 2198TIP3   OH230788   5.770   3.093  18.551 -0.3662 -0.2392 -0.0016
 2198TIP3    H130789   5.740   3.104  18.641  1.7983 -2.2203  1.0906
 2198TIP3    H230790   5.754   3.001  18.531 -1.5300  0.3368 -1.9939
 2199TIP3   OH230791   5.803   6.980  17.560  0.6193  0.0358  0.7034
 2199TIP3    H130792   5.890   6.944  17.577  0.7530 -0.4782 -0.8923
 2199TIP3    H230793   5.803   6.997  17.466 -0.0577  2.6195  1.0951
 2200TIP3   OH230794   2.889   7.214  19.047 -0.7957 -0.3746 -0.0789
 2200TIP3    H130795   2.835   7.151  18.999  1.4647 -1.4569 -1.3822
 2200TIP3    H230796   2.961   7.161  19.082  0.2649  1.2163  0.2371
 2201TIP3   OH230797   5.430   5.031  19.365  0.3495  0.2500 -0.2464
 2201TIP3    H130798   5.416   5.065  19.277  2.2146  1.3380 -0.1903
 2201TIP3    H230799   5.343   5.009  19.397 -0.2865 -1.2631 -2.7445
 2202TIP3   OH230800   4.889   0.212  16.709  0.2965  0.0882 -0.0362
 2202TIP3    H130801   4.825   0.145  16.734 -0.1364  0.5388  0.0755
 2202TIP3    H230802   4.849   0.294  16.736  0.6943  0.4181 -0.4414
 2203TIP3   OH230803   7.540   2.067  17.582  0.0486 -0.0154 -0.1935
 2203TIP3    H130804   7.553   1.995  17.644 -0.0514  0.0482 -0.0977
 2203TIP3    H230805   7.522   2.143  17.637  0.1440  0.0807 -0.2951
 2204TIP3   OH230806   2.154   5.648  19.048  0.1456  0.4706 -0.5066
 2204TIP3    H130807   2.131   5.569  19.000 -1.1888  0.6132 -0.1499
 2204TIP3    H230808   2.205   5.617  19.123 -0.3585 -0.0552 -0.3748
 2205TIP3   OH230809   3.291   1.073  16.805 -0.0281 -0.7548 -0.2055
 2205TIP3    H130810   3.255   0.988  16.779 -0.4108 -0.5084 -0.5075
 2205TIP3    H230811   3.386   1.062  16.803 -0.0312 -0.7290 -1.8228
 2206TIP3   OH230812   3.397   2.460  17.552  0.2388 -0.2291  0.3579
 2206TIP3    H130813   3.366   2.425  17.636  0.0984 -2.4532 -0.5546
 2206TIP3    H230814   3.366   2.551  17.551 -1.8298 -0.8511  1.6889
 2207TIP3   OH230815   0.950   3.252  19.569  0.3933 -0.4720 -0.0090
 2207TIP3    H130816   0.965   3.263  19.476 -1.5632 -0.6863 -0.4062
 2207TIP3    H230817   0.854   3.254  19.578  0.4959 -1.4367  1.8578
 2208TIP3   OH230818   3.781   5.079  18.955  0.2389 -0.4621 -0.6664
 2208TIP3    H130819   3.719   5.019  18.997 -0.1686 -0.9661 -1.9249
 2208TIP3    H230820   3.776   5.159  19.008  1.6603 -1.8466  1.7606
 2209TIP3   OH230821   2.130   2.250  17.532  0.4353 -0.3692 -0.1248
 2209TIP3    H130822   2.146   2.334  17.574  0.0960 -0.1556 -0.4142
 2209TIP3    H230823   2.184   2.252  17.453  0.3117 -0.3582 -0.2092
 2210TIP3   OH230824   6.902   4.407  18.596  0.5128 -0.5705 -0.6952
 2210TIP3    H130825   6.851   4.488  18.601 -1.9186 -2.0624  0.9528
 2210TIP3    H230826   6.959   4.410  18.673  2.2435  0.5957 -1.9467
 2211TIP3   OH230827   1.402   5.120  17.906 -0.4811  0.0342  0.1607
 2211TIP3    H130828   1.449   5.186  17.855 -0.4986  0.4789  0.7158
 2211TIP3    H230829   1.322   5.164  17.934 -1.5410 -0.8958 -1.2668
 2212TIP3   OH230830   3.561   0.484  17.516 -0.5067  1.1534 -0.0444
 2212TIP3    H130831   3.568   0.413  17.580 -2.3406  1.1028  0.1410
 2212TIP3    H230832   3.535   0.560  17.568  0.3307  1.7128 -0.4153
 2213TIP3   OH230833   2.910   3.518  18.949 -0.1596  0.0600  0.7678
 2213TIP3    H130834   2.830   3.566  18.928  0.6634  0.8217 -0.8685
 2213TIP3    H230835   2.917   3.522  19.044 -1.9319  0.1645  0.9238
 2214TIP3   OH230836   4.770   7.436  17.515  0.6686 -0.1713 -0.0401
 2214TIP3    H130837   4.740   7.380  17.444 -1.0379  0.1491  0.3823
 2214TIP3    H230838   4.698   7.497  17.530  0.4185 -0.9919  2.7880
 2215TIP3   OH230839   7.505   5.055  19.225 -0.0848  0.2739 -0.0209
 2215TIP3    H130840   7.497   5.063  19.320  0.1677 -0.8444  0.1120
 2215TIP3    H230841   7.549   5.135  19.197  0.0105  0.5251  0.8265
 2216TIP3   OH230842   3.545   3.923  18.104  0.2162 -0.0098  0.3861
 2216TIP3    H130843   3.532   3.999  18.161 -1.5689 -0.3868  0.5266
 2216TIP3    H230844   3.565   3.852  18.164 -0.4550 -0.1433  0.4592
 2217TIP3   OH230845   5.593   5.742  18.363 -0.1128  0.2883  0.4253
 2217TIP3    H130846   5.551   5.812  18.313 -0.1167  1.7305  2.3297
 2217TIP3    H230847   5.684   5.772  18.373 -0.1324  0.0686  1.3145
 2218TIP3   OH230848   3.039   6.085  18.360  0.9407  0.2220  0.4396
 2218TIP3    H130849   3.040   6.101  18.265 -0.0372  0.2826  0.4251
 2218TIP3    H230850   2.996   6.000  18.369  0.5206  0.4741  0.8525
 2219TIP3   OH230851   2.774   3.160  17.336 -0.1594  0.5767 -0.0272
 2219TIP3    H130852   2.717   3.223  17.379  1.3682  0.3503  2.5499
 2219TIP3    H230853   2.793   3.094  17.403  0.1188 -1.4336 -1.9376
 2220TIP3   OH230854   6.369   3.060  18.193  0.5633 -0.3222  0.5484
 2220TIP3    H130855   6.347   3.085  18.104  1.3086 -1.4479  0.0297
 2220TIP3    H230856   6.295   3.007  18.223  1.0920 -1.4206 -0.0467
 2221TIP3   OH230857   2.311   1.264  19.172  0.4347  0.0426 -0.7632
 2221TIP3    H130858   2.291   1.318  19.095 -2.2236  0.5636  0.1901
 2221TIP3    H230859   2.362   1.321  19.229 -0.0446  0.6377 -0.9191
 2222TIP3   OH230860   5.672   2.091  18.763  0.6004  0.3098 -0.0392
 2222TIP3    H130861   5.707   2.094  18.674 -1.0838  0.5802 -0.7364
 2222TIP3    H230862   5.583   2.056  18.753  0.0865  1.0943  1.4310
 2223TIP3   OH230863   2.017   6.582  18.378 -0.1523  0.1237 -0.1597
 2223TIP3    H130864   1.971   6.544  18.303 -0.1346 -0.9587  0.3531
 2223TIP3    H230865   1.954   6.579  18.450  0.4056 -0.5289  0.3163
 2224TIP3   OH230866   1.545   5.289  17.712  0.2315 -0.0310  0.3484
 2224TIP3    H130867   1.559   5.366  17.767  0.6668 -1.1369  1.8513
 2224TIP3    H230868   1.613   5.296  17.645 -0.7473  1.7029 -0.5336
 2225TIP3   OH230869   2.964   3.680  16.430  0.2396  0.0543 -0.1722
 2225TIP3    H130870   3.017   3.721  16.362 -0.3937 -0.8311 -1.2342
 2225TIP3    H230871   2.969   3.586  16.412 -2.1159 -0.0350 -0.6727
 2226TIP3   OH230872   6.320   1.831  17.312  0.3498  0.3208 -0.5613
 2226TIP3    H130873   6.390   1.777  17.349 -0.9052 -0.9888  0.0218
 2226TIP3    H230874   6.349   1.850  17.222  2.0821  1.0368  0.1093
 2227TIP3   OH230875   4.663   4.267  19.135  0.1221 -0.1855  0.3334
 2227TIP3    H130876   4.648   4.362  19.126  2.1673  0.0708 -0.8778
 2227TIP3    H230877   4.611   4.228  19.065  1.7855  0.3585 -1.2818
 2228TIP3   OH230878   3.688   3.973  16.736 -0.0293 -0.7542  0.1586
 2228TIP3    H130879   3.705   4.063  16.710  1.1059 -1.1900 -0.7074
 2228TIP3    H230880   3.768   3.925  16.711 -0.6122 -1.9980  0.5839
 2229TIP3   OH230881   5.311   3.989  18.020  0.6699 -0.1537 -0.3551
 2229TIP3    H130882   5.264   4.010  17.939 -0.2801 -0.2719  0.1537
 2229TIP3    H230883   5.337   3.897  18.009  0.5369 -0.1727 -0.5236
 2230TIP3   OH230884   6.222   2.666  18.717 -0.3813 -0.2468  0.5846
 2230TIP3    H130885   6.243   2.759  18.709  0.3747 -0.4461  0.1632
 2230TIP3    H230886   6.300   2.620  18.684 -0.7292 -1.0298  0.8122
 2231TIP3   OH230887   3.617   1.587  16.622 -0.1374  0.4372  0.1505
 2231TIP3    H130888   3.631   1.505  16.670 -0.6142  1.2278  1.7136
 2231TIP3    H230889   3.585   1.559  16.536  1.8436 -1.0676 -0.1695
 2232TIP3   OH230890   3.056   3.085  18.467 -0.3995  0.1698  0.1065
 2232TIP3    H130891   3.142   3.044  18.480 -1.2576 -1.4015  1.1641
 2232TIP3    H230892   3.046   3.144  18.542  0.5626  1.9059 -1.0774
 2233TIP3   OH230893   2.879   1.115  18.091  0.2086  0.3073 -0.0969
 2233TIP3    H130894   2.797   1.090  18.049  0.7441 -0.6698 -0.5989
 2233TIP3    H230895   2.861   1.107  18.185 -0.4260  0.6470 -0.1861
 2234TIP3   OH230896   1.887   3.409  17.212 -0.1385  0.3088  0.4740
 2234TIP3    H130897   1.820   3.343  17.196  0.3635  0.0751 -0.7943
 2234TIP3    H230898   1.969   3.360  17.217  0.3056  0.8451 -1.0111
 2235TIP3   OH230899   4.194   7.298  16.865  0.2352 -0.2653  0.1041
 2235TIP3    H130900   4.104   7.321  16.843  0.0390  0.0480  1.1826
 2235TIP3    H230901   4.190   7.207  16.894 -0.0601  0.2837  1.8831
 2236TIP3   OH230902   2.362   3.710  17.602  0.6194 -0.1225 -0.6769
 2236TIP3    H130903   2.385   3.741  17.514  2.8745 -1.4357 -0.6135
 2236TIP3    H230904   2.357   3.615  17.593 -2.8710 -0.1308 -0.1321
 2237TIP3   OH230905   7.020   5.316  17.588 -0.0055  0.4903  0.1504
 2237TIP3    H130906   6.982   5.350  17.506  0.6232 -1.6968 -1.1270
 2237TIP3    H230907   7.098   5.269  17.560  0.4391  0.0246  2.0851
 2238TIP3   OH230908   4.995   7.189  19.592  0.3258 -0.3934 -0.6820
 2238TIP3    H130909   5.017   7.126  19.661  0.7681 -0.6039 -1.0090
 2238TIP3    H230910   5.011   7.142  19.510 -0.0679 -0.1035 -0.9313
 2239TIP3   OH230911   2.352   7.418  19.384  0.5141  0.1606  0.7736
 2239TIP3    H130912   2.380   7.327  19.394 -1.9857 -0.7497 -0.0014
 2239TIP3    H230913   2.364   7.456  19.471  0.4321 -1.2603  1.4305
 2240TIP3   OH230914   3.062   6.108  18.078  0.2076  0.6853 -0.4582
 2240TIP3    H130915   2.992   6.151  18.029 -0.9998 -1.0608 -0.3631
 2240TIP3    H230916   3.073   6.024  18.033  2.3803  0.9723 -0.5629
 2241TIP3   OH230917   0.422   0.119  18.326  0.2784  0.0568 -0.4385
 2241TIP3    H130918   0.502   0.102  18.276  1.3112  0.5609  0.9607
 2241TIP3    H230919   0.422   0.214  18.341  1.1210 -0.2544  2.1734
 2242TIP3   OH230920   1.359   2.894  18.302 -0.8415  0.3074 -0.0979
 2242TIP3    H130921   1.287   2.893  18.365 -0.2888  1.9411  0.6028
 2242TIP3    H230922   1.317   2.916  18.219 -1.2028  0.9191  0.2388
 2243TIP3   OH230923   6.373   6.685  19.232  0.5128  0.0601  0.0182
 2243TIP3    H130924   6.313   6.661  19.161 -0.1804  1.1072  0.2325
 2243TIP3    H230925   6.347   6.628  19.305 -0.0300  0.3014  0.0173
 2244TIP3   OH230926   4.552   5.194  18.413 -0.6459 -0.3382  0.2003
 2244TIP3    H130927   4.621   5.239  18.365 -0.7525 -0.4181 -0.0286
 2244TIP3    H230928   4.591   5.173  18.498  0.0113 -1.4572 -0.3557
 2245TIP3   OH230929   5.260   6.175  17.991 -0.0708  0.0029 -0.3321
 2245TIP3    H130930   5.193   6.113  18.021 -0.8704  0.3664 -1.3341
 2245TIP3    H230931   5.220   6.261  18.002  0.2012  0.2223 -0.9964
 2246TIP3   OH230932   4.654   3.754  17.060 -0.0544  0.1090 -0.2817
 2246TIP3    H130933   4.692   3.823  17.115 -0.6397  0.5460 -0.4124
 2246TIP3    H230934   4.561   3.753  17.085 -0.2769  0.1590 -1.0965
 2247TIP3   OH230935   4.139   0.332  17.015 -0.6886 -0.5756 -0.0101
 2247TIP3    H130936   4.198   0.263  16.983  0.4614  0.0195  0.7701
 2247TIP3    H230937   4.174   0.413  16.977 -1.6814 -0.3357 -0.4460
 2248TIP3   OH230938   4.270   5.845  17.509  0.1886  0.2034  0.3690
 2248TIP3    H130939   4.355   5.824  17.471  0.4845 -1.4769  1.8520
 2248TIP3    H230940   4.210   5.780  17.472 -0.6322  1.6784 -1.0606
 2249TIP3   OH230941   5.483   5.718  17.645  0.0307 -0.6013  0.5342
 2249TIP3    H130942   5.448   5.681  17.564  2.8376 -0.8409 -0.6801
 2249TIP3    H230943   5.484   5.812  17.630 -1.1112 -0.4996  1.0344
 2250TIP3   OH230944   0.346   0.540  18.602  0.1553 -0.3294  0.1971
 2250TIP3    H130945   0.377   0.482  18.672 -0.7970  2.0484  2.7563
 2250TIP3    H230946   0.424   0.587  18.574  0.2903 -0.2002  0.7763
 2251TIP3   OH230947   4.144   3.585  16.683 -0.9692  0.1277 -0.4643
 2251TIP3    H130948   4.132   3.496  16.650 -2.9373  0.6458 -1.3332
 2251TIP3    H230949   4.235   3.607  16.662 -1.1971 -0.7548 -2.6591
 2252TIP3   OH230950   1.484   4.359  18.504 -0.6795 -0.4008 -0.2463
 2252TIP3    H130951   1.430   4.293  18.460  0.2100 -0.8742 -0.6613
 2252TIP3    H230952   1.454   4.442  18.467 -1.9208 -0.5375  0.4007
 2253TIP3   OH230953   4.431   3.510  18.503 -0.0514 -0.1963  0.1448
 2253TIP3    H130954   4.449   3.521  18.596 -0.1115 -1.1145  0.2728
 2253TIP3    H230955   4.338   3.485  18.499 -0.5405  1.4979 -0.2973
 2254TIP3   OH230956   2.661   3.679  19.464  0.2669 -0.1933  0.3296
 2254TIP3    H130957   2.681   3.590  19.436  1.0192 -0.1512  0.6814
 2254TIP3    H230958   2.567   3.688  19.452  0.3853 -0.5450 -1.0830
 2255TIP3   OH230959   2.290   2.638  17.854  0.3959  0.5310  0.0658
 2255TIP3    H130960   2.338   2.634  17.937 -0.0104  0.0321  0.2827
 2255TIP3    H230961   2.305   2.727  17.822  0.2943  0.8350  0.8372
 2256TIP3   OH230962   2.559   0.217  18.499  0.5978  0.0414  0.6432
 2256TIP3    H130963   2.615   0.186  18.570  0.3859 -1.8296  0.0405
 2256TIP3    H230964   2.620   0.240  18.429  0.8411  2.3565  1.5250
 2257TIP3   OH230965   6.519   4.185  18.949  0.8298 -0.2054 -0.1980
 2257TIP3    H130966   6.495   4.122  18.881  1.4244 -0.6035 -0.0424
 2257TIP3    H230967   6.486   4.268  18.917 -2.1636 -0.9266  0.6839
 2258TIP3   OH230968   2.703   1.581  18.386 -0.2215  0.2099  0.3897
 2258TIP3    H130969   2.731   1.524  18.314 -0.0510 -0.2268  0.7956
 2258TIP3    H230970   2.642   1.643  18.345  1.7633  1.5684 -0.6344
 2259TIP3   OH230971   7.368   3.582  18.034 -0.4519  0.0290  0.0557
 2259TIP3    H130972   7.301   3.638  18.075  0.5015  0.6278  0.8293
 2259TIP3    H230973   7.379   3.619  17.947 -0.3385  0.6216  0.3151
 2260TIP3   OH230974   6.969   4.322  17.812 -0.2977  0.3881  0.3460
 2260TIP3    H130975   6.910   4.356  17.745  0.4755 -0.8123 -1.0167
 2260TIP3    H230976   6.934   4.236  17.834  0.4850 -0.0110  0.0877
 2261TIP3   OH230977   1.725   0.698  17.373  0.3165 -0.7165  0.4140
 2261TIP3    H130978   1.757   0.615  17.407 -1.4531 -1.8686 -0.5915
 2261TIP3    H230979   1.733   0.691  17.278  0.6815  0.4986  0.3336
 2262TIP3   OH230980   3.690   0.077  17.716 -0.0330  0.8326 -0.3917
 2262TIP3    H130981   3.708   0.119  17.631 -0.1817  2.0616  0.1600
 2262TIP3    H230982   3.772   0.086  17.764  0.3604 -0.7205 -0.7232
 2263TIP3   OH230983   5.125   3.475  18.673 -0.1099  0.2098  0.2048
 2263TIP3    H130984   5.211   3.451  18.708 -0.7643 -2.8313  0.0499
 2263TIP3    H230985   5.142   3.552  18.618  2.0251  1.2129  2.0953
 2264TIP3   OH230986   1.389   4.328  19.686 -0.2047 -0.2536  0.4602
 2264TIP3    H130987   1.363   4.419  19.701  0.6653 -0.1626  1.5697
 2264TIP3    H230988   1.376   4.286  19.771  2.6850 -0.3159  0.9694
 2265TIP3   OH230989   4.885   2.975  19.022 -0.0304  0.3960  0.2796
 2265TIP3    H130990   4.811   2.952  18.965  0.2005  1.9229 -0.7102
 2265TIP3    H230991   4.844   3.014  19.099 -0.2968  0.0432  0.3209
 2266TIP3   OH230992   0.663   5.335  17.660 -0.2030 -0.1157 -0.2482
 2266TIP3    H130993   0.609   5.279  17.715 -1.0856 -0.8200 -1.7503
 2266TIP3    H230994   0.713   5.275  17.606  0.4399  0.5495 -0.4131
 2267TIP3   OH230995   4.526   2.620  18.635  0.2567 -0.2650 -0.2583
 2267TIP3    H130996   4.467   2.599  18.563  1.3246  0.9371 -1.5256
 2267TIP3    H230997   4.601   2.563  18.624  0.6185  0.2232 -0.3700
 2268TIP3   OH230998   2.626   1.252  17.400  0.1724 -0.9226 -0.2718
 2268TIP3    H130999   2.600   1.180  17.342 -1.1046 -1.9293  1.4632
 2268TIP3    H231000   2.678   1.209  17.469  1.0604  0.1431 -0.2476
 2269TIP3   OH231001   6.700   3.638  17.599 -0.4789  0.1788 -0.0447
 2269TIP3    H131002   6.708   3.704  17.531 -0.7940 -0.5072 -0.7675
 2269TIP3    H231003   6.774   3.579  17.585 -0.7853 -0.2085 -0.0762
 2270TIP3   OH231004   2.949   3.109  17.119 -0.4533 -0.3529  0.1000
 2270TIP3    H131005   2.874   3.127  17.177 -0.7084 -0.0836 -0.3130
 2270TIP3    H231006   2.929   3.156  17.038  0.5089  0.3224  0.2410
 2271TIP3   OH231007   4.821   1.226  17.175  0.1008  0.2183  0.6535
 2271TIP3    H131008   4.768   1.172  17.234 -1.1307 -0.1598 -0.7346
 2271TIP3    H231009   4.898   1.173  17.157  0.0481 -0.0518  1.1829
 2272TIP3   OH231010   7.538   6.826  18.066  0.5034 -0.0311 -0.5503
 2272TIP3    H131011   7.588   6.809  17.986 -0.5146 -1.5612 -0.9044
 2272TIP3    H231012   7.604   6.826  18.135  1.2318 -0.1097 -1.2277
 2273TIP3   OH231013   7.523   4.712  18.480 -0.7614 -0.3380  0.1168
 2273TIP3    H131014   7.492   4.803  18.476 -1.5485 -0.6267 -0.7920
 2273TIP3    H231015   7.515   4.680  18.391 -2.5910 -1.9589  0.7793
 2274TIP3   OH231016   1.666   5.209  18.830 -0.1785  0.2746  0.4280
 2274TIP3    H131017   1.611   5.228  18.754 -0.1036 -1.0388  0.0221
 2274TIP3    H231018   1.609   5.223  18.906  0.0481  2.6812  0.2334
 2275TIP3   OH231019   2.276   2.297  17.869  0.0747 -0.1585 -0.6028
 2275TIP3    H131020   2.251   2.344  17.789  1.4693  3.0594  0.6756
 2275TIP3    H231021   2.213   2.326  17.935  1.0100  0.0046  0.2444
 2276TIP3   OH231022   5.356   2.435  16.668  0.0134  0.1902 -0.3004
 2276TIP3    H131023   5.410   2.366  16.629  0.7732  0.8312 -0.4058
 2276TIP3    H231024   5.267   2.414  16.640  0.4864  0.4305 -2.1126
 2277TIP3   OH231025   2.757   1.550  16.572 -0.2132 -0.1593 -0.1390
 2277TIP3    H131026   2.840   1.574  16.531  0.0908 -0.8531  0.0685
 2277TIP3    H231027   2.695   1.616  16.540  0.3922  0.3016 -0.3709
 2278TIP3   OH231028   3.432   1.228  18.031  0.6153  0.3305  0.0428
 2278TIP3    H131029   3.342   1.261  18.035  0.2741 -0.3736 -1.3353
 2278TIP3    H231030   3.424   1.141  17.992  1.8594  0.0761  0.3227
 2279TIP3   OH231031   2.892   5.469  18.475  0.9152 -0.0666 -0.4275
 2279TIP3    H131032   2.969   5.519  18.448  0.1175  1.9387  0.7638
 2279TIP3    H231033   2.917   5.432  18.560  0.0286  2.1208  0.8636
 2280TIP3   OH231034   0.930   3.032  16.915 -0.3661 -0.1007  0.2561
 2280TIP3    H131035   0.859   3.061  16.858  1.7738  2.4233 -1.3401
 2280TIP3    H231036   0.952   2.944  16.884 -1.8675 -0.3707 -0.1039
 2281TIP3   OH231037   3.825   5.922  17.032  0.3939 -0.3518  0.3203
 2281TIP3    H131038   3.762   5.985  16.997  1.3033 -0.1707 -1.0948
 2281TIP3    H231039   3.774   5.842  17.044 -0.5258  0.3197  1.0721
 2282TIP3   OH231040   1.016   0.183  18.569  0.5509  0.4526  0.3890
 2282TIP3    H131041   0.996   0.224  18.485  2.9692  2.2619  0.5742
 2282TIP3    H231042   1.010   0.254  18.633  0.7339 -0.4237  1.4119
 2283TIP3   OH231043   6.424   0.113  19.359  0.2722 -0.3752 -0.2260
 2283TIP3    H131044   6.442   0.164  19.280 -0.7717 -0.5086 -0.5655
 2283TIP3    H231045   6.450   0.170  19.431 -1.5755  0.9963 -0.5602
 2284TIP3   OH231046   3.887   5.564  19.008 -0.4468  0.1830 -0.2151
 2284TIP3    H131047   3.806   5.616  19.011  0.7878  2.2130  0.0373
 2284TIP3    H231048   3.946   5.615  18.952  0.8233 -1.0246 -0.0353
 2285TIP3   OH231049   3.683   3.796  18.923 -0.1367 -0.4691 -0.2454
 2285TIP3    H131050   3.694   3.849  18.844 -2.7696 -0.0307 -0.4059
 2285TIP3    H231051   3.760   3.739  18.925  1.2814  1.3007 -1.6840
 2286TIP3   OH231052   3.082   4.968  17.881 -0.5590 -0.5557  0.7406
 2286TIP3    H131053   3.028   4.969  17.802 -0.8732  0.0513  0.9510
 2286TIP3    H231054   3.032   5.021  17.944  0.1515 -0.2098  1.0228
 2287TIP3   OH231055   5.383   1.286  19.080 -0.0532  0.6013 -0.1771
 2287TIP3    H131056   5.382   1.251  18.991  0.8591  1.9384 -0.7462
 2287TIP3    H231057   5.300   1.258  19.118  0.4111 -1.6962 -0.7500
 2288TIP3   OH231058   7.309   5.501  17.673  0.1622  0.1879  0.3411
 2288TIP3    H131059   7.312   5.421  17.621 -0.3205 -0.7765  1.7492
 2288TIP3    H231060   7.390   5.547  17.651  1.5577 -1.7694  1.1990
 2289TIP3   OH231061   5.481   3.625  16.893  0.2102 -0.0282  0.3496
 2289TIP3    H131062   5.575   3.643  16.895  0.1895  0.0551  0.5603
 2289TIP3    H231063   5.445   3.674  16.967 -0.0447  0.1995  0.0833
 2290TIP3   OH231064   0.848   2.775  18.204  0.2147 -0.1525  0.1180
 2290TIP3    H131065   0.770   2.811  18.246  0.9953  2.1591 -0.2697
 2290TIP3    H231066   0.814   2.718  18.134 -1.1426  1.0333 -0.2318
 2291TIP3   OH231067   4.826   7.396  19.697 -0.2379  0.1883  0.1903
 2291TIP3    H131068   4.886   7.464  19.726 -1.8809  2.6432 -1.7103
 2291TIP3    H231069   4.883   7.330  19.657  1.3370  2.2637 -1.2843
 2292TIP3   OH231070   4.135   5.596  18.346 -0.2196  0.2212 -0.0417
 2292TIP3    H131071   4.207   5.612  18.407  2.9821  1.7660 -3.7114
 2292TIP3    H231072   4.089   5.680  18.341  2.9409  2.0824 -3.3214
 2293TIP3   OH231073   0.336   1.827  17.260  0.6028 -0.4897  0.4957
 2293TIP3    H131074   0.368   1.827  17.350 -0.1664 -0.8273  0.7776
 2293TIP3    H231075   0.357   1.914  17.227  0.7410 -0.3079  1.0572
 2294TIP3   OH231076   5.957   7.406  16.797  0.2176 -0.0999 -0.3663
 2294TIP3    H131077   5.906   7.417  16.717 -0.4317 -0.1122  0.0402
 2294TIP3    H231078   6.030   7.468  16.789  1.2740 -1.4611 -1.8481
 2295TIP3   OH231079   1.553   3.460  17.830 -0.1018 -0.0300  0.5110
 2295TIP3    H131080   1.463   3.489  17.813  0.0000  1.4350  2.2004
 2295TIP3    H231081   1.607   3.512  17.771 -0.3837 -2.1533 -1.8164
 2296TIP3   OH231082   0.521   6.511  17.620  0.0624 -0.1442  0.0262
 2296TIP3    H131083   0.506   6.417  17.611 -0.0780 -0.0816 -0.4346
 2296TIP3    H231084   0.493   6.532  17.709 -1.4707 -0.2515 -0.4064
 2297TIP3   OH231085   6.020   4.079  18.289  0.5584  0.0065 -0.1783
 2297TIP3    H131086   5.945   4.070  18.349  1.5956  0.6171  1.2797
 2297TIP3    H231087   5.981   4.107  18.206 -0.8001  0.9324  0.7205
 2298TIP3   OH231088   3.989   0.588  19.013  0.4977 -0.0810  0.3837
 2298TIP3    H131089   4.077   0.559  19.038  0.0579 -0.5255  1.4410
 2298TIP3    H231090   3.930   0.528  19.058 -0.4321  2.0444  2.1732
 2299TIP3   OH231091   6.741   4.472  18.984  0.4799  1.1499  0.0482
 2299TIP3    H131092   6.653   4.476  19.022  0.6467  0.5621  0.5258
 2299TIP3    H231093   6.727   4.470  18.890 -0.0592  0.3483  0.1347
 2300TIP3   OH231094   5.428   0.210  19.094  0.4440 -0.5359 -0.1941
 2300TIP3    H131095   5.508   0.190  19.143 -0.1282 -1.5003  0.3813
 2300TIP3    H231096   5.459   0.254  19.015  1.5587 -1.0668 -0.0759
 2301TIP3   OH231097   1.184   6.861  19.107 -0.5994  0.1518  0.6995
 2301TIP3    H131098   1.116   6.844  19.042  0.9992  0.6473 -1.1738
 2301TIP3    H231099   1.223   6.776  19.123 -1.5617 -0.1232  1.7311
 2302TIP3   OH231100   7.679   0.637  17.122  0.0325  0.3019 -0.1408
 2302TIP3    H131101   7.672   0.727  17.090  0.8298  0.0467 -1.0718
 2302TIP3    H231102   7.617   0.587  17.069  0.5665  0.0731 -0.5640
 2303TIP3   OH231103   6.778   5.621  18.371  0.4586 -0.6265 -0.0179
 2303TIP3    H131104   6.848   5.684  18.351  0.1052 -0.8369 -2.0994
 2303TIP3    H231105   6.813   5.536  18.345 -0.3322 -0.8099 -0.5427
 2304TIP3   OH231106   0.722   7.467  17.891  0.1130 -0.5278  0.6452
 2304TIP3    H131107   0.721   7.372  17.878 -0.7950 -0.3910 -0.4646
 2304TIP3    H231108   0.809   7.494  17.861  0.1239 -0.9291  0.3081
 2305TIP3   OH231109   0.399   0.799  16.580  0.0168  0.8297 -0.3091
 2305TIP3    H131110   0.459   0.736  16.541  1.6155  1.0227  1.6405
 2305TIP3    H231111   0.392   0.869  16.515  0.1912 -0.1790 -1.4561
 2306TIP3   OH231112   2.926   5.447  19.151 -0.0332  0.7226 -0.4973
 2306TIP3    H131113   2.988   5.442  19.224 -0.0246  0.3754 -0.5247
 2306TIP3    H231114   2.860   5.380  19.171 -1.7175  2.6327  0.7313
 2307TIP3   OH231115   0.144   4.609  19.338 -0.0594  0.0990  0.0423
 2307TIP3    H131116   0.148   4.597  19.244 -1.7938 -1.0460  0.0758
 2307TIP3    H231117   0.057   4.579  19.363  0.3694  0.3380  2.0159
 2308TIP3   OH231118   2.268   5.469  19.246 -0.7214  0.0057  1.3305
 2308TIP3    H131119   2.195   5.483  19.307 -0.1613 -1.1165  2.3016
 2308TIP3    H231120   2.286   5.376  19.252  0.1039  0.0907  0.2918
 2309TIP3   OH231121   5.351   6.737  19.190 -0.1004  0.1874  0.3554
 2309TIP3    H131122   5.389   6.738  19.277  1.7318  2.2741 -0.3827
 2309TIP3    H231123   5.402   6.670  19.143 -0.2223 -0.0219  0.5173
 2310TIP3   OH231124   5.727   1.792  18.698 -0.2090  0.4581 -0.3314
 2310TIP3    H131125   5.749   1.720  18.757  0.0296  0.7546 -0.0576
 2310TIP3    H231126   5.757   1.763  18.612 -0.6788 -0.0307 -0.3335
 2311TIP3   OH231127   6.663   2.199  17.582  0.6971 -0.8290 -0.0437
 2311TIP3    H131128   6.613   2.249  17.518 -1.0162 -0.9500  1.1356
 2311TIP3    H231129   6.661   2.109  17.549 -0.0717 -0.8687  0.0895
 2312TIP3   OH231130   6.227   5.410  19.154 -0.0318 -0.2849  0.0629
 2312TIP3    H131131   6.201   5.320  19.175 -1.2421 -0.1205 -0.6302
 2312TIP3    H231132   6.266   5.404  19.068  1.9624 -0.4636  0.9308
 2313TIP3   OH231133   1.133   1.220  17.212  0.1463 -0.0483 -0.4315
 2313TIP3    H131134   1.142   1.169  17.292  2.5099  1.4526  0.3687
 2313TIP3    H231135   1.055   1.184  17.169 -1.0257 -1.1130  2.3483
 2314TIP3   OH231136   0.103   0.392  17.268  0.5244  0.3888 -0.3628
 2314TIP3    H131137   0.060   0.477  17.256  0.3799  1.0282  3.2578
 2314TIP3    H231138   0.035   0.328  17.248  0.0584  1.1691 -1.3699
 2315TIP3   OH231139   6.191   1.562  17.829 -0.2195  0.1436  0.2390
 2315TIP3    H131140   6.115   1.510  17.853  0.6217 -1.7076 -0.8643
 2315TIP3    H231141   6.248   1.559  17.906  0.5538 -2.0795 -0.3434
 2316TIP3   OH231142   6.467   5.912  17.646 -0.0456 -0.1742  0.7441
 2316TIP3    H131143   6.491   5.933  17.556  0.6856  1.4397  1.2806
 2316TIP3    H231144   6.537   5.949  17.699 -0.2818 -1.4158  1.9765
 2317TIP3   OH231145   2.647   1.269  18.219 -0.4212  0.8729  0.1864
 2317TIP3    H131146   2.719   1.326  18.194 -2.1139  2.7380 -0.7555
 2317TIP3    H231147   2.636   1.283  18.313  1.3980 -0.6637  0.6812
 2318TIP3   OH231148   1.069   6.307  17.831  0.0493  0.0523  0.1446
 2318TIP3    H131149   1.019   6.323  17.751 -0.7021 -0.8126  0.4149
 2318TIP3    H231150   1.082   6.212  17.832  1.3148  0.2169  0.3212
 2319TIP3   OH231151   5.458   3.115  17.470 -0.0800 -0.0015 -0.3378
 2319TIP3    H131152   5.377   3.072  17.496 -0.2529 -0.3750 -1.4617
 2319TIP3    H231153   5.469   3.092  17.378  0.6454  1.0837 -0.5354
 2320TIP3   OH231154   7.652   0.636  19.502  0.3608  0.3606 -0.5308
 2320TIP3    H131155   7.693   0.723  19.499 -0.4609  0.8045  0.8265
 2320TIP3    H231156   7.666   0.601  19.414  1.2876  1.5928 -0.9036
 2321TIP3   OH231157   2.381   4.372  19.449  0.1795  0.5286 -0.0645
 2321TIP3    H131158   2.356   4.458  19.414 -0.3799  0.2803 -0.2701
 2321TIP3    H231159   2.336   4.309  19.394 -0.4791  0.1223  0.9118
 2322TIP3   OH231160   1.671   7.272  18.813  0.1086 -0.2775 -0.1039
 2322TIP3    H131161   1.739   7.304  18.872 -0.4654 -1.6635  1.3769
 2322TIP3    H231162   1.687   7.319  18.731  0.5180  2.2440  1.3028
 2323TIP3   OH231163   2.644   2.255  18.276  0.7401 -0.1486 -0.4193
 2323TIP3    H131164   2.682   2.291  18.356  1.9751  0.2377 -1.1561
 2323TIP3    H231165   2.558   2.222  18.303 -0.3554  3.0168  0.3818
 2324TIP3   OH231166   6.482   0.464  17.148 -0.1705 -0.2650  0.0656
 2324TIP3    H131167   6.566   0.424  17.126 -0.1195 -0.5119  0.6930
 2324TIP3    H231168   6.444   0.405  17.213 -0.9953 -0.3425 -0.4826
 2325TIP3   OH231169   2.604   1.849  18.303 -0.6134  0.8027  0.3899
 2325TIP3    H131170   2.685   1.900  18.307  0.6730 -1.1588  0.8330
 2325TIP3    H231171   2.593   1.828  18.210  0.0242  0.1539  0.4507
 2326TIP3   OH231172   1.642   3.130  18.481  0.0607  0.2572  0.1686
 2326TIP3    H131173   1.653   3.071  18.556  1.3233  0.7618  0.4204
 2326TIP3    H231174   1.586   3.083  18.420 -0.1895 -0.5664  1.0133
 2327TIP3   OH231175   0.704   6.551  19.428 -0.5075 -0.5331  0.2207
 2327TIP3    H131176   0.746   6.494  19.362  0.9126 -0.7491  1.2711
 2327TIP3    H231177   0.671   6.625  19.377  1.3673 -0.2403 -0.6678
 2328TIP3   OH231178   3.622   5.496  17.360 -0.3298  0.2405  0.3045
 2328TIP3    H131179   3.541   5.537  17.391 -1.0857 -1.4794  0.7260
 2328TIP3    H231180   3.593   5.425  17.303  0.8070 -1.1366  1.3597
 2329TIP3   OH231181   6.591   2.480  17.476  0.1622  0.0334 -0.1154
 2329TIP3    H131182   6.513   2.479  17.420  0.4496  3.2330 -0.7206
 2329TIP3    H231183   6.559   2.512  17.561  0.5917  0.0156  0.0560
 2330TIP3   OH231184   5.971   6.342  17.177 -0.1228  0.0903  0.2337
 2330TIP3    H131185   6.033   6.372  17.111 -1.3940  3.1109  0.2277
 2330TIP3    H231186   6.007   6.375  17.260 -1.3529  1.3869  0.2911
 2331TIP3   OH231187   0.252   3.814  19.264  0.6858  0.2253 -0.2478
 2331TIP3    H131188   0.230   3.725  19.294  2.1508 -0.1477 -0.1787
 2331TIP3    H231189   0.342   3.827  19.294  0.7677  1.4378 -0.9607
 2332TIP3   OH231190   2.225   3.105  18.543  0.0304 -0.5440  0.1035
 2332TIP3    H131191   2.222   3.192  18.584  0.4787 -0.9954  1.1437
 2332TIP3    H231192   2.149   3.059  18.579 -2.7224  0.6454 -3.5451
 2333TIP3   OH231193   6.027   4.926  18.797  0.3223 -0.1961  0.0361
 2333TIP3    H131194   6.100   4.927  18.859  0.2188  0.3178  0.1551
 2333TIP3    H231195   5.996   4.835  18.798  0.5420 -0.2696  0.4735
 2334TIP3   OH231196   3.747   1.979  17.212  0.0117  0.5989  0.0403
 2334TIP3    H131197   3.656   1.949  17.220  0.0166  0.4204 -0.5428
 2334TIP3    H231198   3.761   1.989  17.118  0.2660  1.6561  0.1769
 2335TIP3   OH231199   4.159   6.325  17.499  0.0269  0.1124  0.2222
 2335TIP3    H131200   4.121   6.281  17.423  1.0662  1.0908 -0.9131
 2335TIP3    H231201   4.159   6.259  17.568 -0.4752 -0.9605 -0.7743
 2336TIP3   OH231202   7.441   6.214  18.145  0.0180 -0.0295 -0.0052
 2336TIP3    H131203   7.424   6.157  18.071 -0.2475 -2.6756  1.9507
 2336TIP3    H231204   7.355   6.233  18.182  0.2622 -0.5434  0.8622
 2337TIP3   OH231205   6.451   5.182  17.748 -0.2875 -0.1940 -0.1506
 2337TIP3    H131206   6.445   5.264  17.797 -3.5796 -0.5039  0.1719
 2337TIP3    H231207   6.513   5.202  17.677  2.6606  1.0309  2.5199
 2338TIP3   OH231208   5.630   7.564  16.516 -0.4193 -0.4680  0.3371
 2338TIP3    H131209   5.607   7.484  16.469  0.1903 -0.5401  0.1596
 2338TIP3    H231210   5.688   7.611  16.456 -2.0222  0.8803 -0.2516
 2339TIP3   OH231211   6.624   5.255  19.465  0.1751  0.3808 -0.0303
 2339TIP3    H131212   6.595   5.188  19.527  0.2454  0.8403  0.5077
 2339TIP3    H231213   6.716   5.234  19.448  0.5750  1.0973  1.1593
 2340TIP3   OH231214   3.485   6.440  16.644 -0.0264  0.0126 -0.1667
 2340TIP3    H131215   3.561   6.436  16.701 -0.2287  0.1022  0.1105
 2340TIP3    H231216   3.520   6.463  16.558  0.2577  0.0562 -0.0387
 2341TIP3   OH231217   1.100   4.953  17.289  0.6776  0.2015  0.0257
 2341TIP3    H131218   1.118   4.893  17.217 -1.3230  0.9908 -1.2415
 2341TIP3    H231219   1.186   4.979  17.321  1.6051 -1.7693 -0.6838
 2342TIP3   OH231220   4.622   0.491  18.360  0.2842 -0.0887 -0.1205
 2342TIP3    H131221   4.681   0.566  18.352 -1.1503  0.9713 -1.2124
 2342TIP3    H231222   4.680   0.415  18.352  1.6521  0.8813  0.0759
 2343TIP3   OH231223   3.003   4.432  17.681  0.0338  0.6118 -0.1722
 2343TIP3    H131224   3.005   4.341  17.710  2.8296  0.5698 -0.2975
 2343TIP3    H231225   2.995   4.483  17.761  1.5087  0.3060  0.1981
 2344TIP3   OH231226   1.728   1.627  18.211  0.6255 -0.5409 -0.2965
 2344TIP3    H131227   1.663   1.590  18.271 -1.4925  3.0985 -0.0255
 2344TIP3    H231228   1.688   1.617  18.124  0.0495  0.8548 -0.2241
 2345TIP3   OH231229   3.723   2.364  16.642  0.5854  0.3698 -0.4387
 2345TIP3    H131230   3.655   2.298  16.655 -0.4746  1.4698 -0.2752
 2345TIP3    H231231   3.741   2.361  16.548 -2.6977  2.8242 -1.3589
 2346TIP3   OH231232   2.679   6.875  17.163  0.2317  0.8274 -0.0716
 2346TIP3    H131233   2.678   6.801  17.103 -1.1600  0.1375  0.7601
 2346TIP3    H231234   2.677   6.952  17.106 -2.4320  0.2060 -0.9721
 2347TIP3   OH231235   0.464   4.540  16.534  0.2397 -0.3651 -0.1710
 2347TIP3    H131236   0.508   4.484  16.598  2.7605 -0.1120 -1.5704
 2347TIP3    H231237   0.476   4.629  16.570 -2.4142 -0.4868  1.2635
 2348TIP3   OH231238   7.289   6.748  19.021  0.3813  0.1264 -0.1831
 2348TIP3    H131239   7.338   6.747  18.938 -1.3157 -1.2202 -1.2468
 2348TIP3    H231240   7.285   6.841  19.045  2.1293  0.4144 -0.8095
 2349TIP3   OH231241   2.943   6.949  18.565 -0.0663  0.1473  0.0681
 2349TIP3    H131242   2.896   6.893  18.627 -0.6265  0.0902 -0.4016
 2349TIP3    H231243   2.985   7.016  18.620  2.4453 -1.9511  0.8886
 2350TIP3   OH231244   3.114   2.214  18.608 -0.2164  1.0188 -0.4282
 2350TIP3    H131245   3.092   2.138  18.660 -1.5049  2.3811  1.0956
 2350TIP3    H231246   3.209   2.207  18.594 -0.1462 -0.2918  0.5858
 2351TIP3   OH231247   2.127   1.186  18.341 -0.6123 -0.1565  0.3597
 2351TIP3    H131248   2.069   1.119  18.376 -1.2279  0.3829  0.4098
 2351TIP3    H231249   2.070   1.238  18.284  0.2581 -0.7650 -1.1279
 2352TIP3   OH231250   0.554   1.417  17.058 -0.0687  0.2412 -0.2649
 2352TIP3    H131251   0.616   1.434  17.129  0.3877 -0.0793 -0.5876
 2352TIP3    H231252   0.489   1.487  17.066 -0.4135 -0.1839  0.9098
 2353TIP3   OH231253   6.381   3.074  17.027 -0.6144 -0.3437  0.4526
 2353TIP3    H131254   6.446   3.005  17.011  0.0463  0.1615  0.8799
 2353TIP3    H231255   6.326   3.074  16.949 -0.1158 -0.8105  0.0933
 2354TIP3   OH231256   1.746   7.464  19.276  0.0790 -0.3413 -0.5661
 2354TIP3    H131257   1.657   7.473  19.312 -0.5741 -1.2465 -1.8808
 2354TIP3    H231258   1.793   7.413  19.342  0.4827  2.3862  1.4592
 2355TIP3   OH231259   0.417   6.838  18.053 -0.0223  0.6026  0.2444
 2355TIP3    H131260   0.418   6.760  17.998 -2.4213  0.3097  0.5083
 2355TIP3    H231261   0.498   6.884  18.032  0.6601 -1.1385 -1.1089
 2356TIP3   OH231262   3.081   5.670  18.699 -0.3294  0.1770 -0.0441
 2356TIP3    H131263   3.162   5.697  18.742 -0.4530  0.9359 -0.2741
 2356TIP3    H231264   3.020   5.652  18.770  0.0941 -0.6088  0.1385
 2357TIP3   OH231265   5.013   4.377  17.832 -0.4198 -0.5572 -0.2066
 2357TIP3    H131266   5.027   4.459  17.880 -1.9017  0.4171 -1.3619
 2357TIP3    H231267   5.042   4.395  17.743  0.2675 -1.6570 -0.2262
 2358TIP3   OH231268   3.623   1.371  16.793 -0.1228  0.2199 -0.2964
 2358TIP3    H131269   3.627   1.281  16.824 -0.8646  0.1615 -0.3597
 2358TIP3    H231270   3.677   1.421  16.855 -1.3304  0.0649  0.9186
 2359TIP3   OH231271   0.631   1.244  17.891  0.4272 -0.0660 -0.3914
 2359TIP3    H131272   0.677   1.196  17.960  0.4910 -0.3135 -0.6006
 2359TIP3    H231273   0.545   1.262  17.927  0.9842  1.2289  0.3669
 2360TIP3   OH231274   7.062   4.451  18.798 -0.6885 -0.6434  0.2090
 2360TIP3    H131275   7.132   4.408  18.848 -0.0940  0.3839  0.3014
 2360TIP3    H231276   7.029   4.519  18.857  0.6682  1.2309 -1.0387
 2361TIP3   OH231277   4.011   1.250  19.848  0.4277  0.1746 -0.1474
 2361TIP3    H131278   3.920   1.220  19.849  0.7974 -1.0042 -0.5721
 2361TIP3    H231279   4.063   1.171  19.861  1.3996  0.8811  0.4537
 2362TIP3   OH231280   2.388   4.972  18.760  0.2644  0.2027  0.3270
 2362TIP3    H131281   2.336   5.048  18.785 -0.9197 -0.6892  0.6457
 2362TIP3    H231282   2.477   5.006  18.752 -0.4666  1.9270 -1.0185
 2363TIP3   OH231283   0.526   1.522  19.254  0.0862 -0.0091 -0.4296
 2363TIP3    H131284   0.562   1.439  19.284 -0.8720 -0.5378 -0.7042
 2363TIP3    H231285   0.480   1.557  19.330  1.3283  0.7790 -0.0090
 2364TIP3   OH231286   2.217   3.861  18.909  0.4743 -0.1627  0.0650
 2364TIP3    H131287   2.310   3.859  18.888  0.8711  1.0491  1.5665
 2364TIP3    H231288   2.183   3.936  18.860  0.3669 -0.3329 -0.1249
 2365TIP3   OH231289   6.162   4.237  17.927  0.1157  0.1639 -0.0231
 2365TIP3    H131290   6.256   4.221  17.914  0.4864  1.0580  1.3243
 2365TIP3    H231291   6.136   4.173  17.993 -0.2325 -0.1152 -0.4321
 2366TIP3   OH231292   5.978   0.824  17.717 -0.2467 -0.0928 -0.2018
 2366TIP3    H131293   5.883   0.833  17.712 -0.4316 -1.4931  0.5307
 2366TIP3    H231294   6.004   0.802  17.627 -0.5901  0.4196 -0.4322
 2367TIP3   OH231295   0.113   5.157  18.063 -0.2129  0.4782 -1.0469
 2367TIP3    H131296   0.058   5.107  18.002  0.3483 -0.2881 -0.9311
 2367TIP3    H231297   0.091   5.248  18.044 -1.2136  0.2047 -1.2995
 2368TIP3   OH231298   3.419   0.623  19.596  0.1002  0.1205 -0.7573
 2368TIP3    H131299   3.422   0.547  19.538  1.9816  0.3328 -0.9997
 2368TIP3    H231300   3.414   0.586  19.684 -0.2616 -0.2563 -0.9326
 2369TIP3   OH231301   0.265   5.519  16.838  0.0563 -0.3045 -0.3500
 2369TIP3    H131302   0.307   5.478  16.914 -0.0427  0.0450 -0.1025
 2369TIP3    H231303   0.239   5.446  16.782 -0.9135 -0.6400  0.5041
 2370TIP3   OH231304   1.799   1.372  17.875 -0.2093 -0.4011  0.3400
 2370TIP3    H131305   1.761   1.347  17.791  0.6405  0.0895 -0.2131
 2370TIP3    H231306   1.735   1.345  17.940 -1.4001  0.2125 -0.5318
 2371TIP3   OH231307   0.822   2.504  18.684 -0.2869 -0.3852 -0.0573
 2371TIP3    H131308   0.837   2.521  18.777  1.5527 -0.3099 -0.3212
 2371TIP3    H231309   0.841   2.588  18.641  2.9310 -1.3585 -0.8181
 2372TIP3   OH231310   1.659   4.002  17.161  0.9339 -0.0731 -0.6333
 2372TIP3    H131311   1.649   3.912  17.192  0.2208 -0.0155 -0.6603
 2372TIP3    H231312   1.707   3.993  17.079  1.1065 -0.4061 -0.4990
 2373TIP3   OH231313   2.291   5.778  18.843 -0.1485  0.6509  0.2923
 2373TIP3    H131314   2.261   5.757  18.932  0.8854  0.8567  0.7065
 2373TIP3    H231315   2.307   5.692  18.803 -0.1823  0.5639  0.4623
 2374TIP3   OH231316   3.553   1.683  19.178 -0.3509  0.1887  0.2293
 2374TIP3    H131317   3.468   1.682  19.134 -0.3019  0.0778  0.1369
 2374TIP3    H231318   3.580   1.775  19.176 -0.5050  0.2367  0.3291
 2375TIP3   OH231319   6.638   0.458  17.412  0.4916 -0.3709  0.0596
 2375TIP3    H131320   6.612   0.547  17.387 -0.2154  0.1197  2.3148
 2375TIP3    H231321   6.687   0.425  17.336  1.0190  2.0261 -0.7286
 2376TIP3   OH231322   1.325   4.122  18.082  0.1837  0.0496 -0.0068
 2376TIP3    H131323   1.394   4.060  18.058 -0.3125 -0.6750  0.3797
 2376TIP3    H231324   1.363   4.208  18.065  1.6241 -0.2769  1.2979
 2377TIP3   OH231325   0.837   3.519  19.028  0.6820 -0.2796 -0.4350
 2377TIP3    H131326   0.887   3.452  18.981 -0.3126 -0.6512 -0.9842
 2377TIP3    H231327   0.779   3.556  18.961 -1.3161 -1.3351  0.6412
 2378TIP3   OH231328   1.543   2.722  17.555  0.4400  0.1302  0.1113
 2378TIP3    H131329   1.565   2.703  17.463  0.9008  2.3949 -0.3070
 2378TIP3    H231330   1.453   2.755  17.551  0.8345  1.2901  0.2734
 2379TIP3   OH231331   3.764   6.287  17.310  0.1542  0.0722 -0.4065
 2379TIP3    H131332   3.701   6.218  17.329  0.0520  0.2301 -0.1766
 2379TIP3    H231333   3.738   6.360  17.366  0.4074  0.2143 -0.4728
 2380TIP3   OH231334   4.545   0.666  17.616 -0.0396  0.3961  0.5253
 2380TIP3    H131335   4.590   0.715  17.548  0.0122  0.1103  0.3539
 2380TIP3    H231336   4.596   0.586  17.627  0.7404  1.0401  1.8650
 2381TIP3   OH231337   5.674   6.826  19.204  0.0771 -0.0841  0.1877
 2381TIP3    H131338   5.725   6.749  19.180 -0.2611 -0.1487 -0.3326
 2381TIP3    H231339   5.622   6.797  19.279  1.7860  0.3801  1.6277
 2382TIP3   OH231340   2.936   1.394  17.911  0.3914 -0.5065 -0.0096
 2382TIP3    H131341   2.892   1.311  17.891 -1.5664  0.6962 -0.9813
 2382TIP3    H231342   3.006   1.399  17.846 -0.5008 -0.6727 -1.0203
 2383TIP3   OH231343   6.749   7.312  16.608  0.4937  0.3057 -0.2247
 2383TIP3    H131344   6.741   7.393  16.659  0.9358  0.7265 -0.8009
 2383TIP3    H231345   6.671   7.311  16.552  0.7720  0.6500 -0.6343
 2384TIP3   OH231346   0.281   0.532  18.262  0.3629  0.0396  0.3074
 2384TIP3    H131347   0.328   0.469  18.317  2.9479  1.0083 -0.6497
 2384TIP3    H231348   0.226   0.479  18.205 -0.8722 -1.0760  2.4145
 2385TIP3   OH231349   1.612   5.570  19.350  0.1724 -0.2725  0.7161
 2385TIP3    H131350   1.658   5.517  19.415 -0.1630 -0.4344  0.8238
 2385TIP3    H231351   1.620   5.660  19.383  2.0416 -0.0371 -0.2303
 2386TIP3   OH231352   2.198   6.760  17.608 -0.3995  0.2767  0.0249
 2386TIP3    H131353   2.125   6.701  17.628  0.1515 -0.0649  1.1018
 2386TIP3    H231354   2.197   6.768  17.513 -2.3286  0.9335  0.0723
 2387TIP3   OH231355   4.375   6.781  18.927 -0.0925 -0.2670 -0.1134
 2387TIP3    H131356   4.404   6.850  18.867 -0.5368 -0.6703 -0.8037
 2387TIP3    H231357   4.280   6.788  18.928 -0.0365  0.7341  1.7652
 2388TIP3   OH231358   0.965   5.498  16.920 -0.0478  0.1898  0.2922
 2388TIP3    H131359   0.941   5.414  16.959  1.2320 -0.2237  0.2271
 2388TIP3    H231360   0.899   5.514  16.854  0.1091 -1.1398 -0.2108
 2389TIP3   OH231361   2.177   6.010  18.391 -0.1055  0.0736  0.2701
 2389TIP3    H131362   2.246   6.042  18.450  1.0843  0.7266 -1.3925
 2389TIP3    H231363   2.122   6.087  18.376  1.2982  0.7517 -1.7338
 2390TIP3   OH231364   6.504   4.686  17.219 -0.3257  0.0520  0.4839
 2390TIP3    H131365   6.569   4.719  17.282  0.5788 -1.9990  0.6902
 2390TIP3    H231366   6.553   4.679  17.137 -0.5123 -0.6592  0.4293
 2391TIP3   OH231367   2.176   0.704  17.004  0.3161 -0.0457 -0.2559
 2391TIP3    H131368   2.116   0.775  16.980  2.4831  1.7018 -0.8154
 2391TIP3    H231369   2.212   0.673  16.921  0.9601 -0.3527  0.1309
 2392TIP3   OH231370   3.962   5.055  17.674  0.1215  0.3133  0.3227
 2392TIP3    H131371   3.928   5.100  17.597 -2.8930  2.0157  2.4378
 2392TIP3    H231372   3.985   4.967  17.643 -1.8259  0.6431 -2.3388
 2393TIP3   OH231373   6.202   7.620  19.328  0.0323 -0.0866 -0.3547
 2393TIP3    H131374   6.225   7.531  19.300  0.6482  0.1808 -0.7292
 2393TIP3    H231375   6.284   7.656  19.362 -0.7513 -0.4976  2.1454
 2394TIP3   OH231376   2.535   6.004  18.388 -0.4977 -0.1945  0.2725
 2394TIP3    H131377   2.516   5.930  18.445  1.3078 -1.1904 -0.2983
 2394TIP3    H231378   2.598   6.057  18.437  0.7563 -0.8461 -0.5509
 2395TIP3   OH231379   1.743   4.459  16.950 -0.6378  0.4179  0.2966
 2395TIP3    H131380   1.649   4.441  16.949 -0.8420  1.2202  2.0071
 2395TIP3    H231381   1.783   4.373  16.936 -1.5863  0.1395 -0.9804
 2396TIP3   OH231382   1.193   6.562  18.787  0.1119  0.4853  0.0047
 2396TIP3    H131383   1.189   6.468  18.768 -1.3386  0.5854 -0.3000
 2396TIP3    H231384   1.286   6.584  18.780  0.4346 -0.8686 -0.2082
 2397TIP3   OH231385   5.877   1.719  18.976  0.2022  0.2409 -0.4761
 2397TIP3    H131386   5.793   1.682  18.947  0.2746 -0.8977  0.6523
 2397TIP3    H231387   5.872   1.811  18.952 -2.1017  0.5926  1.0110
 2398TIP3   OH231388   6.389   6.344  17.680  0.4111 -0.2830  0.3429
 2398TIP3    H131389   6.417   6.285  17.610  0.7599  0.6218 -0.2976
 2398TIP3    H231390   6.420   6.430  17.653  0.6521  0.0701  1.6785
 2399TIP3   OH231391   2.771   3.499  18.651 -0.3236 -0.3881  0.3735
 2399TIP3    H131392   2.741   3.468  18.566 -0.2224 -1.1764  0.6136
 2399TIP3    H231393   2.697   3.486  18.710 -0.1113 -0.6768  0.5865
 2400TIP3   OH231394   6.359   2.270  18.686 -0.2218  0.0931 -0.3961
 2400TIP3    H131395   6.309   2.199  18.644 -0.1087  0.9926 -2.1690
 2400TIP3    H231396   6.297   2.309  18.747 -1.3230  0.3593 -1.6203
 2401TIP3   OH231397   1.586   2.974  19.194 -0.4494 -0.2643 -0.3496
 2401TIP3    H131398   1.620   2.902  19.141  2.1928 -0.0166  0.8489
 2401TIP3    H231399   1.621   2.958  19.282 -1.5494  1.3485  0.4387
 2402TIP3   OH231400   0.669   5.424  18.606  0.1471 -0.1256  0.1222
 2402TIP3    H131401   0.604   5.469  18.660  0.7264 -0.8252  1.4317
 2402TIP3    H231402   0.639   5.333  18.604  0.8356 -0.3596  0.3515
 2403TIP3   OH231403   2.863   2.276  18.067 -0.1198  0.4384  0.0084
 2403TIP3    H131404   2.933   2.274  18.133 -1.0212 -1.3201  1.0024
 2403TIP3    H231405   2.788   2.315  18.113 -0.8201 -0.9980  0.1553
 2404TIP3   OH231406   5.748   2.654  17.337 -0.0134 -0.7230  0.2039
 2404TIP3    H131407   5.681   2.638  17.404 -1.1591 -1.0459 -0.9969
 2404TIP3    H231408   5.720   2.735  17.294 -0.8124 -1.9556 -1.6939
 2405TIP3   OH231409   4.415   5.452  19.303  0.7242  0.3141 -0.6808
 2405TIP3    H131410   4.361   5.412  19.235 -0.9581  0.0312  0.7219
 2405TIP3    H231411   4.368   5.531  19.328  0.2949 -0.5055  1.3419
 2406TIP3   OH231412   6.602   2.663  17.697 -0.5303 -0.0366 -0.5453
 2406TIP3    H131413   6.691   2.688  17.723 -0.9643 -0.8034  1.9263
 2406TIP3    H231414   6.552   2.744  17.702 -0.7641 -0.2456  2.0704
 2407TIP3   OH231415   4.433   5.797  19.161 -0.3020  0.0679 -0.1013
 2407TIP3    H131416   4.375   5.873  19.153 -1.1015 -0.5106  0.0466
 2407TIP3    H231417   4.469   5.785  19.073  0.4100  1.0553  0.0421
 2408TIP3   OH231418   3.330   1.927  17.884 -0.1675  0.0331  0.4475
 2408TIP3    H131419   3.399   1.864  17.903  1.8485  2.4063  1.5677
 2408TIP3    H231420   3.301   1.959  17.970 -2.0175 -0.1989 -0.0369
 2409TIP3   OH231421   5.240   1.619  18.641  0.3039 -0.5640  0.1610
 2409TIP3    H131422   5.188   1.694  18.671  0.5292 -0.3240 -0.0452
 2409TIP3    H231423   5.329   1.653  18.634  0.0618 -0.1917 -2.1512
 2410TIP3   OH231424   1.237   7.557  19.000  0.1241  0.0229  0.1112
 2410TIP3    H131425   1.259   7.619  18.930  0.7348 -1.4293 -1.0112
 2410TIP3    H231426   1.141   7.556  19.002 -0.0021 -1.9322 -2.6071
 2411TIP3   OH231427   6.237   3.836  17.788 -0.2428  0.1013 -0.1866
 2411TIP3    H131428   6.254   3.758  17.840  0.4263  0.5393  0.2733
 2411TIP3    H231429   6.194   3.804  17.709 -3.4359 -0.3733  1.5876
 2412TIP3   OH231430   5.565   6.763  19.445  0.2416  0.1083  0.7103
 2412TIP3    H131431   5.510   6.724  19.513  0.5433 -0.1938  0.7843
 2412TIP3    H231432   5.630   6.814  19.493 -0.6995  1.4653  0.5904
 2413TIP3   OH231433   3.662   7.112  19.323 -0.3762  0.0917 -0.1553
 2413TIP3    H131434   3.725   7.095  19.393 -0.1074  1.3701 -0.0624
 2413TIP3    H231435   3.591   7.160  19.366  0.0931  1.4660 -0.8573
 2414TIP3   OH231436   0.131   5.841  19.458 -0.0433  0.2634  0.7260
 2414TIP3    H131437   0.197   5.902  19.491  1.3051 -0.4847 -0.5095
 2414TIP3    H231438   0.172   5.755  19.463 -1.4930 -0.4332  1.3334
 2415TIP3   OH231439   0.747   2.412  18.435 -0.4141  0.4743 -0.0814
 2415TIP3    H131440   0.788   2.419  18.521 -0.8300  3.2450 -0.0218
 2415TIP3    H231441   0.819   2.426  18.373 -0.2501 -0.7772 -0.2034
 2416TIP3   OH231442   5.357   2.624  18.014  0.1336 -0.2872  0.5172
 2416TIP3    H131443   5.351   2.708  17.968 -0.4757  0.9309  2.6700
 2416TIP3    H231444   5.435   2.583  17.979  0.6992  1.3764 -0.3067
 2417TIP3   OH231445   2.773   6.756  17.643  0.1296  0.1681  0.1321
 2417TIP3    H131446   2.700   6.700  17.618  0.1351  0.1819  0.0851
 2417TIP3    H231447   2.801   6.798  17.561  0.3670 -0.0480  0.0999
 2418TIP3   OH231448   4.940   7.331  18.565 -0.4834 -0.5900 -0.4594
 2418TIP3    H131449   4.845   7.337  18.567 -0.5024 -0.8839  1.4347
 2418TIP3    H231450   4.960   7.241  18.591  0.3131 -1.0298 -2.4189
 2419TIP3   OH231451   7.010   7.362  17.338 -0.3344  0.5977 -0.7535
 2419TIP3    H131452   6.991   7.268  17.335 -1.6965  0.8829 -2.0400
 2419TIP3    H231453   6.976   7.396  17.256 -1.4182  2.5121  0.4174
 2420TIP3   OH231454   3.113   6.857  17.344  1.2506 -0.2800 -0.5266
 2420TIP3    H131455   3.068   6.804  17.278  0.1876  0.2579 -0.2530
 2420TIP3    H231456   3.097   6.947  17.317  2.0540 -0.0785 -0.3409
 2421TIP3   OH231457   0.204   4.057  17.883 -0.5123 -0.6014  0.0335
 2421TIP3    H131458   0.142   4.127  17.900  1.0969  1.2749 -1.3252
 2421TIP3    H231459   0.150   3.984  17.852 -2.0306  1.2440 -2.0168
 2422TIP3   OH231460   2.510   1.772  17.381 -0.3265  0.0416  0.5834
 2422TIP3    H131461   2.510   1.806  17.471 -1.2447  0.1425  0.5536
 2422TIP3    H231462   2.541   1.682  17.389 -1.3823 -0.2881  1.1484
 2423TIP3   OH231463   2.792   2.014  19.063  0.3755 -0.4920  0.2813
 2423TIP3    H131464   2.857   1.949  19.089  0.8801 -0.0582  0.1164
 2423TIP3    H231465   2.735   1.967  19.002 -0.0454 -1.1425  1.1549
 2424TIP3   OH231466   7.528   0.435  19.261  0.2397  0.2343 -0.1111
 2424TIP3    H131467   7.455   0.409  19.317 -1.9220  2.2041 -1.8372
 2424TIP3    H231468   7.603   0.386  19.296 -1.4354 -0.3880  2.9841
 2425TIP3   OH231469   5.802   3.597  19.659 -0.3307  0.1943 -0.1569
 2425TIP3    H131470   5.786   3.522  19.602 -0.1653 -0.5996  0.8104
 2425TIP3    H231471   5.792   3.562  19.748  1.2132  0.9606  0.3513
 2426TIP3   OH231472   6.016   0.450  18.682  0.5302 -0.1264 -0.0935
 2426TIP3    H131473   6.044   0.381  18.743  1.1013  1.0223  0.9849
 2426TIP3    H231474   5.926   0.470  18.709  0.9229  0.6711  0.6817
 2427TIP3   OH231475   1.735   6.570  17.956  0.0651  0.2992 -0.2182
 2427TIP3    H131476   1.670   6.640  17.958  0.4935  0.7040 -0.2070
 2427TIP3    H231477   1.720   6.525  17.874 -0.0056  0.6088 -0.3766
 2428TIP3   OH231478   6.710   1.080  18.789  0.1708  0.6353  0.2293
 2428TIP3    H131479   6.621   1.088  18.755 -0.4451 -1.6753  1.1450
 2428TIP3    H231480   6.708   1.004  18.847  2.1918  1.8631  2.1030
 2429TIP3   OH231481   2.471   6.551  19.198  0.1089 -0.1737  0.7096
 2429TIP3    H131482   2.434   6.639  19.195  0.5655  0.0407  1.2715
 2429TIP3    H231483   2.400   6.494  19.168  0.1646  0.4846 -0.7126
 2430TIP3   OH231484   6.634   6.062  18.365  0.0986 -0.0259  0.0176
 2430TIP3    H131485   6.550   6.078  18.323 -0.6080 -0.9303  1.0253
 2430TIP3    H231486   6.625   5.974  18.403  1.1703  0.2216  0.8988
 2431TIP3   OH231487   1.728   0.700  18.593 -0.0421  0.1446 -0.1671
 2431TIP3    H131488   1.646   0.650  18.596  0.1473 -0.1324  0.8284
 2431TIP3    H231489   1.726   0.745  18.509 -1.7108  0.9503  0.2669
 2432TIP3   OH231490   6.054   6.137  17.773 -0.1181  0.5297 -0.1977
 2432TIP3    H131491   5.971   6.103  17.738  0.3266  0.7032 -1.4769
 2432TIP3    H231492   6.122   6.088  17.727  0.5048  0.0900  1.1468
 2433TIP3   OH231493   2.984   6.739  17.101  0.0060 -0.2524  0.3014
 2433TIP3    H131494   2.965   6.824  17.062  1.1478  0.6766  1.6540
 2433TIP3    H231495   2.904   6.688  17.090 -0.6227  0.9283 -0.7238
 2434TIP3   OH231496   2.943   5.324  18.713 -0.2837 -0.1800 -0.1894
 2434TIP3    H131497   2.965   5.240  18.756  1.3162  0.3806  0.1838
 2434TIP3    H231498   3.004   5.387  18.753 -0.8545  0.9849 -1.1089
 2435TIP3   OH231499   5.529   4.447  18.184 -0.0154 -0.2808 -0.4475
 2435TIP3    H131500   5.482   4.364  18.169 -1.7152  0.8866 -2.2488
 2435TIP3    H231501   5.579   4.461  18.103 -0.3621  0.7819 -0.5005
 2436TIP3   OH231502   1.965   0.624  19.592 -0.0162  0.1163 -0.3908
 2436TIP3    H131503   1.993   0.691  19.530  0.0716  0.4684  0.0251
 2436TIP3    H231504   2.016   0.641  19.670 -0.0037 -0.4330 -0.2779
 2437TIP3   OH231505   0.820   6.512  17.570  0.8497  0.5287  0.1958
 2437TIP3    H131506   0.746   6.506  17.510  1.5071  2.8469 -0.9952
 2437TIP3    H231507   0.838   6.422  17.596 -1.5101 -0.2151 -0.5347
 2438TIP3   OH231508   1.367   2.244  18.182  0.5349 -0.2772 -0.2420
 2438TIP3    H131509   1.410   2.177  18.235  0.4166  0.6813  1.1443
 2438TIP3    H231510   1.295   2.199  18.139  1.9145 -1.5616 -1.3350
 2439TIP3   OH231511   0.855   6.243  17.636 -0.0234 -0.1546  0.3399
 2439TIP3    H131512   0.777   6.245  17.691  1.0831 -2.8099  2.2570
 2439TIP3    H231513   0.872   6.150  17.623  1.9510  0.3698 -1.3488
 2440TIP3   OH231514   3.452   6.067  18.603 -0.0875 -0.3285  0.5129
 2440TIP3    H131515   3.413   6.008  18.538  0.9092 -0.0876 -0.3343
 2440TIP3    H231516   3.395   6.143  18.604  0.7476  0.3904 -1.3432
 2441TIP3   OH231517   3.227   0.707  17.289 -0.0461  0.2938  0.1273
 2441TIP3    H131518   3.133   0.689  17.289 -0.1228  0.6658 -0.1372
 2441TIP3    H231519   3.257   0.679  17.202 -0.1676  1.4030 -0.2903
 2442TIP3   OH231520   2.850   7.335  19.473 -0.0275  0.9797  0.3438
 2442TIP3    H131521   2.808   7.276  19.410 -0.4430 -0.5263  1.9555
 2442TIP3    H231522   2.938   7.299  19.485 -0.0099  1.1533  0.7477
 2443TIP3   OH231523   1.444   2.256  19.242  0.0504 -0.5536 -0.6388
 2443TIP3    H131524   1.405   2.342  19.229 -0.7988 -0.9758 -0.9529
 2443TIP3    H231525   1.371   2.195  19.232  0.3809 -1.2333  0.8325
 2444TIP3   OH231526   4.096   2.973  18.449  0.1453  0.3619 -0.0954
 2444TIP3    H131527   4.037   3.047  18.440 -0.8299  0.0360  2.5120
 2444TIP3    H231528   4.040   2.896  18.443  0.9954 -0.1765 -1.7717
 2445TIP3   OH231529   5.059   3.306  19.090 -0.4663  0.1584 -0.1760
 2445TIP3    H131530   4.994   3.296  19.020 -0.4424 -1.3885  0.0025
 2445TIP3    H231531   5.008   3.298  19.171 -0.0564 -1.2460 -0.0346
 2446TIP3   OH231532   0.623   2.453  19.677  0.2293  0.2202 -0.0610
 2446TIP3    H131533   0.700   2.488  19.722  0.1782 -1.5225  1.4502
 2446TIP3    H231534   0.553   2.457  19.742 -0.8322  1.1055 -1.1906
 2447TIP3   OH231535   1.987   3.009  18.644 -0.2625  0.2088 -0.0291
 2447TIP3    H131536   2.007   2.955  18.568  0.9827  0.4838  0.0855
 2447TIP3    H231537   1.936   2.952  18.701 -1.2947  0.0289 -1.0872
 2448TIP3   OH231538   0.125   6.537  19.398 -0.4657  0.2562  0.6486
 2448TIP3    H131539   0.150   6.629  19.407  1.6646 -0.2144  0.0102
 2448TIP3    H231540   0.136   6.518  19.305  0.9240 -1.0915  1.0529
 2449TIP3   OH231541   7.384   7.447  18.836 -0.3777  0.0425 -0.6257
 2449TIP3    H131542   7.404   7.469  18.927  0.1536  0.0058 -0.7277
 2449TIP3    H231543   7.439   7.507  18.785 -0.0889 -0.4602 -0.9134
 2450TIP3   OH231544   4.716   0.535  19.267 -0.0331  0.3797 -0.6573
 2450TIP3    H131545   4.793   0.516  19.212  0.8930  2.3264 -0.1438
 2450TIP3    H231546   4.726   0.627  19.290 -1.6299  0.2200  0.8798
 2451TIP3   OH231547   6.185   5.390  17.752 -0.0268 -0.5124 -0.4105
 2451TIP3    H131548   6.157   5.482  17.759 -0.2545 -0.7148  2.8915
 2451TIP3    H231549   6.122   5.350  17.693  0.8315  1.6603 -2.9727
 2452TIP3   OH231550   0.542   6.816  16.884  0.6526 -0.1110  0.2564
 2452TIP3    H131551   0.595   6.854  16.815  1.5032  0.4052  1.1794
 2452TIP3    H231552   0.498   6.891  16.926  0.7774 -0.3314  0.7950
 2453TIP3   OH231553   0.804   6.605  17.250  0.2625  0.3769  0.5444
 2453TIP3    H131554   0.888   6.566  17.273  0.9737  1.9918  0.7431
 2453TIP3    H231555   0.795   6.588  17.156 -0.0062 -1.2624  0.8366
 2454TIP3   OH231556   0.898   1.996  17.352  0.4604  0.4516  0.3369
 2454TIP3    H131557   0.952   1.920  17.332 -0.1063 -0.1834  1.1400
 2454TIP3    H231558   0.960   2.064  17.378  1.0451  0.5978 -1.3119
 2455TIP3   OH231559   1.192   6.497  17.540  0.3118  0.3298  0.2967
 2455TIP3    H131560   1.138   6.419  17.521  0.8020 -0.1634  0.8769
 2455TIP3    H231561   1.234   6.518  17.457 -1.2362  1.1083 -0.3483
 2456TIP3   OH231562   6.654   3.388  17.409 -0.0245 -0.2947  0.2014
 2456TIP3    H131563   6.725   3.325  17.414  0.3952  0.2139  0.8970
 2456TIP3    H231564   6.688   3.458  17.354  0.1629  0.1138  0.8193
 2457TIP3   OH231565   6.248   0.224  18.048  0.1934  0.1759 -0.3740
 2457TIP3    H131566   6.343   0.211  18.054  0.0176 -0.9225  0.3189
 2457TIP3    H231567   6.229   0.291  18.114  0.2693 -0.9593  0.8552
 2458TIP3   OH231568   5.962   0.178  18.562  0.6142  0.0760 -0.2828
 2458TIP3    H131569   5.973   0.181  18.657 -0.6135  1.1490 -0.1410
 2458TIP3    H231570   6.036   0.227  18.528  0.9278 -0.1012  0.1304
 2459TIP3   OH231571   1.522   6.754  17.853 -0.0521  0.2562  0.1362
 2459TIP3    H131572   1.474   6.700  17.791  1.5526  0.3832 -1.2823
 2459TIP3    H231573   1.454   6.807  17.896 -1.2614 -0.1469 -1.2007
 2460TIP3   OH231574   1.618   3.410  18.421 -0.0964  0.6440  0.1432
 2460TIP3    H131575   1.667   3.377  18.346 -2.4731 -0.6765 -0.9538
 2460TIP3    H231576   1.591   3.331  18.469  1.5009  1.4548  2.5625
 2461TIP3   OH231577   4.461   1.743  17.237  0.2579  0.2114  0.1796
 2461TIP3    H131578   4.498   1.800  17.169 -1.5142  1.2760  0.0489
 2461TIP3    H231579   4.388   1.793  17.274 -2.0242 -2.2779 -0.5803
 2462TIP3   OH231580   2.743   0.931  16.944 -0.0953 -0.0791  0.4937
 2462TIP3    H131581   2.714   0.972  17.025  1.4528  1.3261  0.3850
 2462TIP3    H231582   2.797   0.998  16.901  0.1766 -1.2478 -1.0742
 2463TIP3   OH231583   3.491   2.122  18.841  0.2133  0.2752  0.3267
 2463TIP3    H131584   3.439   2.042  18.828  0.6415  0.3040 -2.0771
 2463TIP3    H231585   3.427   2.190  18.860 -0.5721  0.0563 -1.3453
 2464TIP3   OH231586   0.830   6.121  18.961 -0.4354  0.3929  0.9329
 2464TIP3    H131587   0.819   6.118  19.056  0.7439 -0.4141  1.0601
 2464TIP3    H231588   0.742   6.141  18.927 -0.6194  2.0540  2.2428
 2465TIP3   OH231589   3.009   7.082  17.239  0.0390 -0.2207 -0.3935
 2465TIP3    H131590   2.994   7.176  17.237  2.1264  0.1404 -0.5050
 2465TIP3    H231591   2.984   7.051  17.152 -0.3340  0.2739 -0.4627
 2466TIP3   OH231592   3.052   2.062  19.371  0.1918  0.0478  0.0506
 2466TIP3    H131593   2.970   2.023  19.340  0.3270  0.1299 -0.4137
 2466TIP3    H231594   3.106   1.987  19.394 -0.2798  0.0029  1.0721
 2467TIP3   OH231595   4.737   2.909  17.188 -0.6829 -1.0391 -0.1864
 2467TIP3    H131596   4.745   2.959  17.107  1.1241 -0.9412 -0.0002
 2467TIP3    H231597   4.821   2.864  17.196  0.0316  0.5764  2.6559
 2468TIP3   OH231598   5.040   3.407  17.826 -0.6493  0.2428  0.3670
 2468TIP3    H131599   5.090   3.431  17.748 -0.2002 -1.3200  0.1511
 2468TIP3    H231600   4.965   3.466  17.825  0.1228  1.2550 -0.4115
 2469TIP3   OH231601   3.300   3.184  18.322 -0.1671 -0.0720 -0.3607
 2469TIP3    H131602   3.344   3.170  18.405 -0.6857  0.7515  0.0671
 2469TIP3    H231603   3.345   3.127  18.260 -0.0978 -1.0618  0.5853
 2470TIP3   OH231604   5.414   4.720  17.277 -0.3208 -0.6807  0.0998
 2470TIP3    H131605   5.365   4.665  17.215 -0.5302  0.5393 -0.8603
 2470TIP3    H231606   5.415   4.669  17.358 -1.0594 -1.8099 -0.5640
 2471TIP3   OH231607   4.860   2.086  18.116 -0.6115  0.3633 -0.0547
 2471TIP3    H131608   4.897   2.042  18.040  0.0171  0.7709  0.0013
 2471TIP3    H231609   4.817   2.017  18.166  2.3587 -0.7431  1.2760
 2472TIP3   OH231610   5.715   6.102  18.730 -0.3824  0.4015 -0.5606
 2472TIP3    H131611   5.782   6.053  18.778 -0.9427  0.5205  0.3702
 2472TIP3    H231612   5.742   6.193  18.736 -0.3979  0.4057 -0.5538
 2473TIP3   OH231613   3.572   0.629  19.208  0.5312 -0.4577  0.6814
 2473TIP3    H131614   3.642   0.694  19.194 -0.3211  0.8527  2.1208
 2473TIP3    H231615   3.618   0.550  19.235  1.5405 -0.0553  0.2005
 2474TIP3   OH231616   4.082   2.084  18.845 -0.1189  0.2227  0.5167
 2474TIP3    H131617   4.045   2.005  18.884 -0.6884 -0.4810 -1.3432
 2474TIP3    H231618   4.007   2.140  18.826  0.1136  0.3955  0.0953
 2475TIP3   OH231619   2.227   7.314  16.932  0.0396  0.7071  0.2765
 2475TIP3    H131620   2.252   7.292  17.022 -0.2574  1.3212  0.5132
 2475TIP3    H231621   2.205   7.230  16.892  1.5543  0.2510  0.3393
 2476TIP3   OH231622   3.674   7.219  16.725 -0.5178  0.3476 -0.3789
 2476TIP3    H131623   3.637   7.305  16.704 -0.0806  0.7310  0.3833
 2476TIP3    H231624   3.598   7.160  16.723 -1.1494  1.0639  0.8333
 2477TIP3   OH231625   2.421   7.054  17.620 -0.0583  0.1060  0.8855
 2477TIP3    H131626   2.515   7.046  17.603  0.3505  1.7472  2.1474
 2477TIP3    H231627   2.392   6.963  17.630  0.8957 -0.5839 -1.7351
 2478TIP3   OH231628   5.744   0.524  18.710 -0.7971 -0.5524 -0.0231
 2478TIP3    H131629   5.657   0.563  18.718 -0.2221  0.4664  1.8712
 2478TIP3    H231630   5.773   0.511  18.800  1.7113  0.7672 -0.5599
 2479TIP3   OH231631   5.990   6.353  18.434 -0.0169  0.0527 -0.1417
 2479TIP3    H131632   5.954   6.266  18.450 -0.6896  0.0953 -1.3346
 2479TIP3    H231633   6.046   6.342  18.357  0.7232  0.4747  0.3153
 2480TIP3   OH231634   0.808   1.472  17.197  0.4330  0.0058  0.2973
 2480TIP3    H131635   0.822   1.559  17.159  0.1508  0.3037  0.8561
 2480TIP3    H231636   0.793   1.489  17.290 -0.5370 -0.5563  0.2538
 2481TIP3   OH231637   2.435   6.171  19.319  0.3986  0.3084 -0.0933
 2481TIP3    H131638   2.380   6.248  19.306 -0.2549 -0.1801 -0.2655
 2481TIP3    H231639   2.470   6.181  19.407  0.5616  0.9483 -0.2249
 2482TIP3   OH231640   6.841   4.187  19.005 -0.5316 -0.5286 -0.5802
 2482TIP3    H131641   6.749   4.162  19.015 -0.7348  0.3913 -0.0502
 2482TIP3    H231642   6.839   4.278  18.977  0.2172 -0.7536 -1.4223
 2483TIP3   OH231643   1.534   6.727  19.609  0.4209  0.5446 -0.0454
 2483TIP3    H131644   1.604   6.790  19.622  0.1103  0.8715  0.0445
 2483TIP3    H231645   1.454   6.775  19.627  0.1407  0.2992 -0.6075
 2484TIP3   OH231646   0.110   3.236  18.409 -0.1281  0.3956  0.1976
 2484TIP3    H131647   0.187   3.257  18.462 -0.0056 -0.7677  0.5096
 2484TIP3    H231648   0.036   3.240  18.470  0.1685 -2.2888  0.8621
 2485TIP3   OH231649   3.256   4.876  18.744  0.1329  0.2434 -0.8414
 2485TIP3    H131650   3.346   4.899  18.723  0.2007  1.1751  0.3696
 2485TIP3    H231651   3.258   4.781  18.756  1.7824  0.5937  2.7227
 2486TIP3   OH231652   6.052   3.011  18.069 -0.0480 -0.4276 -0.1261
 2486TIP3    H131653   5.981   3.008  18.004 -0.4276  0.6003  0.2239
 2486TIP3    H231654   6.048   3.100  18.104  0.5167 -0.8056  0.9072
 2487TIP3   OH231655   6.015   6.174  19.401  0.3367  0.3850  0.1631
 2487TIP3    H131656   5.994   6.084  19.378 -1.7354  1.1856 -1.4558
 2487TIP3    H231657   6.111   6.177  19.402  0.4863 -1.3895 -1.7325
 2488TIP3   OH231658   5.295   2.950  17.627 -0.1941 -0.0224  0.3819
 2488TIP3    H131659   5.265   2.871  17.582 -0.9789  1.0764 -1.1238
 2488TIP3    H231660   5.218   3.007  17.630  0.8143  1.4590 -0.3866
 2489TIP3   OH231661   0.398   1.843  17.526 -0.1105 -0.5077 -0.4664
 2489TIP3    H131662   0.456   1.771  17.549  0.4696 -0.1405 -0.7570
 2489TIP3    H231663   0.445   1.921  17.553 -0.3246 -0.1880 -1.0058
 2490TIP3   OH231664   4.010   1.235  18.163 -0.0814 -0.3735 -0.0811
 2490TIP3    H131665   4.036   1.151  18.125  0.4058 -0.3219  0.1288
 2490TIP3    H231666   4.053   1.236  18.249  2.9449  1.6084 -1.4315
 2491TIP3   OH231667   3.542   2.914  18.746  0.0907 -0.7329  0.2544
 2491TIP3    H131668   3.524   2.872  18.662  1.3267 -0.5332 -0.1278
 2491TIP3    H231669   3.499   2.858  18.811 -0.2390 -1.3002 -0.4467
 2492TIP3   OH231670   1.260   7.028  19.316  0.7472  0.6236  0.0805
 2492TIP3    H131671   1.230   6.989  19.234  1.0165  1.1372 -0.2666
 2492TIP3    H231672   1.333   6.972  19.343 -0.4555 -0.6123  0.9179
 2493TIP3   OH231673   7.230   1.909  16.864  0.0583  0.3535 -0.0586
 2493TIP3    H131674   7.304   1.869  16.910  0.1182  1.3578  0.7768
 2493TIP3    H231675   7.171   1.836  16.844  0.9588 -0.3702 -0.1470
 2494TIP3   OH231676   1.115   6.977  17.190 -0.0009 -0.1044 -0.1328
 2494TIP3    H131677   1.097   7.000  17.099  2.1731  0.7037 -0.4068
 2494TIP3    H231678   1.182   6.908  17.185 -0.5639 -0.7523  0.8513
 2495TIP3   OH231679   5.694   6.488  19.363  0.6268  0.5889 -0.1047
 2495TIP3    H131680   5.747   6.537  19.299  0.5530 -0.1235 -0.7185
 2495TIP3    H231681   5.629   6.552  19.393  1.2920  1.2234  0.0225
 2496TIP3   OH231682   7.129   3.845  18.020  0.2243  0.3299  0.2477
 2496TIP3    H131683   7.196   3.912  18.014 -1.8409  2.5687  0.7083
 2496TIP3    H231684   7.064   3.881  18.081 -1.7000 -1.4369 -0.6331
 2497TIP3   OH231685   3.745   0.857  18.614  0.9966 -0.3783 -0.2206
 2497TIP3    H131686   3.781   0.818  18.694 -1.2144 -3.1080 -0.3813
 2497TIP3    H231687   3.740   0.784  18.552 -0.8220  0.7821 -1.5482
 2498TIP3   OH231688   5.242   6.448  18.860  0.0319  0.3299 -0.1560
 2498TIP3    H131689   5.331   6.415  18.850  0.4774  1.4948 -0.1077
 2498TIP3    H231690   5.187   6.380  18.820  0.8749 -0.7159  0.4316
 2499TIP3   OH231691   2.520   1.016  19.331 -0.6783 -0.1636 -0.2932
 2499TIP3    H131692   2.613   1.017  19.305  0.2220 -0.8818  2.5661
 2499TIP3    H231693   2.475   0.980  19.255  1.1217  1.7098 -2.3993
 2500TIP3   OH231694   4.654   4.571  17.805  0.0128  0.0467  0.5192
 2500TIP3    H131695   4.662   4.655  17.759  0.4994  1.0639  2.3753
 2500TIP3    H231696   4.720   4.575  17.874  0.9060 -2.4108 -0.0940
 2501TIP3   OH231697   2.720   7.565  19.575 -0.7512 -0.4702 -0.6804
 2501TIP3    H131698   2.732   7.594  19.485  2.8205  1.6736  0.2686
 2501TIP3    H231699   2.776   7.488  19.583 -0.4671 -0.2168 -0.1556
 2502TIP3   OH231700   1.095   4.415  18.375  0.2325  0.1000  0.7582
 2502TIP3    H131701   1.035   4.481  18.339  0.3193  2.3671  4.1893
 2502TIP3    H231702   1.177   4.428  18.328 -0.1323  1.6600  0.4909
 2503TIP3   OH231703   5.456   6.340  18.715  0.3620  0.1355  0.2400
 2503TIP3    H131704   5.416   6.283  18.649 -2.7101  0.9492  1.2540
 2503TIP3    H231705   5.499   6.409  18.663 -0.4974 -0.1950 -0.9631
 2504TIP3   OH231706   0.138   6.538  17.996  0.1192 -0.7549 -0.7004
 2504TIP3    H131707   0.234   6.540  17.999  0.0969  1.2485 -0.1458
 2504TIP3    H231708   0.114   6.466  18.053  1.2693  0.1460  0.9910
 2505TIP3   OH231709   5.881   6.104  18.485  0.6064  0.4784 -0.3323
 2505TIP3    H131710   5.812   6.126  18.548  1.5097  0.5395  0.6721
 2505TIP3    H231711   5.913   6.019  18.514 -0.6053 -0.6903 -2.2039
 2506TIP3   OH231712   2.323   3.585  16.410  0.1286 -0.1316  0.6363
 2506TIP3    H131713   2.385   3.654  16.389 -1.7518  1.0613 -1.4769
 2506TIP3    H231714   2.238   3.629  16.415 -0.7851 -1.8843  2.0797
 2507TIP3   OH231715   2.488   3.050  18.569 -0.0475  0.5407 -0.1727
 2507TIP3    H131716   2.401   3.068  18.534 -0.6851  0.2054  1.1643
 2507TIP3    H231717   2.492   3.098  18.651  0.7628 -0.0119  0.1359
 2508TIP3   OH231718   2.672   4.351  19.475 -0.7636 -0.0012 -0.1756
 2508TIP3    H131719   2.652   4.310  19.391  0.1849  1.4944 -1.1999
 2508TIP3    H231720   2.588   4.383  19.507 -0.8246  2.1958 -2.1827
 2509TIP3   OH231721   5.218   5.985  19.363  0.2685  0.4396 -0.2121
 2509TIP3    H131722   5.267   6.044  19.306 -0.4736  1.3685  0.0770
 2509TIP3    H231723   5.285   5.937  19.412  0.9421 -0.6737 -2.1091
 2510TIP3   OH231724   5.119   5.786  19.563  0.0746 -0.6467  0.2896
 2510TIP3    H131725   5.092   5.707  19.517  0.5501 -0.2647 -0.6715
 2510TIP3    H231726   5.068   5.856  19.522  2.1172  0.0344 -1.2817
 2511TIP3   OH231727   2.217   0.870  18.005 -0.4217  0.5193 -0.0307
 2511TIP3    H131728   2.215   0.800  18.070  1.1678  1.2300  0.8436
 2511TIP3    H231729   2.210   0.951  18.056 -0.7657  1.0390 -0.8857
 2512TIP3   OH231730   6.576   6.567  17.061 -0.1528  0.5944  0.7471
 2512TIP3    H131731   6.576   6.484  17.013  0.7947  0.6939  0.5546
 2512TIP3    H231732   6.569   6.542  17.153 -2.4562  0.4169  0.5775
 2513TIP3   OH231733   5.590   7.671  17.700 -0.2591 -0.1787 -0.3527
 2513TIP3    H131734   5.665   7.693  17.646  0.2528  0.2915  0.5244
 2513TIP3    H231735   5.566   7.582  17.673  0.2327 -0.0999 -1.0639
 2514TIP3   OH231736   7.355   7.130  18.540  0.0833  0.1742  0.2584
 2514TIP3    H131737   7.270   7.102  18.506 -0.4528  1.6060  0.3737
 2514TIP3    H231738   7.355   7.100  18.631  0.2140 -0.8766 -0.0733
 2515TIP3   OH231739   4.688   7.163  18.126  0.1035 -0.5304  0.5403
 2515TIP3    H131740   4.648   7.079  18.151 -0.0710 -0.9588 -1.0313
 2515TIP3    H231741   4.777   7.140  18.100 -0.0742 -0.3084 -0.2874
 2516TIP3   OH231742   3.182   4.698  16.877 -0.4898  0.2714  0.1867
 2516TIP3    H131743   3.098   4.721  16.915 -2.5129 -0.1776 -3.5490
 2516TIP3    H231744   3.188   4.603  16.887  0.5589  0.4871  2.0767
 2517TIP3   OH231745   7.483   4.976  19.479 -0.4247  0.3043 -0.0713
 2517TIP3    H131746   7.573   4.952  19.458 -0.6662  0.5089 -1.4550
 2517TIP3    H231747   7.477   4.968  19.574  0.9141 -0.1685 -0.0107
 2518TIP3   OH231748   2.100   6.013  17.925 -0.3653  0.1295  0.3264
 2518TIP3    H131749   2.174   5.994  17.982 -0.8053 -0.3199  0.7519
 2518TIP3    H231750   2.043   5.936  17.932 -0.2775 -0.0887 -0.9637
 2519TIP3   OH231751   7.401   1.930  19.055  0.0593  0.0412  0.6648
 2519TIP3    H131752   7.475   1.885  19.096  0.3487  0.1760  0.2939
 2519TIP3    H231753   7.330   1.865  19.056  0.4300 -0.3799  0.2684
 2520TIP3   OH231754   0.985   1.766  18.421  0.8909  0.3794 -0.3941
 2520TIP3    H131755   0.952   1.832  18.481  1.8846  1.4754 -1.0286
 2520TIP3    H231756   1.024   1.699  18.477 -0.4367  0.1332  0.2650
 2521TIP3   OH231757   3.627   5.626  18.827 -0.4505  0.3724  0.1179
 2521TIP3    H131758   3.561   5.557  18.821  0.3049 -0.4241  0.6003
 2521TIP3    H231759   3.635   5.642  18.921 -0.6399  1.1534  0.0069
 2522TIP3   OH231760   0.803   1.029  17.352 -0.2934  0.4629  0.2053
 2522TIP3    H131761   0.832   1.060  17.266  0.4940  1.8042  0.9215
 2522TIP3    H231762   0.882   0.998  17.395 -0.4894  0.8361  0.8511
 2523TIP3   OH231763   0.985   4.933  19.251 -0.0208 -0.4294  0.3994
 2523TIP3    H131764   0.910   4.990  19.271 -0.3067  0.4347 -2.6245
 2523TIP3    H231765   1.057   4.971  19.300 -0.3833  2.2101 -0.9199
 2524TIP3   OH231766   4.442   0.301  16.654  0.0379  0.1012  0.1248
 2524TIP3    H131767   4.411   0.240  16.587 -2.0322 -0.6132  1.6094
 2524TIP3    H231768   4.408   0.386  16.627 -1.6267 -0.3432  0.6923
 2525TIP3   OH231769   0.163   0.059  16.519  0.5115 -0.0243 -0.1100
 2525TIP3    H131770   0.251   0.097  16.530  1.8627 -3.1594  1.3932
 2525TIP3    H231771   0.178  -0.019  16.466 -0.3971 -3.0075  3.5494
 2526TIP3   OH231772   7.012   7.405  16.607  0.2927  0.0243 -0.1873
 2526TIP3    H131773   6.919   7.400  16.585  1.0471 -1.0623 -3.7041
 2526TIP3    H231774   7.042   7.486  16.566  0.9038  0.4343  1.0303
 2527TIP3   OH231775   5.751   2.243  18.528 -0.0020  1.2717  0.3253
 2527TIP3    H131776   5.756   2.335  18.504 -1.0374  0.9260 -1.4026
 2527TIP3    H231777   5.840   2.219  18.554  0.2309  2.7921  0.9948
 2528TIP3   OH231778   1.047   1.829  17.171  0.1378  0.6063 -0.4331
 2528TIP3    H131779   0.975   1.812  17.110  0.5358 -0.1854 -0.6847
 2528TIP3    H231780   1.113   1.763  17.150  0.4701  0.6099  0.5611
 2529TIP3   OH231781   3.614   5.999  17.722  0.2269  0.2857 -0.2509
 2529TIP3    H131782   3.548   6.012  17.791  2.7571 -0.1579  2.4233
 2529TIP3    H231783   3.647   6.087  17.704  2.9903  0.1054  2.9053
 2530TIP3   OH231784   7.108   6.920  16.687 -0.1450  0.1991 -0.0048
 2530TIP3    H131785   7.070   6.999  16.649  0.0989  0.8646  1.0989
 2530TIP3    H231786   7.037   6.856  16.685 -0.8943  0.9735  0.6774
 2531TIP3   OH231787   5.219   6.372  16.971 -0.0226 -0.0112 -0.3240
 2531TIP3    H131788   5.289   6.420  16.926 -0.5744  0.0157 -1.1684
 2531TIP3    H231789   5.265   6.318  17.035  0.7236  0.4884 -0.4227
 2532TIP3   OH231790   0.869   7.425  16.805 -0.1923  0.3027 -0.1300
 2532TIP3    H131791   0.876   7.331  16.789 -0.3598  0.4539 -1.1800
 2532TIP3    H231792   0.956   7.452  16.834 -0.1885 -0.1952  0.3408
 2533TIP3   OH231793   3.916   3.161  18.420 -0.5210 -0.0955  0.6656
 2533TIP3    H131794   3.831   3.130  18.391 -1.0674  0.9653  1.0704
 2533TIP3    H231795   3.916   3.255  18.400  0.1146  0.1360  1.6630
 2534TIP3   OH231796   5.445   6.524  18.323 -0.2564 -0.2503  0.3197
 2534TIP3    H131797   5.489   6.480  18.250 -1.2192 -0.3456 -0.2169
 2534TIP3    H231798   5.493   6.495  18.401  0.4193 -0.6066 -0.2174
 2535TIP3   OH231799   2.067   3.763  16.914 -0.0767 -0.1335 -0.1291
 2535TIP3    H131800   2.013   3.709  16.972  0.3077 -0.1889  0.1819
 2535TIP3    H231801   2.115   3.821  16.973  1.1773 -0.9588 -0.3064
 2536TIP3   OH231802   4.102   3.606  18.386  0.2731  0.4478  0.1180
 2536TIP3    H131803   4.028   3.558  18.349  1.6518 -0.5347 -1.5653
 2536TIP3    H231804   4.175   3.585  18.328  1.5120  2.7124  0.7377
 2537TIP3   OH231805   5.373   0.209  16.753  0.8532 -0.4491 -0.0275
 2537TIP3    H131806   5.380   0.116  16.773 -1.0369 -0.4603  0.7799
 2537TIP3    H231807   5.299   0.215  16.693  0.5359  0.6011  0.4443
 2538TIP3   OH231808   3.819   7.514  17.265  0.7717  0.1692 -0.0905
 2538TIP3    H131809   3.888   7.570  17.300 -1.5783  3.2391  0.0349
 2538TIP3    H231810   3.856   7.477  17.185  3.3006 -0.2388  1.1610
 2539TIP3   OH231811   3.536   0.328  17.747 -0.4282 -0.1727  0.1150
 2539TIP3    H131812   3.588   0.364  17.818 -1.2623  0.4596  0.4226
 2539TIP3    H231813   3.497   0.248  17.783 -1.0071  0.2512  0.4461
 2540TIP3   OH231814   0.514   1.528  18.977 -0.0865  0.2366  0.6531
 2540TIP3    H131815   0.426   1.489  18.980  0.0648 -0.1684  0.0287
 2540TIP3    H231816   0.543   1.528  19.068  0.4432 -2.3644  0.5678
 2541TIP3   OH231817   3.111   3.334  18.642 -0.3098 -0.0435  0.2452
 2541TIP3    H131818   3.049   3.381  18.698  0.9010  1.6807  0.2256
 2541TIP3    H231819   3.124   3.392  18.567  0.7519 -0.7039 -0.1002
 2542TIP3   OH231820   4.981   2.501  17.565 -0.1339 -0.3798  0.2905
 2542TIP3    H131821   4.957   2.456  17.647  1.2799  0.3080  1.1128
 2542TIP3    H231822   5.026   2.434  17.514 -1.3257 -0.9122 -0.1058
 2543TIP3   OH231823   7.423   1.005  18.904 -0.5176  0.1280  0.3374
 2543TIP3    H131824   7.462   0.920  18.925  0.7645  0.9118  1.2896
 2543TIP3    H231825   7.346   1.010  18.961 -0.5154 -0.3350  0.3845
 2544TIP3   OH231826   6.117   2.674  18.311  0.1334 -0.3054 -0.6271
 2544TIP3    H131827   6.162   2.758  18.320 -1.2383  0.3221  0.8460
 2544TIP3    H231828   6.025   2.697  18.302 -0.4123 -1.6595  1.0098
 2545TIP3   OH231829   1.166   3.039  18.825  0.4894  0.2293 -0.0497
 2545TIP3    H131830   1.154   3.132  18.844 -1.6926 -0.2480  1.3513
 2545TIP3    H231831   1.155   2.996  18.910 -0.5582 -1.4345 -0.9669
 2546TIP3   OH231832   4.446   6.111  19.541  0.2141  0.8804 -1.1269
 2546TIP3    H131833   4.521   6.149  19.587  0.7925 -0.4146 -0.9402
 2546TIP3    H231834   4.484   6.048  19.480 -0.7293 -0.8612 -0.0273
 2547TIP3   OH231835   5.051   5.334  19.628  0.1306  0.3675 -0.2819
 2547TIP3    H131836   5.115   5.405  19.628  0.4547  0.1005  1.1907
 2547TIP3    H231837   4.968   5.376  19.650  0.1020  0.4636 -0.5722
 2548TIP3   OH231838   4.720   2.835  18.845 -0.0631 -0.2503  0.2496
 2548TIP3    H131839   4.653   2.766  18.846 -1.1464  0.7725  0.3762
 2548TIP3    H231840   4.719   2.867  18.755  1.7494 -1.6017 -0.3028
 2549TIP3   OH231841   6.890   5.747  17.030  0.1452  0.1446 -0.4371
 2549TIP3    H131842   6.922   5.685  16.964 -0.7854  0.1781 -0.9280
 2549TIP3    H231843   6.812   5.785  16.991 -0.8092 -0.3294  0.9664
 2550TIP3   OH231844   2.999   6.604  18.084 -0.4436  0.1073  0.0764
 2550TIP3    H131845   2.922   6.594  18.140  0.5180 -0.0306  1.4227
 2550TIP3    H231846   2.964   6.614  17.996 -2.1288  2.2217  0.9019
 2551TIP3   OH231847   3.427   5.698  19.715  0.7095 -0.2146 -0.0887
 2551TIP3    H131848   3.489   5.762  19.680  0.0373  1.2071  1.2054
 2551TIP3    H231849   3.392   5.739  19.795 -0.2326 -1.9276  0.4339
 2552TIP3   OH231850   6.663   2.323  19.009  0.3573 -0.1440 -0.5206
 2552TIP3    H131851   6.598   2.315  19.079  0.4819  1.9424 -0.0992
 2552TIP3    H231852   6.733   2.263  19.035 -0.2009 -0.4221  0.4184
 2553TIP3   OH231853   3.632   5.342  18.527  0.3235  0.1948  0.3104
 2553TIP3    H131854   3.658   5.250  18.520 -1.5051 -0.2572 -2.0388
 2553TIP3    H231855   3.707   5.391  18.495 -0.0893 -0.8129 -2.4863
 2554TIP3   OH231856   4.923   0.412  17.817 -0.0434 -0.0854 -0.0602
 2554TIP3    H131857   4.941   0.392  17.725 -1.5072  0.9220 -0.6024
 2554TIP3    H231858   5.002   0.459  17.846  1.2305 -2.0085 -0.2078
 2555TIP3   OH231859   0.271   5.927  18.964  0.3396 -0.4785 -0.1974
 2555TIP3    H131860   0.219   6.004  18.987 -0.1499 -0.6202 -0.8115
 2555TIP3    H231861   0.362   5.958  18.966  0.2801 -0.3470  1.3499
 2556TIP3   OH231862   3.733   2.143  19.442  0.2624  0.7913  0.1456
 2556TIP3    H131863   3.791   2.106  19.509  0.2539  3.0013  1.4457
 2556TIP3    H231864   3.758   2.097  19.362  0.9800 -1.2052  1.4210
 2557TIP3   OH231865   0.308   3.320  18.593  0.0323 -0.0883  0.0859
 2557TIP3    H131866   0.336   3.340  18.682 -1.4035  0.5562  0.4090
 2557TIP3    H231867   0.358   3.380  18.538 -0.1456  0.5204  0.5834
 2558TIP3   OH231868   2.684   2.928  18.423 -0.2194  0.1733 -0.2487
 2558TIP3    H131869   2.608   2.970  18.462  0.2176  2.7963 -1.9812
 2558TIP3    H231870   2.652   2.889  18.342  0.0303  0.1187 -0.3233
 2559TIP3   OH231871   2.043   0.329  18.084 -0.8552 -0.2415  0.1078
 2559TIP3    H131872   2.065   0.261  18.147  0.1583 -1.0431 -1.0479
 2559TIP3    H231873   1.950   0.347  18.099 -1.3022 -2.2678  0.1271
 2560TIP3   OH231874   4.560   7.302  19.705  0.3068  0.0492 -0.5086
 2560TIP3    H131875   4.558   7.225  19.761  0.5671  1.1102  1.0266
 2560TIP3    H231876   4.649   7.336  19.715  0.0030  0.9031 -0.6383
 2561TIP3   OH231877   5.067   7.059  19.348 -0.1856  0.2953  0.1792
 2561TIP3    H131878   5.009   7.054  19.272  0.3468 -0.4356 -0.2013
 2561TIP3    H231879   5.130   7.127  19.326 -1.4475  1.7878  1.0101
 2562TIP3   OH231880   0.150   4.435  17.723 -0.2374 -0.0316 -0.2646
 2562TIP3    H131881   0.185   4.450  17.635  1.3876  0.4189  0.4123
 2562TIP3    H231882   0.071   4.489  17.728 -1.1684 -1.1669 -1.8926
 2563TIP3   OH231883   2.953   6.979  18.096  0.6749  0.1283  0.3235
 2563TIP3    H131884   2.961   6.907  18.158 -0.4442 -0.3053 -0.0034
 2563TIP3    H231885   2.905   6.942  18.022 -1.4798  1.5970  0.8734
 2564TIP3   OH231886   3.875   1.847  18.309 -0.2502  0.2141  0.4724
 2564TIP3    H131887   3.823   1.879  18.383  0.4646 -1.7887  1.9350
 2564TIP3    H231888   3.814   1.793  18.259 -0.0275 -0.8543  1.3107
 2565TIP3   OH231889   0.370   5.163  18.730  0.0283 -0.6664 -0.0105
 2565TIP3    H131890   0.284   5.202  18.740 -0.0474 -0.8942  0.2165
 2565TIP3    H231891   0.402   5.197  18.646 -0.4848 -0.9715 -0.3337
 2566TIP3   OH231892   6.201   2.074  18.590  0.2191  0.3197  0.9044
 2566TIP3    H131893   6.168   2.016  18.659 -0.7735 -0.0716  0.1277
 2566TIP3    H231894   6.137   2.065  18.519  1.6895 -0.0178 -0.4412
 2567TIP3   OH231895   5.445   1.720  17.993  0.1496 -0.3861 -0.2594
 2567TIP3    H131896   5.443   1.641  18.048  0.3194  0.6571  1.2980
 2567TIP3    H231897   5.502   1.780  18.040 -0.4392  0.8918 -1.1288
 2568TIP3   OH231898   3.631   3.468  18.702 -0.5043  0.0381  0.1297
 2568TIP3    H131899   3.537   3.454  18.711 -0.7228  1.6921  0.7547
 2568TIP3    H231900   3.670   3.411  18.768 -1.1520  0.2414  0.7009
 2569TIP3   OH231901   0.246   5.427  19.253 -0.0067  0.3413 -0.3521
 2569TIP3    H131902   0.175   5.435  19.189  0.0197  1.0481 -0.3094
 2569TIP3    H231903   0.322   5.463  19.207  0.2069  0.0587 -0.2187
 2570TIP3   OH231904   6.192   2.346  18.877  0.2293 -0.0408  0.5415
 2570TIP3    H131905   6.166   2.428  18.918 -1.1036  0.1606 -0.6584
 2570TIP3    H231906   6.112   2.293  18.874  0.3614 -0.1964 -1.4111
 2571TIP3   OH231907   5.135   6.924  17.597 -0.2224 -0.0499 -0.2787
 2571TIP3    H131908   5.078   6.915  17.673  1.3895 -2.0930  0.7685
 2571TIP3    H231909   5.205   6.984  17.626  0.4806 -0.9550 -0.0618
 2572TIP3   OH231910   2.034   6.445  19.162 -0.0093  0.0268  0.4795
 2572TIP3    H131911   2.041   6.494  19.243  1.4411  1.8234 -0.6667
 2572TIP3    H231912   1.974   6.497  19.108  1.0433  0.2457 -0.5161
 2573TIP3   OH231913   1.104   3.477  16.839  0.0835  0.1252 -0.2429
 2573TIP3    H131914   1.084   3.561  16.880  0.8445 -0.7160  1.9881
 2573TIP3    H231915   1.179   3.496  16.782  1.7400  0.5963  1.9684
 2574TIP3   OH231916   0.883   7.068  19.906  0.0354  0.5070 -0.1772
 2574TIP3    H131917   0.869   6.986  19.955 -0.3087  0.6326 -0.0643
 2574TIP3    H231918   0.795   7.103  19.892  0.1248  0.4183 -0.9913
 2575TIP3   OH231919   2.619   5.132  18.733 -0.8238 -0.0576 -0.1541
 2575TIP3    H131920   2.690   5.070  18.753 -0.7093 -0.8462 -2.6859
 2575TIP3    H231921   2.657   5.218  18.751  0.0012 -0.5694  0.6627
 2576TIP3   OH231922   2.194   2.000  17.677 -0.7806 -0.1998  0.0815
 2576TIP3    H131923   2.182   1.941  17.603 -0.1720 -0.3354  0.0862
 2576TIP3    H231924   2.179   2.088  17.642  1.7611 -0.0306 -0.7780
 2577TIP3   OH231925   0.500   3.290  18.826 -0.2812  0.6486 -0.1475
 2577TIP3    H131926   0.461   3.356  18.883  0.6491  1.5330 -0.5117
 2577TIP3    H231927   0.533   3.223  18.886  0.9515  1.7128  0.3901
 2578TIP3   OH231928   3.191   4.419  16.865 -0.9386 -0.1071  0.1648
 2578TIP3    H131929   3.123   4.376  16.918  0.3688 -1.5196  0.7586
 2578TIP3    H231930   3.226   4.350  16.810  2.1637 -0.2465  2.0880
 2579TIP3   OH231931   6.978   0.459  17.182  0.1785  0.3874 -0.1018
 2579TIP3    H131932   6.947   0.525  17.244  2.6622 -0.6978  2.5108
 2579TIP3    H231933   7.072   0.474  17.176  0.1795 -0.0983 -3.0885
 2580TIP3   OH231934   4.868   6.642  17.826  0.7262 -0.1302 -0.3917
 2580TIP3    H131935   4.802   6.645  17.895  0.3739  0.7302 -0.7565
 2580TIP3    H231936   4.946   6.609  17.869  0.3025 -0.3209  0.2447
 2581TIP3   OH231937   1.854   7.263  17.110 -0.1956 -0.5141  0.6135
 2581TIP3    H131938   1.928   7.201  17.114 -0.7117 -1.1401  0.5964
 2581TIP3    H231939   1.777   7.208  17.101 -0.5895  0.1784 -0.4303
 2582TIP3   OH231940   4.389   0.472  17.184  0.1891 -0.4888  0.3679
 2582TIP3    H131941   4.439   0.525  17.121 -1.6921 -0.0178 -0.8031
 2582TIP3    H231942   4.389   0.384  17.147  0.0644 -0.4652  0.3109
 2583TIP3   OH231943   5.512   0.764  19.322 -0.4951 -0.4408 -0.0872
 2583TIP3    H131944   5.520   0.849  19.279 -1.5532 -0.1919  0.1931
 2583TIP3    H231945   5.493   0.785  19.413 -0.1691 -0.9771  0.1081
 2584TIP3   OH231946   3.519   5.511  18.018 -0.3004  0.2277 -0.1850
 2584TIP3    H131947   3.546   5.479  17.931  0.3186 -0.2423  0.1662
 2584TIP3    H231948   3.599   5.547  18.056 -0.3562 -0.3936  0.5456
 2585TIP3   OH231949   5.526   6.269  17.342 -0.1641  0.5898 -0.4073
 2585TIP3    H131950   5.603   6.227  17.305 -0.0307  0.3371  0.1382
 2585TIP3    H231951   5.558   6.350  17.381 -0.0931  0.2998  0.1617
 2586TIP3   OH231952   0.002   0.370  18.862  0.6303 -0.8656  0.8554
 2586TIP3    H131953  -0.090   0.344  18.862  0.5947 -0.7931 -0.3123
 2586TIP3    H231954   0.020   0.396  18.771  1.6101 -0.1907  1.2222
 2587TIP3   OH231955   3.102   0.444  18.350  0.0565  0.2596 -0.2706
 2587TIP3    H131956   3.178   0.386  18.342 -0.8449 -0.9491 -0.3316
 2587TIP3    H231957   3.139   0.533  18.345  1.3669 -0.3029 -1.0536
 2588TIP3   OH231958   2.155   3.063  17.859  0.4078  0.7242 -0.0258
 2588TIP3    H131959   2.087   3.036  17.921 -0.3508 -0.0322 -1.1443
 2588TIP3    H231960   2.152   3.159  17.862  0.5852  0.7071  1.2918
 2589TIP3   OH231961   0.265   1.172  19.375 -0.6612  0.0166 -0.0953
 2589TIP3    H131962   0.357   1.166  19.349 -1.0315  1.1128 -1.7732
 2589TIP3    H231963   0.268   1.187  19.469  0.8999  0.8190 -0.2439
 2590TIP3   OH231964   1.036   6.602  18.518  0.0991 -0.2793 -1.0161
 2590TIP3    H131965   1.097   6.532  18.495  1.0628  0.8096 -1.9377
 2590TIP3    H231966   1.089   6.682  18.516 -0.6289  0.3554  1.4644
 2591TIP3   OH231967   3.372   2.126  18.525  0.0382 -0.2969  0.0668
 2591TIP3    H131968   3.412   2.074  18.455  1.5712  1.2426 -0.2668
 2591TIP3    H231969   3.442   2.138  18.589 -0.3998  0.9614  0.3370
 2592TIP3   OH231970   3.322   7.019  18.301  0.4015 -0.3864  0.0616
 2592TIP3    H131971   3.387   7.064  18.247  0.5442  0.2226  0.7192
 2592TIP3    H231972   3.373   6.957  18.353  0.0754 -2.2396 -1.7032
 2593TIP3   OH231973   1.474   6.282  18.095  0.1995 -0.5941  0.2313
 2593TIP3    H131974   1.387   6.316  18.074 -0.7610 -2.1736  1.4055
 2593TIP3    H231975   1.457   6.200  18.142  2.3355 -1.0659  0.2836
 2594TIP3   OH231976   6.756   6.098  17.113  0.0195  0.6589  1.0464
 2594TIP3    H131977   6.827   6.043  17.145 -0.2600  1.0296  2.3502
 2594TIP3    H231978   6.743   6.163  17.182 -1.4816  0.6855  0.7710
 2595TIP3   OH231979   3.029   3.628  17.015 -0.2710  0.3339  0.5941
 2595TIP3    H131980   2.976   3.572  17.071  0.1248  2.7207  3.6546
 2595TIP3    H231981   2.976   3.708  17.006 -0.5114 -0.0560 -2.9961
 2596TIP3   OH231982   6.265   2.814  17.987 -0.2682 -0.3182  0.5111
 2596TIP3    H131983   6.348   2.837  18.028  0.3146 -0.0739 -0.7507
 2596TIP3    H231984   6.216   2.895  17.984 -0.5712 -0.4662  1.2749
 2597TIP3   OH231985   6.138   4.553  18.363 -0.0563 -0.4515  0.4925
 2597TIP3    H131986   6.149   4.565  18.269  0.4636 -1.3478  0.4296
 2597TIP3    H231987   6.056   4.504  18.372 -0.1572 -0.2785  0.5113
 2598TIP3   OH231988   2.606   2.793  16.264  0.0165  0.7385  0.3913
 2598TIP3    H131989   2.596   2.884  16.293 -0.0568  0.6212  0.7427
 2598TIP3    H231990   2.622   2.799  16.170 -0.2045  1.1031  0.3758
 2599TIP3   OH231991   5.097   4.152  19.379  0.3268 -0.4786 -0.2601
 2599TIP3    H131992   5.151   4.076  19.360 -1.4268 -3.1587  3.9947
 2599TIP3    H231993   5.011   4.130  19.342 -0.1240 -0.5252  0.7698
 2600TIP3   OH231994   3.276   3.909  17.185  0.4515  0.3833 -0.3092
 2600TIP3    H131995   3.248   3.967  17.114 -0.6564 -2.6003 -2.4710
 2600TIP3    H231996   3.195   3.874  17.222  1.0486 -1.8467 -0.9515
 2601TIP3   OH231997   5.802   4.766  17.811 -0.6414 -0.4893 -0.1132
 2601TIP3    H131998   5.838   4.761  17.900  0.4764  3.3166 -0.1605
 2601TIP3    H231999   5.708   4.753  17.822 -0.4654 -0.5642  1.5479
 2602TIP3   OH232000   5.515   2.988  17.236 -0.1557 -0.5156 -0.0567
 2602TIP3    H132001   5.605   2.996  17.205  0.2159  2.0918  1.4130
 2602TIP3    H232002   5.477   2.919  17.181  2.3890 -0.9443 -1.4464
 2603TIP3   OH232003   2.890   5.860  19.448  0.5708  0.1148 -0.0224
 2603TIP3    H132004   2.964   5.799  19.454 -1.1731 -2.0890  0.7839
 2603TIP3    H232005   2.847   5.853  19.534 -2.8408 -1.9178 -1.6707
 2604TIP3   OH232006   4.090   4.129  18.618  0.5567 -0.3311  0.4556
 2604TIP3    H132007   4.128   4.078  18.689  2.6186 -1.4826 -1.3700
 2604TIP3    H232008   4.012   4.080  18.593 -1.5280  1.2484  3.2233
 2605TIP3   OH232009   1.769   0.823  19.290  0.5240 -0.3337  0.2526
 2605TIP3    H132010   1.861   0.803  19.309  0.5797 -0.7290 -0.3951
 2605TIP3    H232011   1.744   0.758  19.225  0.2712  0.8119 -0.8202
 2606TIP3   OH232012   5.845   7.143  16.879 -0.4139  0.1652 -0.3904
 2606TIP3    H132013   5.873   7.235  16.875  1.0409 -0.2869 -1.3571
 2606TIP3    H232014   5.926   7.094  16.888 -1.2990 -0.9323  3.0181
 2607TIP3   OH232015   4.566   7.391  18.818  0.7981 -0.0295  0.4793
 2607TIP3    H132016   4.610   7.464  18.775  2.3112 -0.7137  0.7999
 2607TIP3    H232017   4.525   7.342  18.746 -0.2590  1.1172  0.2661
 2608TIP3   OH232018   4.272   3.629  17.926 -0.2321  0.1210 -0.0845
 2608TIP3    H132019   4.261   3.709  17.875 -0.0811  0.3598  0.2549
 2608TIP3    H232020   4.316   3.568  17.866 -1.0860  0.0140 -0.6092
 2609TIP3   OH232021   1.859   0.388  19.763  0.7093 -0.0235 -0.8524
 2609TIP3    H132022   1.911   0.310  19.781  2.0427  1.3401  1.7014
 2609TIP3    H232023   1.916   0.443  19.709  0.4787 -0.0224 -1.0997
 2610TIP3   OH232024   6.997   3.137  18.347  0.0165  0.5757 -0.3699
 2610TIP3    H132025   6.952   3.055  18.330 -0.1430  0.6213 -0.1804
 2610TIP3    H232026   7.083   3.127  18.308  0.1513  0.1575  0.0212
 2611TIP3   OH232027   3.531   6.349  19.527 -0.2704  0.7111  0.1447
 2611TIP3    H132028   3.605   6.396  19.489 -0.0434 -0.4667 -0.9498
 2611TIP3    H232029   3.467   6.343  19.456 -0.7176  0.2636  0.5715
 2612TIP3   OH232030   2.450   3.232  18.779  0.3780 -0.3486 -0.1187
 2612TIP3    H132031   2.389   3.275  18.718  1.1567  0.4636 -0.3362
 2612TIP3    H232032   2.521   3.294  18.790  1.1237 -1.2404  0.2318
 2613TIP3   OH232033   6.798   3.601  18.601  0.3620 -0.2469  0.3577
 2613TIP3    H132034   6.750   3.680  18.627  0.8453 -0.0616  0.7079
 2613TIP3    H232035   6.882   3.608  18.647  1.6133  0.5368 -1.8678
 2614TIP3   OH232036   7.066   4.786  18.716 -0.7730 -0.1855  0.0377
 2614TIP3    H132037   7.090   4.837  18.639 -0.1291  1.1726  1.1009
 2614TIP3    H232038   7.148   4.748  18.746 -1.0385 -0.7963  0.0092
 2615TIP3   OH232039   2.018   7.050  19.629  0.0633  0.2381  0.1845
 2615TIP3    H132040   2.111   7.057  19.651  0.7207  2.7592 -2.6854
 2615TIP3    H232041   1.977   7.124  19.675 -0.1827  0.2386 -0.0317
 2616TIP3   OH232042   5.692   6.868  17.791  0.1741  0.8890  0.5379
 2616TIP3    H132043   5.726   6.912  17.713 -0.4268  2.0809  0.9117
 2616TIP3    H232044   5.737   6.910  17.864  1.2681 -0.7195  0.8322
 2617TIP3   OH232045   4.011   4.841  18.095  0.0293 -0.4906  0.7158
 2617TIP3    H132046   4.037   4.886  18.015 -1.6877 -0.0098  0.3915
 2617TIP3    H232047   4.068   4.879  18.163  0.1562  0.5313  0.0671
 2618TIP3   OH232048   3.762   0.802  19.138  0.0237  0.0152 -0.0866
 2618TIP3    H132049   3.718   0.878  19.101  1.0416  0.4759 -0.3713
 2618TIP3    H232050   3.855   0.825  19.137  0.3550 -1.2588 -0.2550
 2619TIP3   OH232051   6.957   1.554  17.990  0.1169  0.1876 -0.8833
 2619TIP3    H132052   7.030   1.603  18.027  0.8977 -0.6655 -1.2463
 2619TIP3    H232053   6.962   1.571  17.896  0.2209 -0.3595 -0.9785
 2620TIP3   OH232054   4.293   7.195  17.629  0.0689 -0.5549 -0.2469
 2620TIP3    H132055   4.367   7.197  17.690 -1.2834 -2.6725  1.6449
 2620TIP3    H232056   4.231   7.258  17.664 -0.1718 -0.8127 -0.2090
 2621TIP3   OH232057   1.846   7.544  18.123  0.3992 -0.0735  0.8270
 2621TIP3    H132058   1.795   7.466  18.101  0.8487 -0.2014  0.2039
 2621TIP3    H232059   1.893   7.521  18.203  0.3947 -0.3834  0.7413
 2622TIP3   OH232060   7.114   0.180  18.359 -0.2911 -0.5241 -0.2837
 2622TIP3    H132061   7.132   0.239  18.432  0.4097  0.8429 -1.4875
 2622TIP3    H232062   7.044   0.123  18.390  1.6791 -1.7464  2.3404
 2623TIP3   OH232063   0.223   0.044  17.938  0.1705 -0.0781  0.4193
 2623TIP3    H132064   0.214  -0.003  18.021  0.6121  0.3671  0.7231
 2623TIP3    H232065   0.316   0.066  17.932  0.0677  0.2734  0.0151
 2624TIP3   OH232066   6.003   0.990  17.920 -0.1090 -0.3451  0.2346
 2624TIP3    H132067   6.017   0.921  17.856  0.8786  0.2534 -0.2150
 2624TIP3    H232068   5.923   1.033  17.891  1.4266  1.2818 -1.9224
 2625TIP3   OH232069   4.819   4.016  18.305 -0.2639  0.4229 -0.0377
 2625TIP3    H132070   4.834   3.994  18.397  0.9471  1.3783  0.0202
 2625TIP3    H232071   4.726   3.996  18.290 -0.0424 -1.4804  0.8731
 2626TIP3   OH232072   6.385   3.564  18.859  0.0703 -0.3027 -0.2224
 2626TIP3    H132073   6.475   3.533  18.846  0.2696 -0.4577  1.2885
 2626TIP3    H232074   6.352   3.578  18.771  1.5452 -0.3338 -0.8214
 2627TIP3   OH232075   3.950   4.470  19.161  0.2891 -0.3624 -0.6939
 2627TIP3    H132076   3.962   4.563  19.142  2.1269 -0.6302 -1.0739
 2627TIP3    H232077   3.969   4.426  19.078  2.0880 -1.1984  0.1068
 2628TIP3   OH232078   3.967   5.333  18.782  0.2386  0.2238  0.1713
 2628TIP3    H132079   3.967   5.414  18.732  0.7722 -0.3861 -0.8495
 2628TIP3    H232080   3.942   5.359  18.871  0.1313  1.4497 -0.2073
 2629TIP3   OH232081   0.140   0.834  19.408  0.1996  0.2296 -0.0503
 2629TIP3    H132082   0.156   0.928  19.415 -0.0384  0.1760  1.4470
 2629TIP3    H232083   0.083   0.826  19.331 -1.0840  1.4888  0.7103
 2630TIP3   OH232084   1.620   2.435  19.342 -0.0305 -0.2388  0.3732
 2630TIP3    H132085   1.711   2.406  19.340 -0.2147 -1.0607  1.9458
 2630TIP3    H232086   1.569   2.354  19.332 -0.5628 -0.0666  1.5377
 2631TIP3   OH232087   7.104   2.521  18.393 -0.0972  0.1479  0.2306
 2631TIP3    H132088   7.068   2.470  18.466 -1.3143 -0.3484 -0.6684
 2631TIP3    H232089   7.127   2.605  18.431  0.6257 -0.5798  1.4660
 2632TIP3   OH232090   1.639   5.825  19.479  0.1795 -0.2917  0.1189
 2632TIP3    H132091   1.664   5.807  19.570 -1.1612  0.8923  0.7645
 2632TIP3    H232092   1.721   5.850  19.436  0.6659  0.1935  1.2788
 2633TIP3   OH232093   2.512   2.381  17.391 -0.2195  0.5009 -0.5701
 2633TIP3    H132094   2.524   2.468  17.429 -1.6279  0.7722 -0.7138
 2633TIP3    H232095   2.422   2.358  17.411 -0.1842 -0.4797 -1.4485
 2634TIP3   OH232096   6.234   0.141  16.375  0.1335 -0.3576 -0.1852
 2634TIP3    H132097   6.297   0.119  16.443 -0.5156  0.0670  0.5787
 2634TIP3    H232098   6.247   0.234  16.360 -1.7197  0.2764  1.5606
 2635TIP3   OH232099   7.472   4.677  17.219  0.4911  0.5411  0.0059
 2635TIP3    H132100   7.420   4.758  17.218 -0.0640  0.3247  2.9259
 2635TIP3    H232101   7.478   4.654  17.312  0.4393 -2.9190 -0.7351
 2636TIP3   OH232102   7.103   7.417  19.018 -0.1678 -0.4819  0.0910
 2636TIP3    H132103   7.027   7.435  19.073 -0.8319  0.7808 -1.1783
 2636TIP3    H232104   7.178   7.438  19.074 -0.8128  0.3947  0.6556
 2637TIP3   OH232105   2.515   7.139  19.083 -0.1372  0.0473 -0.1462
 2637TIP3    H132106   2.478   7.167  19.000 -1.9202 -0.9979  0.2458
 2637TIP3    H232107   2.540   7.048  19.069 -1.5352 -0.5183  0.7264
 2638TIP3   OH232108   2.403   0.713  17.198  0.5511 -0.5327 -0.0628
 2638TIP3    H132109   2.329   0.711  17.138  0.8378 -0.1197 -0.4359
 2638TIP3    H232110   2.477   0.678  17.147  0.9860  0.6042 -0.2311
 2639TIP3   OH232111   6.531   6.899  18.512  0.1628  0.6313 -0.5147
 2639TIP3    H132112   6.507   6.986  18.542 -0.9673  0.2579 -0.2766
 2639TIP3    H232113   6.502   6.840  18.582 -0.4865 -0.0559 -1.3394
 2640TIP3   OH232114   1.018   4.200  17.500 -0.0046 -0.1473 -0.1230
 2640TIP3    H132115   1.015   4.179  17.593 -1.7888  1.0079  0.1352
 2640TIP3    H232116   0.965   4.280  17.492 -1.8823 -1.4804 -2.3949
 2641TIP3   OH232117   3.446   7.055  19.002 -0.3541 -0.9895 -0.1173
 2641TIP3    H132118   3.487   7.056  18.916 -1.8473  1.3444 -0.8820
 2641TIP3    H232119   3.471   7.139  19.042 -0.9836 -1.3439  1.0834
 2642TIP3   OH232120   2.090   6.803  16.761  0.0794 -0.2116 -0.0698
 2642TIP3    H132121   2.089   6.754  16.844 -0.5744 -0.1299 -0.0241
 2642TIP3    H232122   2.002   6.791  16.726  0.5795 -0.8836 -1.1292
 2643TIP3   OH232123   3.724   7.052  18.366 -0.2672  0.4151 -0.1093
 2643TIP3    H132124   3.695   7.024  18.280  1.6043 -1.4332 -0.2180
 2643TIP3    H232125   3.818   7.069  18.356  0.2783 -1.1358  1.8191
 2644TIP3   OH232126   0.292   1.376  17.648  0.1787  0.3337  0.3413
 2644TIP3    H132127   0.213   1.362  17.597  0.9592 -1.3152 -0.4895
 2644TIP3    H232128   0.329   1.289  17.659  1.1104  0.8993  1.9950
 2645TIP3   OH232129   2.103   2.083  18.815  0.0800  0.2271 -0.4085
 2645TIP3    H132130   2.053   2.010  18.778 -0.8869 -0.9708  2.9231
 2645TIP3    H232131   2.043   2.158  18.811 -0.1562  0.0205 -0.8253
 2646TIP3   OH232132   1.296   6.788  17.090  0.5553 -0.1019  0.1204
 2646TIP3    H132133   1.362   6.825  17.031  0.5674 -1.5124 -0.7984
 2646TIP3    H232134   1.316   6.694  17.093  0.2046 -0.1601  1.9465
 2647TIP3   OH232135   0.253   5.691  17.803 -0.0084 -0.0420 -0.0919
 2647TIP3    H132136   0.180   5.753  17.794  0.5486  0.5814 -0.3927
 2647TIP3    H232137   0.319   5.723  17.743  0.1499 -1.1626 -0.5444
 2648TIP3   OH232138   7.535   6.656  17.173 -0.2483 -0.4054  0.3479
 2648TIP3    H132139   7.571   6.675  17.087 -1.6610  0.2354 -0.1318
 2648TIP3    H232140   7.444   6.630  17.157 -1.6959  3.0803  1.7762
 2649TIP3   OH232141   2.821   6.009  16.672 -0.3661  0.3333 -0.2881
 2649TIP3    H132142   2.909   6.045  16.685 -0.4013  0.7633 -1.1688
 2649TIP3    H232143   2.772   6.082  16.634 -0.5446 -0.5180 -1.7655
 2650TIP3   OH232144   7.185   0.926  19.027  0.1973 -0.2459 -0.3934
 2650TIP3    H132145   7.153   0.872  18.955  1.0084 -1.6111  0.2465
 2650TIP3    H232146   7.110   0.934  19.086 -0.1080 -0.1229 -0.7897
 2651TIP3   OH232147   0.155   2.599  17.724 -0.7471  0.3129 -0.5326
 2651TIP3    H132148   0.137   2.506  17.712 -0.4658  0.2808 -0.7240
 2651TIP3    H232149   0.230   2.602  17.784 -1.1445  0.4330 -0.0393
 2652TIP3   OH232150   0.553   3.148  19.455  0.6770 -0.0043 -0.3890
 2652TIP3    H132151   0.546   3.057  19.427  0.2814 -0.1074  0.0209
 2652TIP3    H232152   0.472   3.189  19.423  1.3339  0.4704 -1.4977
 2653TIP3   OH232153   1.740   4.287  17.913 -0.2098 -0.4715 -0.1334
 2653TIP3    H132154   1.792   4.343  17.856 -0.9370 -0.2241 -0.5831
 2653TIP3    H232155   1.803   4.238  17.964  0.4412  0.4089 -0.0847
 2654TIP3   OH232156   6.348   3.693  18.060 -0.2935  0.1668 -0.1979
 2654TIP3    H132157   6.275   3.645  18.022  0.1377 -0.7599  0.1267
 2654TIP3    H232158   6.425   3.655  18.018  0.2224 -1.0788  1.7677
 2655TIP3   OH232159   1.150   3.736  18.637  0.1160  0.1186  0.4102
 2655TIP3    H132160   1.104   3.807  18.593  1.4176  0.8228  0.1055
 2655TIP3    H232161   1.167   3.769  18.725  3.1227  1.4169 -0.5196
 2656TIP3   OH232162   4.497   4.168  18.482 -0.2422  0.0890  0.2533
 2656TIP3    H132163   4.427   4.110  18.453 -1.8849  1.2537  1.6706
 2656TIP3    H232164   4.485   4.248  18.431  1.1171 -0.2406 -0.6544
 2657TIP3   OH232165   6.871   0.194  19.333  0.1613  0.2445 -0.0835
 2657TIP3    H132166   6.827   0.132  19.274 -1.7723  0.8136  0.6721
 2657TIP3    H232167   6.964   0.176  19.321 -0.1542 -0.0731 -2.8588
 2658TIP3   OH232168   4.524   3.556  19.088  0.3293  0.0151  0.2696
 2658TIP3    H132169   4.540   3.641  19.129 -1.0544  0.2434  0.3683
 2658TIP3    H232170   4.590   3.550  19.018  1.2392  0.6054  1.0467
 2659TIP3   OH232171   1.524   6.899  16.626  0.4793  0.4146  0.4039
 2659TIP3    H132172   1.477   6.841  16.687  1.2336 -0.4469  0.1793
 2659TIP3    H232173   1.603   6.923  16.673  0.1471  1.3283  0.5147
 2660TIP3   OH232174   2.031   1.438  19.009  0.2120  0.1038 -0.2281
 2660TIP3    H132175   1.965   1.506  18.994  1.5588  1.4498 -0.3039
 2660TIP3    H232176   2.073   1.427  18.924 -0.4528 -1.3783 -0.3931
 2661TIP3   OH232177   7.417   1.677  18.934  0.7418  0.3892 -0.2077
 2661TIP3    H132178   7.497   1.720  18.902  1.7756 -1.2702  0.0122
 2661TIP3    H232179   7.418   1.591  18.891 -1.1625  0.4817 -0.5099
 2662TIP3   OH232180   7.293   0.646  18.038  0.2297  0.0722  0.5814
 2662TIP3    H132181   7.214   0.614  17.995  0.9514 -0.5811 -0.3109
 2662TIP3    H232182   7.364   0.622  17.979  1.2230 -0.4597  1.9290
 2663TIP3   OH232183   5.325   1.299  18.434 -0.0926  0.0504 -0.0982
 2663TIP3    H132184   5.384   1.263  18.367 -0.7020  0.1463 -0.7026
 2663TIP3    H232185   5.283   1.222  18.472 -1.5654  0.0769 -1.5501
 2664TIP3   OH232186   2.531   6.890  18.570  0.4647 -0.3023 -0.7446
 2664TIP3    H132187   2.450   6.923  18.531  1.0197  1.0119 -0.8371
 2664TIP3    H232188   2.509   6.801  18.599 -1.1726  0.2445 -0.2071
 2665TIP3   OH232189   1.436   0.672  19.274 -0.5237 -0.6690  0.1077
 2665TIP3    H132190   1.388   0.754  19.290  1.2989  0.2416  1.1726
 2665TIP3    H232191   1.421   0.620  19.353  0.0635 -0.4705  0.3506
 2666TIP3   OH232192   1.112   2.222  16.731 -0.7840 -0.0861  0.1442
 2666TIP3    H132193   1.059   2.301  16.728  0.0758  0.4787 -2.3291
 2666TIP3    H232194   1.100   2.181  16.645 -0.3480 -2.0769  0.9637
 2667TIP3   OH232195   2.530   0.710  17.437  0.3033  0.0765 -0.3014
 2667TIP3    H132196   2.466   0.727  17.368 -0.8943 -0.4383  0.6540
 2667TIP3    H232197   2.549   0.616  17.430  0.0791 -0.0029  0.1517
 2668TIP3   OH232198   1.374   3.550  18.580  0.1058  0.1766  0.3861
 2668TIP3    H132199   1.354   3.609  18.652  1.2784  0.7714  0.2520
 2668TIP3    H232200   1.424   3.479  18.621  1.4818  0.9237  0.0690
 2669TIP3   OH232201   0.043   4.505  16.980 -0.2999 -0.4972 -0.3756
 2669TIP3    H132202   0.093   4.490  16.900  1.3995 -0.4211  0.6154
 2669TIP3    H232203  -0.013   4.428  16.988  1.6231 -1.9537 -0.1521
 2670TIP3   OH232204   1.237   5.699  17.869  0.2898  0.3524  0.0810
 2670TIP3    H132205   1.296   5.748  17.811 -0.3337  1.5364  0.4102
 2670TIP3    H232206   1.215   5.620  17.820  1.9748 -0.0145 -0.1271
 2671TIP3   OH232207   0.137   0.727  18.522 -0.3652 -0.2753 -0.0702
 2671TIP3    H132208   0.054   0.679  18.521 -0.1705 -0.6431  0.7574
 2671TIP3    H232209   0.203   0.660  18.539  0.0524  0.0955 -0.2156
 2672TIP3   OH232210   4.472   5.688  18.009  0.3071 -0.3385 -0.0905
 2672TIP3    H132211   4.427   5.652  18.085 -1.4152  0.9158 -0.4692
 2672TIP3    H232212   4.412   5.675  17.936  0.6406  1.1281 -0.6747
 2673TIP3   OH232213   6.268   5.509  18.231 -0.1187 -0.2321  0.2145
 2673TIP3    H132214   6.319   5.573  18.181  0.7383 -0.4307  0.8069
 2673TIP3    H232215   6.213   5.562  18.289 -0.8488 -0.0109 -0.6620
 2674TIP3   OH232216   6.752   7.396  19.094 -0.1724 -0.0659  0.1627
 2674TIP3    H132217   6.802   7.364  19.169 -0.8317  0.5152  0.8709
 2674TIP3    H232218   6.694   7.324  19.071  1.1108 -0.8318 -0.8134
 2675TIP3   OH232219   5.367   3.419  18.331  0.2401 -0.3254 -0.0366
 2675TIP3    H132220   5.439   3.426  18.394  1.9314 -0.0196 -1.9317
 2675TIP3    H232221   5.399   3.461  18.251 -1.9395 -0.4512 -1.0738
 2676TIP3   OH232222   7.113   2.829  18.982  0.2475 -0.7221 -0.0253
 2676TIP3    H132223   7.174   2.756  18.998 -0.3562 -1.2292  0.0260
 2676TIP3    H232224   7.073   2.809  18.897  0.4524 -0.1808 -0.2484
 2677TIP3   OH232225   4.972   5.580  18.390 -0.0870  0.6778  0.2716
 2677TIP3    H132226   5.009   5.631  18.462  0.6916  0.3086  0.1468
 2677TIP3    H232227   4.916   5.515  18.432 -2.2132  2.4636  0.3771
 2678TIP3   OH232228   5.678   1.972  18.328  0.1702 -0.0257  0.5176
 2678TIP3    H132229   5.607   1.910  18.313  0.4652 -0.2298 -0.0579
 2678TIP3    H232230   5.633   2.056  18.343 -0.2168 -0.3167  1.0200
 2679TIP3   OH232231   0.749   0.673  16.860  0.1197  0.4063  0.1416
 2679TIP3    H132232   0.768   0.586  16.896  0.6793  0.1644 -0.7006
 2679TIP3    H232233   0.799   0.733  16.914  1.4898 -0.0149 -0.6131
 2680TIP3   OH232234   1.327   7.011  16.435  0.0072  0.3040 -0.4823
 2680TIP3    H132235   1.404   6.983  16.485 -0.8191  1.0215  1.2840
 2680TIP3    H232236   1.311   6.940  16.372  1.3696 -0.4152 -0.0531
 2681TIP3   OH232237   4.901   1.386  18.448  0.2075 -0.2513 -0.1337
 2681TIP3    H132238   4.901   1.293  18.425  0.2529 -0.4423  0.6042
 2681TIP3    H232239   4.967   1.394  18.517  0.4955  0.4089 -0.4713
 2682TIP3   OH232240   2.802   0.676  19.592  0.4036 -0.0266  0.2869
 2682TIP3    H132241   2.799   0.772  19.592  0.3394 -0.0138 -0.8701
 2682TIP3    H232242   2.894   0.656  19.573  0.2632 -0.1788 -0.2541
 2683TIP3   OH232243   4.789   5.339  18.550 -0.0122  0.5028  0.1866
 2683TIP3    H132244   4.736   5.276  18.599  2.8898 -1.4293  1.0971
 2683TIP3    H232245   4.794   5.416  18.607 -1.7431  0.7498  0.0675
 2684TIP3   OH232246   2.147   2.570  17.203 -0.2902  0.1127  0.2278
 2684TIP3    H132247   2.060   2.596  17.172  0.2389 -0.0473 -1.4511
 2684TIP3    H232248   2.208   2.624  17.154  0.6336 -1.0983 -0.0197
 2685TIP3   OH232249   4.669   5.370  19.291  0.3343  0.0954  0.1072
 2685TIP3    H132250   4.580   5.405  19.297  0.2779  0.0816 -0.6546
 2685TIP3    H232251   4.698   5.365  19.382 -0.5946 -0.2886  0.3984
 2686TIP3   OH232252   3.719   7.574  18.633 -0.1650  0.0617 -0.7030
 2686TIP3    H132253   3.660   7.646  18.610 -1.7288 -1.1568 -0.6585
 2686TIP3    H232254   3.711   7.512  18.560  0.8702 -0.2636 -0.5604
 2687TIP3   OH232255   0.654   4.485  19.609 -0.3877 -0.2024 -0.4827
 2687TIP3    H132256   0.675   4.443  19.693  0.7064  0.1371 -0.5698
 2687TIP3    H232257   0.678   4.576  19.621 -2.9102  0.4977 -0.2522
 2688TIP3   OH232258   6.237   2.063  16.930 -0.8280  0.3228 -0.1425
 2688TIP3    H132259   6.203   2.104  16.850 -0.6779 -0.9040 -0.8645
 2688TIP3    H232260   6.280   2.134  16.977 -1.1562  1.1271 -1.0260
 2689TIP3   OH232261   5.891   3.177  18.938  0.4079 -0.3972  0.0131
 2689TIP3    H132262   5.926   3.088  18.940 -1.9032 -1.4060 -0.3361
 2689TIP3    H232263   5.818   3.172  18.877  0.7370  1.9859 -0.6662
 2690TIP3   OH232264   5.562   4.350  18.482 -0.0899  0.0112  0.0118
 2690TIP3    H132265   5.476   4.355  18.522 -0.1925  1.5386 -0.3306
 2690TIP3    H232266   5.549   4.385  18.393  0.9937  0.8566  0.1697
 2691TIP3   OH232267   4.406   7.167  17.387  0.8064 -0.6416  0.9175
 2691TIP3    H132268   4.377   7.191  17.475  0.5143 -0.6424  0.8247
 2691TIP3    H232269   4.334   7.115  17.352  0.2527  0.6064  0.1273
 2692TIP3   OH232270   6.406   7.041  17.758  0.1470 -0.3085  0.0977
 2692TIP3    H132271   6.420   7.127  17.719 -0.4883 -0.1275  0.2623
 2692TIP3    H232272   6.413   7.056  17.852  0.6644 -0.5573  0.1039
 2693TIP3   OH232273   6.954   4.995  17.392 -0.5529  0.1021 -0.0069
 2693TIP3    H132274   6.967   4.900  17.401 -1.7195 -0.4344 -2.9096
 2693TIP3    H232275   6.862   5.009  17.417 -0.5557  0.3748 -0.1699
 2694TIP3   OH232276   2.511   5.428  18.789 -0.1588 -0.5279  0.0750
 2694TIP3    H132277   2.557   5.441  18.706  0.3414 -2.0673  0.0577
 2694TIP3    H232278   2.418   5.432  18.767 -0.0288 -0.7356 -0.5436
 2695TIP3   OH232279   5.063   5.891  18.833  0.2798 -0.1082 -0.2500
 2695TIP3    H132280   5.027   5.836  18.902 -0.9819  0.6608 -0.2514
 2695TIP3    H232281   5.139   5.933  18.873 -0.7020  0.6960  0.8770
 2696TIP3   OH232282   1.766   1.978  18.530 -0.4033 -0.2983  0.0413
 2696TIP3    H132283   1.809   1.894  18.544 -0.6611 -0.6703 -1.2516
 2696TIP3    H232284   1.836   2.037  18.505 -0.4020 -0.4865 -0.4136
 2697TIP3   OH232285   2.077   2.818  18.479  0.1356  0.6049 -0.1769
 2697TIP3    H132286   2.111   2.745  18.530 -0.9382 -0.2315 -0.6189
 2697TIP3    H232287   2.154   2.852  18.432  0.5861 -0.4731 -0.2447
 2698TIP3   OH232288   4.911   4.689  18.286 -0.2299 -0.1203 -0.6814
 2698TIP3    H132289   4.818   4.694  18.309 -0.6585 -4.4455 -0.6154
 2698TIP3    H232290   4.946   4.775  18.309 -2.9626 -0.0419  5.1012
 2699TIP3   OH232291   1.940   6.225  19.266  0.3478 -0.6217  0.4874
 2699TIP3    H132292   1.990   6.279  19.205  0.1716  0.5035  1.3158
 2699TIP3    H232293   2.005   6.167  19.306  0.7957 -0.0140  0.6525
 2700TIP3   OH232294   2.912   0.650  17.709 -0.1452 -0.1361 -0.0498
 2700TIP3    H132295   2.888   0.677  17.621  2.2749  0.7016 -0.5166
 2700TIP3    H232296   2.879   0.720  17.765 -1.4525 -0.5401 -0.2682
 2701TIP3   OH232297   4.148   1.174  16.521  0.5050  0.5475 -0.2273
 2701TIP3    H132298   4.228   1.121  16.518  0.5976  0.6776 -0.0677
 2701TIP3    H232299   4.107   1.160  16.436  0.5515  0.2505 -0.2010
 2702TIP3   OH232300   3.508   2.922  19.190  0.3011  0.2235  0.2366
 2702TIP3    H132301   3.448   2.855  19.223  1.2320 -0.9960 -0.4199
 2702TIP3    H232302   3.594   2.878  19.190  0.8964  1.3553 -0.4235
 2703TIP3   OH232303   4.259   5.816  17.043 -0.0581 -0.0371  0.1044
 2703TIP3    H132304   4.215   5.827  17.128  0.6630 -1.3165  0.6635
 2703TIP3    H232305   4.342   5.861  17.053  0.5237 -1.1631  0.4970
 2704TIP3   OH232306   0.143   0.833  18.257  0.1122 -0.9236  0.0261
 2704TIP3    H132307   0.062   0.820  18.209  0.0053 -0.7089  0.1439
 2704TIP3    H232308   0.142   0.765  18.325 -0.9870  0.3625  1.3606
 2705TIP3   OH232309   6.220   2.017  17.474  0.2562 -0.1502 -0.2642
 2705TIP3    H132310   6.270   1.990  17.550 -0.0331  0.6589  0.2264
 2705TIP3    H232311   6.236   1.949  17.409 -2.4462 -2.9540  1.7128
 2706TIP3   OH232312   0.966   4.334  18.089  0.3606  0.5466 -0.3636
 2706TIP3    H132313   1.034   4.285  18.042  0.1078  1.1520 -1.3912
 2706TIP3    H232314   0.952   4.412  18.036 -0.3216  0.9893  0.4551
 2707TIP3   OH232315   3.059   3.855  16.246  0.6723 -0.0777  0.4441
 2707TIP3    H132316   3.130   3.918  16.243  0.4524  0.2780  2.1098
 2707TIP3    H232317   2.982   3.907  16.271 -0.4147 -0.2886 -2.1004
 2708TIP3   OH232318   0.104   2.563  18.226  0.6032 -0.1426 -0.2483
 2708TIP3    H132319   0.091   2.509  18.304  0.1305  1.3109  0.7209
 2708TIP3    H232320   0.189   2.534  18.191  1.1846 -0.3141  1.2277
 2709TIP3   OH232321   7.101   3.546  18.741 -0.2204  0.0574 -0.0025
 2709TIP3    H132322   7.127   3.626  18.695 -2.0295  0.9215  0.3812
 2709TIP3    H232323   7.175   3.527  18.798  0.1836  1.5800  0.0357
 2710TIP3   OH232324   5.743   1.140  18.686 -0.2349 -0.0690 -0.7324
 2710TIP3    H132325   5.804   1.192  18.740 -1.5281  0.6997  0.0253
 2710TIP3    H232326   5.717   1.068  18.743  1.2446 -1.4118 -1.6463
 2711TIP3   OH232327   7.438   1.679  16.915  0.1173 -0.0013  0.0438
 2711TIP3    H132328   7.525   1.666  16.878  1.2372 -1.3484  2.8719
 2711TIP3    H232329   7.452   1.736  16.991 -1.2889 -0.8791  1.0216
 2712TIP3   OH232330   4.498   7.572  17.922 -0.0558 -0.0051  0.0657
 2712TIP3    H132331   4.513   7.661  17.955  0.6333 -0.1728  0.2242
 2712TIP3    H232332   4.527   7.515  17.994 -2.2226 -0.3720  0.7326
 2713TIP3   OH232333   1.539   7.391  19.477 -0.4413  0.3022  0.6263
 2713TIP3    H132334   1.491   7.346  19.408  0.4438  1.2693 -0.6817
 2713TIP3    H232335   1.491   7.371  19.557 -1.1664 -1.3436 -0.1658
 2714TIP3   OH232336   3.914   1.848  17.997  0.2762  0.4863  0.0990
 2714TIP3    H132337   3.854   1.776  18.017 -0.2555 -0.0712 -2.9954
 2714TIP3    H232338   3.862   1.927  18.010 -0.2145  0.1380  0.2824
 2715TIP3   OH232339   1.209   0.127  17.759  0.3451 -0.1101 -0.3519
 2715TIP3    H132340   1.269   0.055  17.778 -0.6261 -0.5426  1.2109
 2715TIP3    H232341   1.173   0.106  17.673 -0.1775 -1.6735  0.2216
 2716TIP3   OH232342   6.649   2.832  18.967 -0.1698  0.7004  0.2819
 2716TIP3    H132343   6.720   2.892  18.992 -0.1622  0.8985 -0.2079
 2716TIP3    H232344   6.571   2.871  19.006 -0.1112  0.8336  0.2669
 2717TIP3   OH232345   2.026   7.397  17.948 -0.0400  0.6775 -0.5042
 2717TIP3    H132346   1.982   7.411  17.865 -1.1317  1.6910  0.2168
 2717TIP3    H232347   1.975   7.447  18.012  0.8816  0.0948  0.7488
 2718TIP3   OH232348   7.296   0.020  19.525 -0.3185 -0.2396 -0.4439
 2718TIP3    H132349   7.272  -0.071  19.541 -0.0980  0.0116  1.5013
 2718TIP3    H232350   7.388   0.026  19.548 -0.2503  0.4235 -0.8497
 2719TIP3   OH232351   5.910   1.138  19.418 -0.0365 -0.3197 -0.5503
 2719TIP3    H132352   5.878   1.112  19.504 -1.7006 -0.6098 -1.2278
 2719TIP3    H232353   5.983   1.198  19.436  2.2091 -3.2717  1.0830
 2720TIP3   OH232354   3.358   7.143  19.428 -0.3919 -0.2486  0.2725
 2720TIP3    H132355   3.363   7.065  19.372 -1.0608  0.5975 -1.0393
 2720TIP3    H232356   3.371   7.111  19.516  1.9172 -1.4939 -0.4536
 2721TIP3   OH232357   1.139   6.143  18.489 -0.3280 -0.0075 -0.4929
 2721TIP3    H132358   1.079   6.121  18.560  1.6427  1.1229  1.6527
 2721TIP3    H232359   1.204   6.073  18.489 -0.0782  0.2191 -0.9216
 2722TIP3   OH232360   2.713   1.267  17.676  0.0984  0.4626 -0.2884
 2722TIP3    H132361   2.716   1.362  17.659  0.9353  1.0319  2.5878
 2722TIP3    H232362   2.805   1.240  17.672  0.1626  0.3257  1.4084
 2723TIP3   OH232363   0.583   1.908  16.570 -0.3497  0.1366  0.1920
 2723TIP3    H132364   0.545   1.990  16.602  0.8017  0.6126  0.4027
 2723TIP3    H232365   0.644   1.935  16.501 -1.4120 -0.7213 -1.1370
 2724TIP3   OH232366   2.780   3.426  17.968  0.2489 -0.2951  0.2461
 2724TIP3    H132367   2.782   3.339  17.928  0.5382  0.1469 -0.7390
 2724TIP3    H232368   2.711   3.473  17.920  0.9106  0.3926 -0.0604
 2725TIP3   OH232369   0.234   3.150  16.694 -0.7292  0.5989  0.0871
 2725TIP3    H132370   0.172   3.214  16.729 -1.2666 -0.1089  0.4774
 2725TIP3    H232371   0.247   3.089  16.767 -0.1854  0.3006 -0.2599
 2726TIP3   OH232372   6.355   0.933  18.881  0.1787 -0.8205 -0.3057
 2726TIP3    H132373   6.366   1.027  18.895  0.6582 -1.1611  2.1756
 2726TIP3    H232374   6.260   0.921  18.875  0.0278 -0.3030  0.7807
 2727TIP3   OH232375   0.552   7.543  18.088  0.0790  0.0788 -0.5550
 2727TIP3    H132376   0.527   7.454  18.115 -0.7710  0.4102 -0.1835
 2727TIP3    H232377   0.599   7.532  18.006 -0.5358 -0.6744 -0.8173
 2728TIP3   OH232378   5.965   5.012  19.308  0.2810 -0.1056 -0.1657
 2728TIP3    H132379   5.962   4.942  19.242 -0.3291 -0.5929  0.3697
 2728TIP3    H232380   6.047   5.058  19.290  1.2865 -1.6767  0.2057
 2729TIP3   OH232381   4.803   3.615  19.260  0.4187  0.0028 -0.1438
 2729TIP3    H132382   4.859   3.689  19.237 -0.1646  0.4997 -0.0053
 2729TIP3    H232383   4.719   3.635  19.219 -0.1417  0.0674  0.9982
 2730TIP3   OH232384   5.294   2.998  18.617 -0.5887 -0.6086 -0.2170
 2730TIP3    H132385   5.223   2.979  18.678 -0.9821  1.8817  0.2050
 2730TIP3    H232386   5.251   3.032  18.539  0.0802  1.5760  0.2919
 2731TIP3   OH232387   4.418   1.863  18.733  0.1101  0.2327  0.6604
 2731TIP3    H132388   4.455   1.935  18.785  2.2726 -0.1252 -0.2537
 2731TIP3    H232389   4.489   1.799  18.728 -0.9281 -0.8805 -0.5691
 2732TIP3   OH232390   0.810   5.642  19.142 -0.1525  0.3815 -0.3174
 2732TIP3    H132391   0.795   5.667  19.051 -0.3467 -0.2085 -0.4579
 2732TIP3    H232392   0.862   5.713  19.179 -1.4675  1.4390 -0.4302
 2733TIP3   OH232393   2.403   5.526  18.340  0.4426  0.1828  0.6268
 2733TIP3    H132394   2.428   5.467  18.269 -1.7544 -3.0230  2.2300
 2733TIP3    H232395   2.311   5.548  18.321  0.8469  2.1284  0.7449
 2734TIP3   OH232396   3.088   0.619  19.584 -0.0143  0.1028 -0.5865
 2734TIP3    H132397   3.113   0.544  19.639 -0.5442 -0.3638 -0.9644
 2734TIP3    H232398   3.172   0.654  19.553  0.2365 -0.4765 -0.5798
 2735TIP3   OH232399   4.593   1.236  17.019 -0.6036  0.5088  0.0275
 2735TIP3    H132400   4.674   1.241  17.070 -0.0622 -1.0250 -0.6284
 2735TIP3    H232401   4.602   1.305  16.954  0.0590  0.5253  0.1317
 2736TIP3   OH232402   0.282   5.137  17.659  0.1367 -0.8019  0.0274
 2736TIP3    H132403   0.243   5.156  17.574 -0.1400 -1.6696 -0.0377
 2736TIP3    H232404   0.279   5.221  17.706 -2.9136 -1.0692  0.4949
 2737TIP3   OH232405   7.472   5.791  17.709 -0.0881 -0.5591  0.1375
 2737TIP3    H132406   7.440   5.882  17.713  0.8916 -0.1339 -1.1362
 2737TIP3    H232407   7.439   5.758  17.626 -0.1671 -1.2772  0.4509
 2738TIP3   OH232408   0.940   1.963  18.635  0.4950  0.1127  0.9149
 2738TIP3    H132409   0.859   1.988  18.679  0.9957  1.3274  1.1874
 2738TIP3    H232410   0.990   1.916  18.701 -0.1187 -0.9697  0.6375
 2739TIP3   OH232411   3.361   0.553  18.540  0.7436  0.4161 -0.2955
 2739TIP3    H132412   3.397   0.532  18.626  1.2754 -0.5680 -0.7310
 2739TIP3    H232413   3.302   0.480  18.521  1.2423  0.2123 -1.0970
 2740TIP3   OH232414   5.133   1.192  19.165 -0.0395 -0.0390  0.5577
 2740TIP3    H132415   5.102   1.108  19.197  0.3167 -0.3800  0.0192
 2740TIP3    H232416   5.058   1.251  19.176 -1.2715 -1.0604 -1.6440
 2741TIP3   OH232417   7.636   7.347  18.648  0.1884 -0.0888  0.2879
 2741TIP3    H132418   7.605   7.315  18.563 -0.9180  0.6270  0.4137
 2741TIP3    H232419   7.664   7.268  18.694 -2.2341 -0.8932  0.4958
 2742TIP3   OH232420   1.779   7.645  19.571  0.0240  0.4214 -0.1561
 2742TIP3    H132421   1.812   7.578  19.632 -1.6225 -0.4081 -0.1308
 2742TIP3    H232422   1.759   7.720  19.627  0.0715  0.2555  0.0876
 2743TIP3   OH232423   2.379   6.780  16.694 -0.3119 -0.1121  0.1979
 2743TIP3    H132424   2.302   6.812  16.740 -0.2500  0.1387  0.1250
 2743TIP3    H232425   2.344   6.723  16.625 -0.3808 -1.0839  1.0044
 2744TIP3   OH232426   7.041   0.487  18.659  0.1722 -0.0357 -0.4806
 2744TIP3    H132427   7.052   0.392  18.660  0.0905 -0.0762 -1.8139
 2744TIP3    H232428   6.947   0.501  18.670  0.3647 -0.0270  1.4210
 2745TIP3   OH232429   1.311   6.771  17.367  0.2711 -0.3762  0.3581
 2745TIP3    H132430   1.310   6.768  17.271  0.4260 -4.2291  0.3153
 2745TIP3    H232431   1.371   6.843  17.387 -0.9186  1.5587 -2.3311
 2746TIP3   OH232432   0.253   6.304  17.621  0.7756  0.2562 -0.2467
 2746TIP3    H132433   0.181   6.253  17.583  0.9270  0.0536 -0.2642
 2746TIP3    H232434   0.272   6.260  17.703  1.2214  0.0077 -0.4836
 2747TIP3   OH232435   0.969   2.445  19.381 -0.0426  0.0942  0.5048
 2747TIP3    H132436   1.017   2.526  19.399  1.2916 -0.5826  0.1113
 2747TIP3    H232437   0.993   2.386  19.453  0.9620 -0.7636 -0.4979
 2748TIP3   OH232438   2.277   2.928  18.355 -0.2964 -0.7614  0.0318
 2748TIP3    H132439   2.266   3.022  18.374  0.5086 -0.9270  1.4880
 2748TIP3    H232440   2.355   2.923  18.301  1.1126 -0.7380  1.9632
 2749TIP3   OH232441   4.831   1.771  18.071 -0.3142 -0.3448  0.5256
 2749TIP3    H132442   4.825   1.780  18.166 -0.3205 -0.8498  0.5779
 2749TIP3    H232443   4.912   1.722  18.057  1.5186  2.6189  0.0703
 2750TIP3   OH232444   0.114   4.788  18.484 -0.1762  0.0131  0.0042
 2750TIP3    H132445   0.018   4.785  18.486 -0.1873  0.5653  1.4366
 2750TIP3    H232446   0.142   4.708  18.528 -0.0932  1.7647  3.5105
 2751TIP3   OH232447   0.103   3.226  17.309 -0.0116  0.2098  0.6034
 2751TIP3    H132448   0.187   3.188  17.334  0.7393  1.9923  0.9169
 2751TIP3    H232449   0.112   3.243  17.215 -1.4746 -3.0583 -0.2747
 2752TIP3   OH232450   0.829   1.408  16.878 -0.2030 -0.4215 -0.0986
 2752TIP3    H132451   0.878   1.418  16.960  0.6390 -0.4800 -0.5884
 2752TIP3    H232452   0.829   1.496  16.840  0.8302 -0.7226 -0.8264
 2753TIP3   OH232453   2.899   6.727  19.633  0.7059  0.0818 -0.1226
 2753TIP3    H132454   2.923   6.789  19.703  0.8710 -0.2294  0.0977
 2753TIP3    H232455   2.818   6.763  19.597 -0.2237 -0.5378  1.2352
 2754TIP3   OH232456   0.432   3.530  16.827 -0.0086  0.1888  0.0486
 2754TIP3    H132457   0.463   3.456  16.774 -0.0822  0.0190  0.2407
 2754TIP3    H232458   0.342   3.544  16.797 -0.9179 -1.4906  1.7866
 2755TIP3   OH232459   5.371   5.616  18.457 -0.1410 -0.1158 -0.2301
 2755TIP3    H132460   5.369   5.568  18.540 -0.9889  1.0526  0.4606
 2755TIP3    H232461   5.454   5.664  18.459  0.6415 -1.3940 -0.8568
 2756TIP3   OH232462   5.931   3.994  17.747  0.1847 -0.1599 -0.3102
 2756TIP3    H132463   5.836   3.989  17.751  0.2351 -0.2508  1.2534
 2756TIP3    H232464   5.949   4.087  17.730 -0.1822 -0.1446 -0.6186
 2757TIP3   OH232465   3.380   5.568  16.976 -0.0399  0.3790 -0.2077
 2757TIP3    H132466   3.386   5.650  17.025 -3.5125  1.1697 -0.8293
 2757TIP3    H232467   3.357   5.595  16.887 -1.2580 -1.2327 -0.4230
 2758TIP3   OH232468   4.297   5.087  19.000 -0.1445  0.4460 -0.0085
 2758TIP3    H132469   4.278   5.169  19.046  0.9350  0.4359  0.4911
 2758TIP3    H232470   4.214   5.062  18.959 -0.7608  1.2064  0.7525
 2759TIP3   OH232471   0.885   5.560  17.553  0.3191  0.2940  0.3194
 2759TIP3    H132472   0.973   5.525  17.541  0.0804  0.0561 -0.8907
 2759TIP3    H232473   0.859   5.530  17.640  0.9007 -0.8248  0.1239
 2760TIP3   OH232474   1.244   2.033  18.623  0.2371 -0.2911 -0.3361
 2760TIP3    H132475   1.158   2.075  18.622 -0.7132 -2.1577  0.0283
 2760TIP3    H232476   1.281   2.052  18.537 -0.8861 -0.1820 -0.8132
 2761TIP3   OH232477   0.133   4.243  17.413 -0.9117  0.7195 -0.0833
 2761TIP3    H132478   0.085   4.244  17.330  2.9691  1.4087 -2.6139
 2761TIP3    H232479   0.153   4.151  17.428 -1.0989  0.6491 -0.2583
 2762TIP3   OH232480   2.150   7.187  17.378  0.0103 -0.2791 -0.1114
 2762TIP3    H132481   2.081   7.122  17.364 -0.4538  0.4091 -1.1245
 2762TIP3    H232482   2.174   7.177  17.470 -0.3164 -1.6130 -0.1466
 2763TIP3   OH232483   6.513   0.939  18.126 -0.0868  0.2610  1.2758
 2763TIP3    H132484   6.430   0.945  18.079  0.6298  1.3714  0.0823
 2763TIP3    H232485   6.505   0.860  18.179 -0.9200 -1.1101 -0.7684
 2764TIP3   OH232486   3.076   3.328  18.239  0.0664  0.4999  0.2297
 2764TIP3    H132487   3.154   3.286  18.275 -0.0750 -0.5604 -0.6308
 2764TIP3    H232488   3.007   3.308  18.302 -0.1380 -1.1734 -0.4720
 2765TIP3   OH232489   6.363   3.082  17.304 -0.2666 -0.2609 -0.2386
 2765TIP3    H132490   6.271   3.104  17.312 -0.2808  0.0866 -1.2891
 2765TIP3    H232491   6.376   3.064  17.211  0.4389 -1.6141  0.0916
 2766TIP3   OH232492   3.163   2.854  19.080 -0.1188 -0.1479  0.1120
 2766TIP3    H132493   3.244   2.890  19.044 -0.8539 -0.3203 -1.8636
 2766TIP3    H232494   3.100   2.926  19.073 -0.6605 -0.6560 -0.3901
 2767TIP3   OH232495   3.218   2.853  18.422  0.0127  0.4899  0.3347
 2767TIP3    H132496   3.269   2.905  18.361 -2.1218  0.3987 -1.6542
 2767TIP3    H232497   3.177   2.785  18.368 -0.3207 -0.9015  2.2196
 2768TIP3   OH232498   2.918   2.835  18.417 -0.0767  0.1209 -0.0339
 2768TIP3    H132499   2.969   2.916  18.417  0.1916  0.0867 -3.3600
 2768TIP3    H232500   2.827   2.865  18.421  0.0392  0.6051 -0.7544
 2769TIP3   OH232501   1.353   3.647  18.913 -0.2274  0.3729  0.4902
 2769TIP3    H132502   1.393   3.734  18.918  0.2482  0.1969 -0.0641
 2769TIP3    H232503   1.282   3.649  18.978 -2.7054  2.4471 -2.0090
 2770TIP3   OH232504   0.922   5.187  17.282 -0.1450 -0.1685  0.3209
 2770TIP3    H132505   0.964   5.101  17.286  0.9721  0.3912  1.2253
 2770TIP3    H232506   0.910   5.212  17.374  2.0012  1.7758  0.1570
 2771TIP3   OH232507   3.817   0.535  18.503  0.4965  0.4168  0.0252
 2771TIP3    H132508   3.799   0.544  18.596 -0.1313 -1.0834  0.0874
 2771TIP3    H232509   3.910   0.516  18.498  0.0919 -2.0424  0.6097
 2772TIP3   OH232510   0.407   0.862  18.276 -0.0192 -0.7653  0.3218
 2772TIP3    H132511   0.414   0.954  18.252 -2.0255 -0.7646 -0.4835
 2772TIP3    H232512   0.317   0.838  18.253  0.6420 -3.1104 -0.1144
 2773TIP3   OH232513   5.222   6.856  18.042  0.1335  0.1501 -0.3491
 2773TIP3    H132514   5.264   6.933  18.082 -0.6949  2.0502 -2.8416
 2773TIP3    H232515   5.291   6.817  17.988  0.5550 -0.9350  0.9194
 2774TIP3   OH232516   4.994   3.954  18.900  0.1885 -0.5159  0.1370
 2774TIP3    H132517   5.064   3.902  18.940  1.0338 -0.1586 -0.8392
 2774TIP3    H232518   4.971   4.019  18.967  0.6785 -0.7446  0.5315
 2775TIP3   OH232519   7.250   5.169  18.714 -0.4676  0.2393  0.0558
 2775TIP3    H132520   7.166   5.185  18.757 -0.3656 -0.6559  0.6121
 2775TIP3    H232521   7.229   5.114  18.639 -0.5016  0.8778 -0.4109
 2776TIP3   OH232522   5.970   2.540  18.750  0.0482  0.5692  0.5519
 2776TIP3    H132523   5.912   2.553  18.676 -2.1086 -1.3362  1.7800
 2776TIP3    H232524   6.046   2.596  18.732 -0.5869  0.5233 -2.8012
 2777TIP3   OH232525   6.714   0.909  19.460 -0.1294 -0.5241 -0.4723
 2777TIP3    H132526   6.751   0.884  19.544  0.4215  0.4935 -0.3967
 2777TIP3    H232527   6.698   0.826  19.415 -0.3963 -1.0745  0.6130
 2778TIP3   OH232528   6.575   1.382  19.012 -0.1219 -0.3136  0.1114
 2778TIP3    H132529   6.661   1.341  19.005 -0.1676 -0.4035  0.0732
 2778TIP3    H232530   6.590   1.462  19.062 -0.0528 -0.4379  0.2912
 2779TIP3   OH232531   0.296   2.627  18.538 -0.2344  0.6353 -0.4437
 2779TIP3    H132532   0.381   2.585  18.550  0.0363  1.5659  1.2841
 2779TIP3    H232533   0.261   2.589  18.458  0.9471 -1.2020 -0.1374
 2780TIP3   OH232534   3.044   4.568  18.504  0.4054 -0.4509  0.0570
 2780TIP3    H132535   3.071   4.636  18.442  1.2144 -0.3769  0.4738
 2780TIP3    H232536   3.126   4.536  18.542  0.0899 -2.1769 -0.6581
 2781TIP3   OH232537   2.446   6.352  18.626 -0.8752  0.2122 -0.3273
 2781TIP3    H132538   2.369   6.405  18.603 -1.4926 -1.1218 -1.5516
 2781TIP3    H232539   2.417   6.262  18.610  0.8827 -0.3313 -0.5789
 2782TIP3   OH232540   0.464   5.670  19.002 -0.2598  0.5307 -0.2662
 2782TIP3    H132541   0.373   5.688  18.977 -0.2083 -0.0755 -0.9424
 2782TIP3    H232542   0.506   5.756  19.003 -0.9309  0.8625  0.4659
 2783TIP3   OH232543   0.455   7.033  17.574  0.0376 -0.8123  0.2639
 2783TIP3    H132544   0.481   6.965  17.636  0.0225 -2.1603 -1.1409
 2783TIP3    H232545   0.371   7.002  17.538  0.2323 -0.2631 -0.6981
 2784TIP3   OH232546   6.714   1.298  17.756  0.1442  0.4524  0.0291
 2784TIP3    H132547   6.759   1.268  17.835  0.1813 -0.9494 -0.4836
 2784TIP3    H232548   6.648   1.359  17.787 -0.0467 -0.3062  1.1850
 2785TIP3   OH232549   5.953   2.122  17.588  0.2384  0.1022 -0.1237
 2785TIP3    H132550   5.978   2.083  17.505 -0.7534  2.1613 -1.4624
 2785TIP3    H232551   5.986   2.061  17.654  0.8518 -1.7037 -2.0027
 2786TIP3   OH232552   0.007   4.293  18.448  0.1068  0.5247  0.7154
 2786TIP3    H132553   0.046   4.208  18.428 -0.8335  0.3138 -0.3235
 2786TIP3    H232554  -0.087   4.277  18.448 -0.0614  1.4519  1.0825
 2787TIP3   OH232555   1.730   6.920  19.186  0.3514  0.1832  0.4662
 2787TIP3    H132556   1.737   6.915  19.091  3.6064  1.3143  0.5218
 2787TIP3    H232557   1.728   6.829  19.215 -0.8165 -0.1724 -0.6260
 2788TIP3   OH232558   6.512   6.457  17.318  1.0773  0.4007 -0.2145
 2788TIP3    H132559   6.604   6.434  17.332  1.2206  0.7994 -0.4949
 2788TIP3    H232560   6.498   6.533  17.374  1.0490  0.6298 -0.5294
 2789TIP3   OH232561   0.173   2.256  19.369 -0.3313  0.4021  0.4096
 2789TIP3    H132562   0.235   2.293  19.307  1.0836 -0.0492  1.5216
 2789TIP3    H232563   0.167   2.163  19.345  0.9569  0.0142  1.5118
 2790TIP3   OH232564   2.206   2.645  18.229 -0.4738 -0.1380  0.4422
 2790TIP3    H132565   2.261   2.669  18.303  0.3216  1.1240 -0.5298
 2790TIP3    H232566   2.246   2.565  18.194  1.0418  0.9909 -0.5095
 2791TIP3   OH232567   0.885   7.009  19.235  0.5869 -0.4261 -0.1619
 2791TIP3    H132568   0.925   7.055  19.162 -0.5704 -2.1281 -1.9667
 2791TIP3    H232569   0.821   7.071  19.271  1.2569  0.4772 -0.5017
 2792TIP3   OH232570   6.495   0.808  18.662 -0.3534 -0.3310 -0.5193
 2792TIP3    H132571   6.487   0.716  18.689 -1.3917  0.1753  1.0615
 2792TIP3    H232572   6.459   0.857  18.736  0.7041  1.3870 -1.0935
 2793TIP3   OH232573   3.883   4.975  19.277  0.5031  0.2707 -0.4504
 2793TIP3    H132574   3.961   4.924  19.257  1.1794  0.3123  1.7298
 2793TIP3    H232575   3.915   5.062  19.300 -0.2170  0.4375 -0.0090
 2794TIP3   OH232576   5.001   5.932  18.390 -0.0644  0.2604 -0.0162
 2794TIP3    H132577   4.948   5.956  18.466  0.4806 -2.0307  1.1692
 2794TIP3    H232578   5.007   5.836  18.394  1.6730  0.2319 -1.8160
 2795TIP3   OH232579   0.371   0.652  18.054  0.1623  0.0609 -0.1730
 2795TIP3    H132580   0.427   0.578  18.031 -1.2788 -1.5405  1.1571
 2795TIP3    H232581   0.326   0.624  18.134 -0.2905  2.4837  0.4917
 2796TIP3   OH232582   3.543   2.215  17.181  0.2384 -0.3184  0.0780
 2796TIP3    H132583   3.556   2.250  17.093  2.1800 -0.6963  0.1671
 2796TIP3    H232584   3.503   2.129  17.167 -0.3619  0.0176 -0.3582
 2797TIP3   OH232585   3.740   4.060  18.436  0.3469 -0.1614 -0.6354
 2797TIP3    H132586   3.781   3.974  18.424 -0.0477 -0.4567  0.0750
 2797TIP3    H232587   3.787   4.118  18.375  1.3022 -0.6530 -0.3807
 2798TIP3   OH232588   1.129   0.705  17.743  0.3098  0.3361  0.1180
 2798TIP3    H132589   1.035   0.684  17.743  0.8797 -2.5873  0.5056
 2798TIP3    H232590   1.164   0.655  17.670  1.8329  0.0924  0.9939
 2799TIP3   OH232591   7.120   2.087  17.163  0.7187  0.0005  0.6584
 2799TIP3    H132592   7.052   2.020  17.159  0.6994 -0.0805  1.8941
 2799TIP3    H232593   7.176   2.069  17.088 -1.0292  0.5397 -0.8438
 2800TIP3   OH232594   6.063   1.936  17.806 -0.1913 -0.0694 -0.1008
 2800TIP3    H132595   6.151   1.962  17.835  0.6034 -0.6236 -1.9003
 2800TIP3    H232596   6.022   1.901  17.885  1.1432  0.3401  0.8186
 2801TIP3   OH232597   2.400   4.476  17.872  0.0090 -0.9140 -0.0094
 2801TIP3    H132598   2.364   4.564  17.885 -2.7525 -1.8428 -0.6827
 2801TIP3    H232599   2.479   4.490  17.820 -0.7548  1.1076 -0.7382
 2802TIP3   OH232600   1.071   5.049  18.998 -0.0218  0.2855  0.2396
 2802TIP3    H132601   1.018   5.018  19.071  0.2217 -0.0425  0.2758
 2802TIP3    H232602   1.054   4.987  18.927  2.4045 -1.4970  1.0737
 2803TIP3   OH232603   6.548   1.893  19.031  0.1000 -0.2607 -0.6284
 2803TIP3    H132604   6.478   1.874  18.968  0.2822 -1.6058 -0.4572
 2803TIP3    H232605   6.503   1.942  19.101 -0.3888  0.0339 -1.1351
 2804TIP3   OH232606   5.272   0.282  17.749 -0.1054  0.1487  0.2684
 2804TIP3    H132607   5.270   0.342  17.824 -0.3277  1.2882 -0.6247
 2804TIP3    H232608   5.292   0.197  17.787 -1.4739  0.4692  1.7790
 2805TIP3   OH232609   4.675   1.391  17.564 -0.2587  0.1310  0.5665
 2805TIP3    H132610   4.742   1.435  17.512  0.3286  0.6926  1.7556
 2805TIP3    H232611   4.646   1.457  17.626 -1.7806 -0.1739  0.2077
 2806TIP3   OH232612   0.060   1.859  17.173 -0.0551  0.1114  0.0999
 2806TIP3    H132613   0.084   1.839  17.083 -1.1798 -1.0650  0.0411
 2806TIP3    H232614   0.142   1.849  17.222 -0.1784 -3.5152 -0.1474
 2807TIP3   OH232615   1.003   4.821  16.952  0.5263 -0.4960  0.1929
 2807TIP3    H132616   0.978   4.900  16.904 -0.4729  0.8206  2.6799
 2807TIP3    H232617   0.943   4.753  16.919  1.0328 -0.1160 -1.5912
 2808TIP3   OH232618   4.920   1.110  18.415 -0.0446  0.6325 -0.0062
 2808TIP3    H132619   4.992   1.066  18.371 -0.8186 -0.0819 -0.5959
 2808TIP3    H232620   4.926   1.080  18.506  0.0525  0.1092 -0.1828
 2809TIP3   OH232621   5.842   1.431  18.653  0.2491 -0.0638 -0.4368
 2809TIP3    H132622   5.925   1.421  18.607  0.6388  1.2113 -0.0512
 2809TIP3    H232623   5.776   1.435  18.583  0.6898  0.5671 -0.8183
 2810TIP3   OH232624   4.511   1.227  18.338 -0.0785 -0.2252  0.3046
 2810TIP3    H132625   4.546   1.151  18.386 -1.5021 -0.0721  1.6735
 2810TIP3    H232626   4.504   1.296  18.404  2.4191  1.6051 -1.1788
 2811TIP3   OH232627   3.051   6.999  19.155 -0.1411 -0.5929  0.7147
 2811TIP3    H132628   3.026   6.941  19.227  1.9722  0.1684  2.1469
 2811TIP3    H232629   3.083   6.939  19.087  1.0261 -1.2186  1.7650
 2812TIP3   OH232630   4.689   5.393  17.432 -0.0621 -0.2233 -0.6090
 2812TIP3    H132631   4.690   5.488  17.419 -3.0906 -0.2741 -2.0886
 2812TIP3    H232632   4.728   5.357  17.353 -1.3617 -0.2184 -1.2715
 2813TIP3   OH232633   3.945   2.618  19.152 -0.2997  0.1252 -0.0460
 2813TIP3    H132634   3.914   2.539  19.108 -2.6253  0.4606  0.8285
 2813TIP3    H232635   3.881   2.685  19.128  0.3418  1.1693  1.0449
 2814TIP3   OH232636   0.104   0.924  16.547 -0.1642  0.5731 -0.1790
 2814TIP3    H132637   0.165   0.980  16.497 -1.5532  1.4646 -0.9459
 2814TIP3    H232638   0.125   0.942  16.639  0.7584  0.8109 -0.4190
 2815TIP3   OH232639   0.565   2.880  17.968  0.1505  0.1771  0.0152
 2815TIP3    H132640   0.583   2.931  17.889 -0.2731 -0.3072 -0.4006
 2815TIP3    H232641   0.490   2.923  18.009  0.5987  0.6477  0.3599
 2816TIP3   OH232642   4.036   4.324  18.167 -0.2192 -0.7583 -0.2909
 2816TIP3    H132643   3.981   4.263  18.118  1.6280 -1.2732 -1.8820
 2816TIP3    H232644   3.997   4.327  18.254 -2.7586 -1.0068 -1.3328
 2817TIP3   OH232645   4.840   5.587  18.702  0.4776  0.4490 -0.9127
 2817TIP3    H132646   4.839   5.593  18.797 -1.2749  0.0166 -0.8539
 2817TIP3    H232647   4.871   5.672  18.672  0.5982  0.7491  0.0470
 2818TIP3   OH232648   7.673   5.110  17.685  0.7696 -0.2161  0.6070
 2818TIP3    H132649   7.758   5.066  17.685  1.6007  1.2970  0.1791
 2818TIP3    H232650   7.674   5.163  17.605 -0.0570  0.7458  1.2104
 2819TIP3   OH232651   6.114   7.099  17.940 -0.4694  0.3777  0.4131
 2819TIP3    H132652   6.114   7.157  17.864 -2.5484 -0.5729 -0.4024
 2819TIP3    H232653   6.114   7.158  18.015  3.5647  1.3627 -0.1360
 2820TIP3   OH232654   5.151   0.286  19.148 -0.6493  0.1784  0.1996
 2820TIP3    H132655   5.148   0.261  19.241 -0.8674 -0.6333 -0.0139
 2820TIP3    H232656   5.243   0.279  19.124 -0.8282 -1.6993 -0.1586
 2821TIP3   OH232657   4.251   2.296  19.370 -0.1507  0.1073  0.5966
 2821TIP3    H132658   4.254   2.325  19.461 -1.3117  0.6842  0.4692
 2821TIP3    H232659   4.172   2.336  19.334  0.4125  0.0958 -0.7408
 2822TIP3   OH232660   1.546   2.306  17.992 -0.7510 -0.1254 -0.1437
 2822TIP3    H132661   1.487   2.319  17.918 -1.0224 -3.2487 -0.5908
 2822TIP3    H232662   1.488   2.303  18.068 -1.1134 -2.0202 -0.4510
 2823TIP3   OH232663   3.441   4.021  18.434  0.7531  0.1319  0.2523
 2823TIP3    H132664   3.423   4.072  18.514  2.5571  1.1668  0.0342
 2823TIP3    H232665   3.535   4.026  18.422  0.6841 -1.1792 -1.2121
 2824TIP3   OH232666   5.785   7.459  17.092  0.4455  0.1702  0.5635
 2824TIP3    H132667   5.736   7.394  17.142  1.5100 -0.5742  0.6716
 2824TIP3    H232668   5.876   7.443  17.115  0.8175  0.9206 -0.3295
 2825TIP3   OH232669   1.530   3.221  17.403 -0.3761 -0.2614  0.0375
 2825TIP3    H132670   1.474   3.164  17.454  0.9643 -0.8404  0.9298
 2825TIP3    H232671   1.615   3.217  17.448 -0.2857  2.6505  0.3099
 2826TIP3   OH232672   6.629   5.236  18.004  0.0644  0.3317  0.3346
 2826TIP3    H132673   6.693   5.244  17.934 -0.2484 -0.4991 -0.0502
 2826TIP3    H232674   6.545   5.233  17.960 -0.1826  0.5303  0.7879
 2827TIP3   OH232675   5.753   3.256  19.170 -0.6047  0.1280  0.5488
 2827TIP3    H132676   5.819   3.241  19.103 -0.7215 -0.4211  0.5584
 2827TIP3    H232677   5.698   3.326  19.134 -1.4967 -1.0990 -0.5423
 2828TIP3   OH232678   0.210   7.000  18.014 -0.1917  0.0732  0.1323
 2828TIP3    H132679   0.147   6.934  18.041 -1.1505  0.6734 -0.5460
 2828TIP3    H232680   0.291   6.951  17.998 -1.0985 -1.0942 -1.1697
 2829TIP3   OH232681   1.634   5.502  18.292 -0.2002 -0.4755  0.0409
 2829TIP3    H132682   1.544   5.504  18.326 -0.3676  0.8126 -0.4417
 2829TIP3    H232683   1.642   5.415  18.252 -2.0242  0.2082 -2.0013
 2830TIP3   OH232684   4.457   6.549  19.020  0.0234  0.6002 -0.2128
 2830TIP3    H132685   4.533   6.554  19.079 -0.1232 -0.6776  0.1227
 2830TIP3    H232686   4.436   6.640  19.000  1.7102  0.9759 -0.4045
 2831TIP3   OH232687   3.143   1.861  19.584  0.0832 -0.1788  0.2650
 2831TIP3    H132688   3.197   1.865  19.664  1.2888 -0.4581 -0.5064
 2831TIP3    H232689   3.176   1.785  19.537  0.1588  0.6405 -1.0382
 2832TIP3   OH232690   5.692   6.487  18.482 -0.2411 -0.7393  0.7030
 2832TIP3    H132691   5.739   6.496  18.399 -1.0750 -1.5751  0.1197
 2832TIP3    H232692   5.757   6.449  18.542  0.2040 -0.6791  0.2685
 2833TIP3   OH232693   2.069   2.316  18.233 -0.7785  0.4757 -0.0559
 2833TIP3    H132694   2.020   2.333  18.313  0.0309  1.1213  0.3239
 2833TIP3    H232695   2.042   2.386  18.173 -1.0213  0.2755 -0.1842
 2834TIP3   OH232696   3.509   2.809  18.490 -0.4064 -0.1385 -0.2122
 2834TIP3    H132697   3.426   2.762  18.495  0.1535 -1.0552  1.2015
 2834TIP3    H232698   3.563   2.755  18.432 -0.1555 -0.6253  0.4625
 2835TIP3   OH232699   5.016   5.555  19.326 -0.5766 -0.1278  0.0401
 2835TIP3    H132700   5.058   5.593  19.249  4.9328 -0.9119  2.1526
 2835TIP3    H232701   5.002   5.463  19.302 -1.8654  0.2936 -0.9325
 2836TIP3   OH232702   5.092   0.581  19.091  0.4462  0.7905  0.3864
 2836TIP3    H132703   5.152   0.508  19.106  0.4430  0.6778 -0.1040
 2836TIP3    H232704   5.006   0.539  19.083  0.3955  0.8829  0.4666
 2837TIP3   OH232705   0.811   4.699  17.846  0.0224 -0.0167 -0.3627
 2837TIP3    H132706   0.725   4.741  17.843 -0.8014 -1.5481  0.5505
 2837TIP3    H232707   0.821   4.660  17.760  0.2771  1.0068 -0.8168
 2838TIP3   OH232708   5.002   5.522  17.142  0.1820 -0.0847  0.4895
 2838TIP3    H132709   4.910   5.499  17.133  0.5215 -0.8726 -1.3533
 2838TIP3    H232710   5.012   5.544  17.235 -2.1175  1.2382  0.5099
 2839TIP3   OH232711   7.602   6.571  17.636 -0.1684  0.0886 -0.0093
 2839TIP3    H132712   7.602   6.634  17.708 -1.6009  1.1295 -0.8819
 2839TIP3    H232713   7.600   6.485  17.679 -0.0171  0.6650  1.1857
 2840TIP3   OH232714   6.796   6.788  18.506  0.0236  0.2452 -0.0830
 2840TIP3    H132715   6.705   6.816  18.502 -0.6557 -1.7071  0.5732
 2840TIP3    H232716   6.796   6.700  18.468  1.1072 -0.9109  2.4065
 2841TIP3   OH232717   0.531   3.712  18.224  0.1498  0.1646  0.6807
 2841TIP3    H132718   0.525   3.730  18.317 -0.7814 -0.7727  0.8214
 2841TIP3    H232719   0.549   3.798  18.184 -1.2845  0.9101  1.5522
 2842TIP3   OH232720   6.657   6.796  16.926 -0.1842 -0.0130 -0.3619
 2842TIP3    H132721   6.606   6.716  16.939  1.0415 -0.9019 -0.8125
 2842TIP3    H232722   6.599   6.866  16.953 -2.4779 -0.7885 -2.8179
 2843TIP3   OH232723   6.597   6.320  19.368 -0.1697 -0.3591  0.1260
 2843TIP3    H132724   6.660   6.392  19.368 -0.5719  0.0030  0.5439
 2843TIP3    H232725   6.541   6.336  19.292  0.5829 -0.9976 -0.5801
 2844TIP3   OH232726   1.179   4.167  19.365  0.0641  0.4438  0.7968
 2844TIP3    H132727   1.092   4.127  19.355  0.9008 -1.3048  0.1329
 2844TIP3    H232728   1.174   4.247  19.312 -0.6682 -0.4338 -0.5344
 2845TIP3   OH232729   2.815   3.732  17.667 -0.0376  0.7419  0.2927
 2845TIP3    H132730   2.867   3.663  17.708  1.9155  1.8233 -0.2680
 2845TIP3    H232731   2.782   3.693  17.586  1.8976  0.7319 -0.5342
 2846TIP3   OH232732   2.863   0.270  19.384 -0.2485  0.1869  0.5138
 2846TIP3    H132733   2.833   0.347  19.336 -0.5736  0.7449  1.5637
 2846TIP3    H232734   2.792   0.206  19.373 -2.0318  1.5355  3.0689
 2847TIP3   OH232735   3.045   0.221  17.202 -0.3141 -0.4543 -0.3751
 2847TIP3    H132736   2.957   0.260  17.203  0.7115  1.9807 -0.3732
 2847TIP3    H232737   3.028   0.126  17.202 -2.9228 -0.0862  0.7275
 2848TIP3   OH232738   5.894   0.018  16.979 -0.3018  0.0439 -0.2646
 2848TIP3    H132739   5.878   0.043  16.889 -0.0593 -0.8371 -0.5601
 2848TIP3    H232740   5.874  -0.076  16.983  0.9201 -0.2239  0.2777
 2849TIP3   OH232741   3.134   4.757  19.055  0.7246 -0.0524 -0.2340
 2849TIP3    H132742   3.132   4.762  19.150 -1.9848 -0.9887 -0.1435
 2849TIP3    H232743   3.227   4.754  19.032  1.5090  2.0017  2.2180
 2850TIP3   OH232744   7.311   4.515  18.594  0.0652 -0.2343  0.0050
 2850TIP3    H132745   7.271   4.577  18.655 -2.8883 -0.4739 -1.4971
 2850TIP3    H232746   7.403   4.543  18.587 -0.2717  1.6441  2.1528
 2851TIP3   OH232747   4.603   1.255  17.882  0.4153  0.4072  0.3186
 2851TIP3    H132748   4.575   1.226  17.796 -0.6611  1.3175  0.3347
 2851TIP3    H232749   4.692   1.289  17.868  0.4162  0.1485 -0.3334
 2852TIP3   OH232750   5.984   4.233  19.410  0.1888  0.2398  0.4566
 2852TIP3    H132751   5.911   4.176  19.436 -2.2732  1.5986 -2.6342
 2852TIP3    H232752   5.969   4.314  19.458 -0.8038  0.7193 -0.5970
 2853TIP3   OH232753   5.298   6.853  18.372  0.3674  0.6893  0.0716
 2853TIP3    H132754   5.362   6.867  18.301  1.2882  0.4722  0.8325
 2853TIP3    H232755   5.343   6.885  18.450 -0.1495 -0.1893  0.7493
 2854TIP3   OH232756   2.473   7.641  19.189 -0.0076  0.0185  0.4312
 2854TIP3    H132757   2.445   7.573  19.250 -1.5782  1.3619  1.2989
 2854TIP3    H232758   2.420   7.627  19.111 -0.1949  0.1324  0.5381
 2855TIP3   OH232759   4.021   3.676  19.147 -0.4197  0.0293  0.3837
 2855TIP3    H132760   4.093   3.617  19.170 -1.0668 -0.5540  0.9363
 2855TIP3    H232761   4.062   3.763  19.144  0.4703 -0.3899 -0.1043
 2856TIP3   OH232762   1.795   4.248  18.319  0.3864  0.2402 -0.2668
 2856TIP3    H132763   1.727   4.182  18.328  1.0926 -0.3156  1.1897
 2856TIP3    H232764   1.748   4.331  18.316 -0.3549 -0.0990  1.1703
 2857TIP3   OH232765   1.856   7.086  17.641 -0.1227 -0.1747 -0.0836
 2857TIP3    H132766   1.919   7.016  17.622  1.5419  1.3775 -0.5942
 2857TIP3    H232767   1.771   7.043  17.636  0.8422 -2.2411  0.0189
 2858TIP3   OH232768   3.325   2.354  18.932  0.2018  0.2530  0.1981
 2858TIP3    H132769   3.252   2.309  18.974 -0.7673  1.6864  0.1120
 2858TIP3    H232770   3.379   2.386  19.004 -1.0012  1.9627  0.4011
 2859TIP3   OH232771   5.960   4.826  17.395 -0.1151  0.5442 -0.0147
 2859TIP3    H132772   6.012   4.821  17.315 -0.5900 -0.9634 -0.2533
 2859TIP3    H232773   5.962   4.737  17.431 -1.3922  0.7711  0.6927
 2860TIP3   OH232774   3.020   0.977  17.873 -0.4861  0.0247  0.1340
 2860TIP3    H132775   3.102   0.948  17.912 -0.0486  2.1384  0.9185
 2860TIP3    H232776   2.979   1.031  17.940 -1.1481  1.3266 -1.2581
 2861TIP3   OH232777   3.220   7.001  18.698 -0.5556 -0.1008 -0.5676
 2861TIP3    H132778   3.313   7.021  18.687 -0.2939 -0.2120  1.2292
 2861TIP3    H232779   3.205   6.925  18.640  0.7360 -0.7763 -0.0590
 2862TIP3   OH232780   4.429   2.468  18.969  0.0612  0.3398 -0.4699
 2862TIP3    H132781   4.374   2.442  18.895  0.5228 -0.0804 -0.6697
 2862TIP3    H232782   4.415   2.400  19.035  0.1541  0.3618 -0.4269
 2863TIP3   OH232783   7.129   2.182  18.573  0.4873 -0.0393 -0.5750
 2863TIP3    H132784   7.110   2.089  18.555  0.3022 -0.3892  1.2545
 2863TIP3    H232785   7.060   2.209  18.633  2.0202  0.5184  0.9998
 2864TIP3   OH232786   1.523   4.338  17.684 -0.2171 -0.2729 -0.4626
 2864TIP3    H132787   1.498   4.247  17.670 -0.0808 -0.2153 -1.0815
 2864TIP3    H232788   1.502   4.354  17.776 -0.1263 -0.9632 -0.3148
 2865TIP3   OH232789   4.517   4.146  17.309 -0.2445 -0.3809  0.0080
 2865TIP3    H132790   4.513   4.211  17.239 -2.7361 -0.6253 -0.1555
 2865TIP3    H232791   4.601   4.101  17.295  0.4584  1.2337 -1.2714
 2866TIP3   OH232792   3.379   4.304  17.199 -0.2305 -0.0180  0.3428
 2866TIP3    H132793   3.423   4.307  17.114  0.2462  0.2860  0.5968
 2866TIP3    H232794   3.291   4.273  17.179 -1.3685  3.5101 -0.7836
 2867TIP3   OH232795   5.137   2.754  17.520  0.2571  0.3651 -0.0360
 2867TIP3    H132796   5.079   2.696  17.568  0.3230  2.0109  2.2064
 2867TIP3    H232797   5.203   2.696  17.481 -1.4586 -1.2890 -0.6353
 2868TIP3   OH232798   3.456   3.129  19.032 -0.1332 -0.3229  0.5039
 2868TIP3    H132799   3.426   3.097  18.947 -0.0030  0.5328  0.1331
 2868TIP3    H232800   3.467   3.049  19.084 -2.7900 -0.7217  0.6066
 2869TIP3   OH232801   4.122   7.107  17.227  0.5397  1.0170 -0.0599
 2869TIP3    H132802   4.152   7.073  17.143 -1.0537 -1.2895  0.2193
 2869TIP3    H232803   4.059   7.175  17.205 -0.7751 -0.3959 -0.8144
 2870TIP3   OH232804   1.364   7.119  18.676 -0.1988 -0.1503 -0.1177
 2870TIP3    H132805   1.440   7.112  18.617  1.1072 -0.4056  1.5132
 2870TIP3    H232806   1.362   7.036  18.722 -0.2798  0.5818  1.2319
 2871TIP3   OH232807   4.544   6.354  17.978 -0.3193  0.7422 -0.0601
 2871TIP3    H132808   4.537   6.409  17.899 -2.5430 -0.6360 -0.8866
 2871TIP3    H232809   4.464   6.303  17.979  1.2814 -1.9418  1.1286
 2872TIP3   OH232810   4.174   3.134  16.412 -0.1871  0.3837 -0.2318
 2872TIP3    H132811   4.212   3.058  16.368 -0.2779 -0.5942  1.2985
 2872TIP3    H232812   4.091   3.150  16.367 -0.4834 -0.8552 -0.1403
 2873TIP3   OH232813   5.839   2.975  17.401 -0.1951 -0.5531 -0.0397
 2873TIP3    H132814   5.832   2.971  17.305  0.1548  0.0953 -0.0971
 2873TIP3    H232815   5.875   3.062  17.419 -0.3335 -0.6391  0.6891
 2874TIP3   OH232816   6.035   3.849  18.414 -0.2756  0.3040 -0.0112
 2874TIP3    H132817   6.094   3.793  18.364 -1.8835 -0.3569 -1.2336
 2874TIP3    H232818   6.031   3.931  18.365 -1.2024 -0.0444 -0.5358
 2875TIP3   OH232819   2.871   1.684  18.599  0.0843 -0.2544  0.2804
 2875TIP3    H132820   2.908   1.764  18.560  0.6047  0.6309  2.4578
 2875TIP3    H232821   2.797   1.662  18.542  0.3577  1.3715 -0.7757
 2876TIP3   OH232822   1.301   0.105  18.521  0.4937  0.5736 -0.2949
 2876TIP3    H132823   1.313   0.028  18.466  1.9175 -0.2731  1.1159
 2876TIP3    H232824   1.207   0.124  18.515  0.2212 -0.8644 -1.1775
 2877TIP3   OH232825   0.762   5.463  16.734  0.3245 -0.6757 -0.0096
 2877TIP3    H132826   0.697   5.416  16.681 -0.0210 -1.2354  0.8803
 2877TIP3    H232827   0.728   5.553  16.739  1.1305 -0.2285 -1.9492
 2878TIP3   OH232828   1.937   3.279  18.725  0.3494 -0.0171 -0.3300
 2878TIP3    H132829   1.880   3.284  18.801  1.1224 -0.5354  0.3097
 2878TIP3    H232830   1.975   3.191  18.729  2.4441  0.8294  0.2332
 2879TIP3   OH232831   7.672   3.148  18.155 -0.1814 -0.5412  0.7369
 2879TIP3    H132832   7.613   3.223  18.148  2.2527  1.4507 -0.3330
 2879TIP3    H232833   7.713   3.157  18.241  1.4675  0.5389 -0.1099
 2880TIP3   OH232834   0.087   7.181  18.180 -0.1400  0.2097  0.3447
 2880TIP3    H132835   0.012   7.206  18.126 -0.9076 -0.7887  0.9274
 2880TIP3    H232836   0.145   7.134  18.120 -0.8693 -0.6673  0.3019
 2881TIP3   OH232837   2.384   6.834  19.547  0.3592 -0.0376 -0.1124
 2881TIP3    H132838   2.372   6.900  19.615  3.4522  1.5142 -0.8654
 2881TIP3    H232839   2.307   6.844  19.490 -0.3218  1.4009  0.9855
 2882TIP3   OH232840   6.283   6.265  19.437  0.3439 -0.0194  0.2832
 2882TIP3    H132841   6.293   6.204  19.364 -0.5405  0.3642 -0.1681
 2882TIP3    H232842   6.373   6.283  19.465  0.7069 -0.0070 -0.8380
 2883TIP3   OH232843   3.835   2.957  18.727  0.3591  0.4544 -0.1749
 2883TIP3    H132844   3.843   2.873  18.771  3.1289  0.7537  0.0147
 2883TIP3    H232845   3.754   2.949  18.675  0.7037 -2.4083 -0.4249
 2884TIP3   OH232846   6.157   1.609  17.133  0.0779  0.2270  0.2272
 2884TIP3    H132847   6.071   1.582  17.100 -1.2587  1.0509  2.7485
 2884TIP3    H232848   6.194   1.530  17.172  0.2207  0.0022 -0.3563
 2885TIP3   OH232849   2.215   2.802  18.832  0.3843  0.3383  0.0766
 2885TIP3    H132850   2.161   2.881  18.820  0.9593  0.9812  1.4737
 2885TIP3    H232851   2.289   2.815  18.773 -0.0955  0.2816 -0.5513
 2886TIP3   OH232852   2.359   3.431  17.578 -0.5313  0.3487 -0.0303
 2886TIP3    H132853   2.447   3.407  17.549 -0.0924  0.4549  1.1650
 2886TIP3    H232854   2.309   3.349  17.573 -0.4365  0.3264 -0.8806
 2887TIP3   OH232855   3.067   4.223  18.592  0.1313 -0.0892  0.4009
 2887TIP3    H132856   3.116   4.259  18.666 -0.6282  2.0474 -0.0443
 2887TIP3    H232857   3.083   4.129  18.596  1.8070  0.1975  2.0199
 2888TIP3   OH232858   4.247   3.414  17.415  0.4163  0.0940  0.1584
 2888TIP3    H132859   4.190   3.463  17.474 -0.9221 -0.5157 -0.5790
 2888TIP3    H232860   4.332   3.458  17.421 -0.5929  2.2062 -0.1036
 2889TIP3   OH232861   4.455   1.639  19.388 -0.6631 -0.3395 -0.4672
 2889TIP3    H132862   4.454   1.713  19.448 -1.0446 -0.6351 -0.1040
 2889TIP3    H232863   4.363   1.621  19.369 -0.7319 -2.0916  1.1964
 2890TIP3   OH232864   1.657   0.170  19.695  0.1707 -0.2801 -0.0411
 2890TIP3    H132865   1.610   0.201  19.618  3.0199 -0.8866 -2.1808
 2890TIP3    H232866   1.708   0.246  19.725  2.6752 -1.1366 -1.7615
 2891TIP3   OH232867   2.531   3.861  19.104 -0.3359  0.4364 -0.3292
 2891TIP3    H132868   2.581   3.915  19.166  1.1761 -0.8346 -0.3755
 2891TIP3    H232869   2.540   3.907  19.020  1.5032 -0.1510 -0.5108
 2892TIP3   OH232870   2.943   4.916  18.290 -0.2499 -0.0700 -0.1049
 2892TIP3    H132871   3.028   4.943  18.254  0.7126 -1.9624  0.6247
 2892TIP3    H232872   2.951   4.935  18.384 -0.8620  0.2454 -0.1135
 2893TIP3   OH232873   0.325   0.894  19.076 -0.1465  0.2151 -0.6275
 2893TIP3    H132874   0.387   0.966  19.064 -0.2922  0.3832 -0.3698
 2893TIP3    H232875   0.241   0.937  19.089  0.0660  0.0651  1.5009
 2894TIP3   OH232876   4.474   4.437  18.322  0.3055  0.0136 -0.0376
 2894TIP3    H132877   4.545   4.394  18.275  0.2897  0.4797 -0.4977
 2894TIP3    H232878   4.406   4.451  18.257 -0.6286 -1.3047  0.6134
 2895TIP3   OH232879   5.509   1.489  18.114 -0.0216  0.3465 -0.2115
 2895TIP3    H132880   5.524   1.425  18.044  0.5990  1.2750 -0.9559
 2895TIP3    H232881   5.551   1.452  18.191 -0.0414 -0.3378 -0.5270
 2896TIP3   OH232882   7.375   4.964  19.747  0.1786  0.1459 -0.2822
 2896TIP3    H132883   7.295   5.011  19.769  0.2487  0.5872 -0.9631
 2896TIP3    H232884   7.356   4.873  19.770 -1.4498 -0.2256 -2.6694
 2897TIP3   OH232885   2.851   3.908  19.072 -0.5392 -0.4510  0.3006
 2897TIP3    H132886   2.875   4.000  19.088 -1.8312 -0.0452  0.0570
 2897TIP3    H232887   2.840   3.871  19.160 -3.3714  0.6008  0.4902
 2898TIP3   OH232888   1.571   5.972  17.496  0.1673  0.8985  0.1350
 2898TIP3    H132889   1.579   5.907  17.426  0.7215 -0.1317  1.1264
 2898TIP3    H232890   1.654   5.969  17.542 -0.9105  0.0037  2.1544
 2899TIP3   OH232891   2.201   3.341  18.662  0.4987 -0.1664 -0.2801
 2899TIP3    H132892   2.112   3.343  18.695  0.6036 -0.3338  0.0207
 2899TIP3    H232893   2.233   3.430  18.673  0.9397 -0.4878  1.2218
 2900TIP3   OH232894   3.619   1.511  17.767 -0.1594 -0.2956 -0.2517
 2900TIP3    H132895   3.708   1.508  17.801 -0.4609  2.3768  1.0234
 2900TIP3    H232896   3.596   1.419  17.752  2.0357 -1.2083  1.3902
 2901TIP3   OH232897   3.393   1.566  18.946  0.4264  0.4582  0.4996
 2901TIP3    H132898   3.436   1.497  18.997  0.3133  1.4128  1.9514
 2901TIP3    H232899   3.384   1.530  18.858  2.1829 -0.5960  0.7267
 2902TIP3   OH232900   6.190   0.244  19.046  0.1170  0.4854  0.0514
 2902TIP3    H132901   6.278   0.250  19.082 -0.1653  1.2645  0.6528
 2902TIP3    H232902   6.135   0.222  19.121 -0.2848  0.6310 -0.1958
 2903TIP3   OH232903   4.662   6.115  18.532  0.1513 -0.0335 -0.8660
 2903TIP3    H132904   4.711   6.186  18.573  1.0242 -0.4195 -1.2172
 2903TIP3    H232905   4.574   6.150  18.520  0.2792  0.6075 -0.0462
 2904TIP3   OH232906   6.625   0.299  19.414 -0.6498 -0.1095 -0.2665
 2904TIP3    H132907   6.639   0.345  19.497 -1.7937  0.6399 -0.4799
 2904TIP3    H232908   6.713   0.270  19.389 -0.2472 -0.1333  1.0743
 2905TIP3   OH232909   6.626   7.297  18.075 -0.0924 -0.3503  0.4435
 2905TIP3    H132910   6.635   7.389  18.050  0.9587 -0.6482 -0.3204
 2905TIP3    H232911   6.595   7.300  18.166  0.4396  0.7540  0.6030
 2906TIP3   OH232912   5.327   4.618  17.555  0.6524 -0.4512 -0.1327
 2906TIP3    H132913   5.234   4.631  17.573  1.4345  2.3332  2.8108
 2906TIP3    H232914   5.337   4.523  17.546 -2.1131 -1.0702  1.9742
 2907TIP3   OH232915   0.769   3.552  19.496  0.5048  0.4121 -0.2270
 2907TIP3    H132916   0.749   3.465  19.528  1.5639  0.4247  0.5183
 2907TIP3    H232917   0.721   3.559  19.413 -3.0125  0.7230  1.6881
 2908TIP3   OH232918   7.075   0.875  19.276 -0.0879 -0.1399 -0.3254
 2908TIP3    H132919   7.117   0.953  19.313 -1.7676  0.7217 -0.1040
 2908TIP3    H232920   7.084   0.809  19.345 -0.1778  0.4064  0.2269
 2909TIP3   OH232921   6.460   6.352  18.824  0.3097 -0.0247 -0.2953
 2909TIP3    H132922   6.495   6.288  18.762 -0.9025  1.7600 -3.0172
 2909TIP3    H232923   6.537   6.382  18.872  1.3905 -1.2192 -1.1877
 2910TIP3   OH232924   0.360   3.014  19.298 -0.3143  0.4825  0.2090
 2910TIP3    H132925   0.351   3.108  19.289  1.9958  0.7219 -0.4140
 2910TIP3    H232926   0.341   2.979  19.211 -2.6079  0.1725  0.7826
 2911TIP3   OH232927   2.037   4.500  17.752 -0.3159 -0.2847  0.2423
 2911TIP3    H132928   1.948   4.466  17.741 -0.8362  1.5233 -1.8538
 2911TIP3    H232929   2.092   4.441  17.700 -0.7965  0.3132 -1.0052
 2912TIP3   OH232930   6.632   2.255  18.725  0.4159 -0.5078 -0.0690
 2912TIP3    H132931   6.623   2.285  18.816  1.7626 -0.9950  0.2391
 2912TIP3    H232932   6.550   2.282  18.683  1.2996  3.1354  0.2799
 2913TIP3   OH232933   6.495   5.446  17.851  0.1810  0.9889  0.5619
 2913TIP3    H132934   6.551   5.482  17.782 -2.0430  1.7332 -0.9973
 2913TIP3    H232935   6.412   5.494  17.841 -1.2263 -1.0571  1.7629
 2914TIP3   OH232936   5.020   0.973  17.653  0.5288 -0.6847  0.1749
 2914TIP3    H132937   5.006   0.904  17.589  0.6165 -1.2126  0.7086
 2914TIP3    H232938   5.101   0.947  17.698  0.6118 -0.1877  0.3163
 2915TIP3   OH232939   3.193   1.651  17.444 -0.1825  0.2745 -0.2918
 2915TIP3    H132940   3.163   1.719  17.385 -0.4026  1.3713  1.0394
 2915TIP3    H232941   3.172   1.683  17.532  0.5780 -1.0707  0.4316
 2916TIP3   OH232942   0.776   3.467  18.319 -0.3178 -0.3093  0.1718
 2916TIP3    H132943   0.703   3.462  18.257 -0.3894 -1.2937  0.3118
 2916TIP3    H232944   0.782   3.378  18.355 -0.1495  0.1998  1.4323
 2917TIP3   OH232945   2.434   3.652  18.237  0.0539  0.5794 -0.0090
 2917TIP3    H132946   2.428   3.725  18.176 -1.1672  2.2442  1.9728
 2917TIP3    H232947   2.348   3.648  18.279  0.4858 -1.2306  0.8091
 2918TIP3   OH232948   0.674   2.725  18.523 -0.0780  0.1196 -0.8011
 2918TIP3    H132949   0.666   2.696  18.432 -0.0735  0.9387 -1.0810
 2918TIP3    H232950   0.743   2.792  18.520  1.7397 -1.5930  0.2566
 2919TIP3   OH232951   6.387   6.490  18.594  0.4559 -0.7868 -0.2626
 2919TIP3    H132952   6.363   6.408  18.552 -1.0786 -0.6474  0.2723
 2919TIP3    H232953   6.452   6.529  18.535  0.8847 -2.1582 -0.7363
 2920TIP3   OH232954   7.105   0.653  19.488 -0.2939  0.2018 -0.4768
 2920TIP3    H132955   7.098   0.572  19.438  0.9244  1.2971 -2.6249
 2920TIP3    H232956   7.198   0.659  19.511 -0.7113  0.0682  1.4114
 2921TIP3   OH232957   0.475   5.543  17.382  0.4770 -0.7939 -0.0573
 2921TIP3    H132958   0.432   5.513  17.302 -0.1328 -1.3669  0.4761
 2921TIP3    H232959   0.564   5.508  17.375  0.1485 -1.6827 -0.0478
 2922TIP3   OH232960   5.538   7.588  19.089 -0.0768 -0.1543 -0.2852
 2922TIP3    H132961   5.485   7.589  19.009  0.7963  0.7110 -0.8819
 2922TIP3    H232962   5.584   7.673  19.088 -1.1330  0.4980  1.8833
 2923TIP3   OH232963   2.903   4.942  17.425 -0.1404  0.1256 -0.9254
 2923TIP3    H132964   2.944   5.027  17.407 -0.6496  0.5261 -0.2498
 2923TIP3    H232965   2.965   4.878  17.389  1.8485  0.6294  1.2999
 2924TIP3   OH232966   2.074   7.664  19.516  0.1913 -0.3206 -0.2215
 2924TIP3    H132967   2.084   7.571  19.534  0.8026 -0.1537  0.3534
 2924TIP3    H232968   1.982   7.675  19.493  0.3301 -1.2183 -1.2398
 2925TIP3   OH232969   3.762   4.597  18.326  0.6982 -0.1945 -0.1712
 2925TIP3    H132970   3.693   4.558  18.272 -0.0718  0.0411  0.6254
 2925TIP3    H232971   3.772   4.686  18.293 -0.1952  0.1450  0.4567
 2926TIP3   OH232972   4.812   4.785  17.992 -0.4588  0.1521 -0.3979
 2926TIP3    H132973   4.725   4.798  17.955 -0.7555  0.0951  0.2586
 2926TIP3    H232974   4.803   4.705  18.045 -0.1286  0.3939  0.0263
 2927TIP3   OH232975   4.480   3.720  18.686 -0.2943 -0.9685 -0.0432
 2927TIP3    H132976   4.540   3.692  18.754 -1.1523  1.7038  2.0159
 2927TIP3    H232977   4.535   3.729  18.608  1.7579  0.1520  1.4318
 2928TIP3   OH232978   7.581   4.625  17.810 -0.5074  0.0986  0.1878
 2928TIP3    H132979   7.505   4.600  17.756 -0.3014  1.9258 -1.0132
 2928TIP3    H232980   7.543   4.646  17.895 -0.8054 -3.1761  1.0036
 2929TIP3   OH232981   6.086   5.625  19.138  0.8131  0.0771 -0.0387
 2929TIP3    H132982   6.139   5.545  19.144  2.1695  0.7550 -1.9844
 2929TIP3    H232983   6.079   5.642  19.044  1.1070  2.5757  0.3179
 2930TIP3   OH232984   3.443   5.088  18.021  0.6000  0.2849  0.3464
 2930TIP3    H132985   3.486   5.110  18.104 -0.4750  0.5558  0.8581
 2930TIP3    H232986   3.454   4.994  18.013 -0.0678  0.1086  1.2804
 2931TIP3   OH232987   6.561   6.258  16.718  0.3821 -0.0267 -0.8999
 2931TIP3    H132988   6.581   6.277  16.810 -0.7149 -0.7577 -0.4844
 2931TIP3    H232989   6.622   6.312  16.669 -0.8609  2.6029  0.2224
 2932TIP3   OH232990   2.238   1.840  19.094 -0.0828 -0.0174 -0.1234
 2932TIP3    H132991   2.191   1.838  19.178 -0.8362  1.9392 -0.4385
 2932TIP3    H232992   2.309   1.903  19.108 -0.6479  0.8731 -1.1393
 2933TIP3   OH232993   3.251   0.792  18.650 -0.6459  0.0657 -0.1447
 2933TIP3    H132994   3.313   0.737  18.603  0.1073  1.9092 -1.4228
 2933TIP3    H232995   3.230   0.743  18.730  1.7242 -1.0158 -0.1238
 2934TIP3   OH232996   0.007   2.113  19.071  0.0707  0.0337 -0.2574
 2934TIP3    H132997   0.093   2.120  19.113 -0.7932 -1.8244  2.0557
 2934TIP3    H232998  -0.022   2.024  19.091 -2.6158  0.7605 -0.4914
 2935TIP3   OH232999   0.093   6.119  19.033  0.3043  0.2751  0.4675
 2935TIP3    H133000   0.025   6.094  19.097 -0.6068 -0.3683 -0.7168
 2935TIP3    H233001   0.111   6.211  19.053  0.3428 -0.0158  1.9097
 2936TIP3   OH233002   4.781   2.641  17.731 -0.2490  0.5247 -0.1598
 2936TIP3    H133003   4.815   2.560  17.768 -0.3438  0.5387 -0.0395
 2936TIP3    H233004   4.686   2.632  17.736 -0.2585  0.9189  0.4698
 2937TIP3   OH233005   6.203   7.040  18.254  0.2987  0.1175 -0.1397
 2937TIP3    H133006   6.116   7.031  18.291 -0.3215  0.7793 -1.3508
 2937TIP3    H233007   6.255   6.971  18.295 -0.1808  1.1185  2.2927
 2938TIP3   OH233008   6.093   0.971  19.145  0.0031 -0.1110 -0.7771
 2938TIP3    H133009   6.084   1.066  19.146 -1.1189 -0.1430 -2.5473
 2938TIP3    H233010   6.186   0.955  19.157  0.1470  1.1732 -0.0139
 2939TIP3   OH233011   3.957   6.126  18.200 -0.1570 -0.3423 -0.0585
 2939TIP3    H133012   3.929   6.133  18.292 -0.9647 -1.6076 -0.1861
 2939TIP3    H233013   3.883   6.160  18.150  0.2548  0.2809 -0.2564
 2940TIP3   OH233014   3.837   3.814  17.507  0.4015 -0.5641 -0.3985
 2940TIP3    H133015   3.891   3.782  17.579  1.2733  0.1219 -0.7350
 2940TIP3    H233016   3.752   3.833  17.548  0.0795 -2.5495 -0.0467
 2941TIP3   OH233017   2.756   4.428  17.954 -0.4446 -0.0265 -0.6403
 2941TIP3    H133018   2.779   4.364  18.022 -1.9905  1.5371  1.5030
 2941TIP3    H233019   2.660   4.435  17.960 -0.5509  0.6696 -2.5681
 2942TIP3   OH233020   1.765   4.314  19.158 -0.3970  0.9321 -0.4840
 2942TIP3    H133021   1.739   4.283  19.245  1.4621  1.4083  0.2967
 2942TIP3    H233022   1.770   4.410  19.167 -0.0467  0.9753 -1.0800
 2943TIP3   OH233023   6.243   4.152  17.226 -0.1877  0.0549 -0.2633
 2943TIP3    H133024   6.234   4.148  17.321 -1.2639  0.4030 -0.3264
 2943TIP3    H233025   6.329   4.115  17.208  0.5485  1.0695  0.9386
 2944TIP3   OH233026   1.766   6.883  19.643 -0.0846 -0.2459 -0.0273
 2944TIP3    H133027   1.833   6.947  19.618 -1.6521  1.2146 -0.6904
 2944TIP3    H233028   1.752   6.900  19.737 -1.3968  1.3477 -0.4626
 2945TIP3   OH233029   6.244   2.903  19.347  0.1822 -0.0433  0.4307
 2945TIP3    H133030   6.275   2.944  19.428  0.6320 -0.4112  0.4486
 2945TIP3    H233031   6.171   2.959  19.319 -0.7520 -0.5775  1.7078
 2946TIP3   OH233032   1.790   1.716  18.788 -0.4043  0.4548  0.0264
 2946TIP3    H133033   1.744   1.632  18.785 -0.2589  0.3644  0.2802
 2946TIP3    H233034   1.842   1.712  18.869 -1.1611  1.1940  0.5614
 2947TIP3   OH233035   5.088   2.353  18.745 -0.1073 -0.2754  0.0698
 2947TIP3    H133036   5.074   2.322  18.835  0.4689  0.5573  0.4611
 2947TIP3    H233037   5.176   2.391  18.747  1.9255 -4.2499 -1.9594
 2948TIP3   OH233038   2.712   6.574  17.391 -0.3629 -0.2516 -0.2075
 2948TIP3    H133039   2.630   6.529  17.412 -0.3328 -0.4700 -0.5467
 2948TIP3    H233040   2.688   6.638  17.324 -0.4253  0.3148  0.3512
 2949TIP3   OH233041   6.476   1.537  17.327  0.2578  0.2639  0.7511
 2949TIP3    H133042   6.459   1.443  17.316  0.8909  0.0757  1.3544
 2949TIP3    H233043   6.480   1.571  17.237  1.4526 -0.5553  0.4669
 2950TIP3   OH233044   3.397   6.597  18.013  0.0266  0.2935 -0.0282
 2950TIP3    H133045   3.356   6.634  18.091  0.5550 -1.1136  0.9531
 2950TIP3    H233046   3.370   6.505  18.014 -0.4848  0.3907 -1.8721
 2951TIP3   OH233047   3.918   7.304  16.836  0.5086 -0.3435 -0.0202
 2951TIP3    H133048   3.888   7.393  16.853 -0.1349 -0.7098  0.8199
 2951TIP3    H233049   3.848   7.264  16.784  0.1376 -0.7784  0.7889
 2952TIP3   OH233050   4.992   7.551  18.869 -0.0949 -0.2094  0.5019
 2952TIP3    H133051   5.049   7.601  18.928 -0.0847  1.2378 -0.6557
 2952TIP3    H233052   4.904   7.567  18.902 -0.1665  1.3609 -0.3595
 2953TIP3   OH233053   4.054   7.218  19.285  0.1798 -0.5295 -0.2637
 2953TIP3    H133054   4.019   7.307  19.286  0.3423 -0.4671 -0.1975
 2953TIP3    H233055   4.084   7.206  19.195  0.9262 -0.2168 -0.0643
 2954TIP3   OH233056   0.013   3.978  19.167 -0.0514 -0.2589  0.5466
 2954TIP3    H133057   0.012   3.956  19.074  0.5450  0.6538  0.3106
 2954TIP3    H233058   0.094   3.940  19.199 -0.4772 -0.9697  0.8074
 2955TIP3   OH233059   0.075   6.802  17.267  0.0984 -0.1387 -0.2814
 2955TIP3    H133060   0.113   6.715  17.281  0.3437  0.0342  0.1416
 2955TIP3    H233061  -0.010   6.785  17.227 -0.0414 -0.5885  0.2088
 2956TIP3   OH233062   0.314   1.117  17.955 -0.1215 -0.1629  0.5786
 2956TIP3    H133063   0.370   1.042  17.934  0.6274  0.7025 -0.6214
 2956TIP3    H233064   0.225   1.084  17.941  0.2600 -0.2516 -2.1287
 2957TIP3   OH233065   0.479   5.269  18.084  0.3296 -0.6058 -0.5604
 2957TIP3    H133066   0.428   5.319  18.020 -0.3419  1.0503  1.1967
 2957TIP3    H233067   0.441   5.182  18.082 -2.2914  0.4390  0.3150
 2958TIP3   OH233068   5.755   2.993  17.135  0.1841 -0.0319  0.0722
 2958TIP3    H133069   5.773   3.087  17.135 -0.7308  0.2219 -2.1827
 2958TIP3    H233070   5.798   2.961  17.056 -3.6790 -0.4847 -2.1196
 2959TIP3   OH233071   0.205   4.637  16.509 -0.3594  0.4369 -0.4974
 2959TIP3    H133072   0.212   4.713  16.566  0.4441  0.3688 -0.4973
 2959TIP3    H233073   0.295   4.604  16.501 -0.4882  0.3244 -1.6270
 2960TIP3   OH233074   2.930   4.451  17.427  0.6264  0.1501 -0.4015
 2960TIP3    H133075   3.011   4.466  17.379  0.8426  0.2455 -0.0075
 2960TIP3    H233076   2.955   4.450  17.519  0.5205 -1.9828 -0.3392
 2961TIP3   OH233077   2.754   0.262  17.524  0.0910  0.3982 -0.3586
 2961TIP3    H133078   2.692   0.334  17.511 -2.4519 -1.6150 -0.3984
 2961TIP3    H233079   2.718   0.191  17.470  1.4350 -1.4466  1.0773
 2962TIP3   OH233080   0.347   1.567  18.269 -0.7740  0.2610  0.0242
 2962TIP3    H133081   0.347   1.505  18.341 -3.1122  1.1335  0.8505
 2962TIP3    H233082   0.334   1.652  18.311 -1.8546  0.8238 -1.3836
 2963TIP3   OH233083   0.679   3.527  19.244  0.0312  0.7328 -0.0051
 2963TIP3    H133084   0.755   3.529  19.187  1.1086  1.7010  1.3890
 2963TIP3    H233085   0.605   3.515  19.185  1.1669  0.7873 -1.4960
 2964TIP3   OH233086   2.823   0.792  17.928 -0.5140  0.2626 -0.2332
 2964TIP3    H133087   2.875   0.859  17.883  1.0558 -1.6350 -1.3478
 2964TIP3    H233088   2.752   0.842  17.969  0.0452  2.4980 -1.7855
 2965TIP3   OH233089   7.362   1.423  18.884  0.5998  0.0723 -0.4431
 2965TIP3    H133090   7.413   1.362  18.937  1.7609  0.4529 -1.0760
 2965TIP3    H233091   7.276   1.382  18.876  0.2379  0.2183  2.0694
 2966TIP3   OH233092   3.866   1.218  16.570 -0.6222  0.5652 -0.7610
 2966TIP3    H133093   3.959   1.221  16.547 -0.4840  1.9346 -0.0877
 2966TIP3    H233094   3.855   1.134  16.614  0.4065  0.5916 -0.4271
 2967TIP3   OH233095   5.845   5.675  17.463  0.2890 -0.5789 -0.0685
 2967TIP3    H133096   5.799   5.752  17.431  0.7958  0.3690  1.3671
 2967TIP3    H233097   5.778   5.607  17.468 -1.4451  1.1102  3.2466
 2968TIP3   OH233098   7.442   2.993  18.399  0.1173  0.0335 -0.3291
 2968TIP3    H133099   7.489   2.914  18.425  0.7982 -0.2234 -2.2064
 2968TIP3    H233100   7.463   3.005  18.306 -0.9594  1.7323 -0.4077
 2969TIP3   OH233101   3.826   2.180  17.786 -0.0334 -0.3494 -0.1964
 2969TIP3    H133102   3.841   2.269  17.818  0.0859  0.0854 -1.4070
 2969TIP3    H233103   3.890   2.169  17.715  0.9059 -1.9052  0.8191
 2970TIP3   OH233104   4.828   3.256  17.993  0.5826  0.4792  0.0279
 2970TIP3    H133105   4.891   3.326  18.009  0.9299  0.0710  0.4693
 2970TIP3    H233106   4.882   3.178  17.980  0.2196  0.3533 -0.8350
 2971TIP3   OH233107   5.720   5.666  19.396 -0.0765  0.0782  0.7481
 2971TIP3    H133108   5.669   5.741  19.426 -1.5716 -0.5656 -0.0678
 2971TIP3    H233109   5.665   5.624  19.330  0.7766 -1.6623  1.0754
 2972TIP3   OH233110   6.848   3.214  18.047 -0.2506  0.1540  0.5531
 2972TIP3    H133111   6.763   3.220  18.004  0.3591  1.1318 -0.5866
 2972TIP3    H233112   6.879   3.126  18.028 -1.1065 -0.3015  1.2047
 2973TIP3   OH233113   1.603   3.760  19.278 -0.7996  0.1368  0.4357
 2973TIP3    H133114   1.631   3.676  19.313  0.9470  1.5941  2.9255
 2973TIP3    H233115   1.668   3.822  19.312 -0.0903  2.1214 -3.9502
 2974TIP3   OH233116   6.210   2.405  19.233  0.7375  0.0546  0.2614
 2974TIP3    H133117   6.204   2.470  19.163  2.7241 -0.1959 -0.1973
 2974TIP3    H233118   6.255   2.450  19.304 -0.3398 -0.0129  1.0149
 2975TIP3   OH233119   7.637   0.136  17.225  0.2751  0.0668 -0.0390
 2975TIP3    H133120   7.654   0.109  17.316 -1.4368  0.1840  0.3448
 2975TIP3    H233121   7.618   0.055  17.179  3.8669 -0.3836 -1.0391
 2976TIP3   OH233122   3.621   1.721  16.886  0.2623 -0.0256  0.4362
 2976TIP3    H133123   3.717   1.716  16.889  0.2863 -0.5170 -0.5620
 2976TIP3    H233124   3.598   1.678  16.803 -0.7685  0.7844  0.2834
 2977TIP3   OH233125   2.150   3.252  17.449 -0.4005  0.4662  0.6798
 2977TIP3    H133126   2.086   3.239  17.379 -0.2113  1.4058  0.3075
 2977TIP3    H233127   2.151   3.170  17.497 -0.4177 -0.2629 -0.5301
 2978TIP3   OH233128   5.281   5.174  17.537 -0.1153 -0.2515 -0.1725
 2978TIP3    H133129   5.186   5.181  17.544  0.0118 -0.0931  2.2451
 2978TIP3    H233130   5.304   5.101  17.594  1.2543 -0.0491 -0.4307
 2979TIP3   OH233131   6.666   3.294  17.847 -0.2722 -0.1964  0.0016
 2979TIP3    H133132   6.635   3.309  17.758 -0.3081  1.5776  0.2653
 2979TIP3    H233133   6.597   3.330  17.903  0.4358  0.1531  0.6854
 2980TIP3   OH233134   4.060   0.307  18.864 -0.1638  0.1147  0.0792
 2980TIP3    H133135   4.130   0.369  18.888  0.0932 -0.5316  1.0263
 2980TIP3    H233136   4.085   0.276  18.777 -0.7801  2.0181 -0.8314
 2981TIP3   OH233137   2.790   6.524  18.921  0.0369 -0.5815 -0.2801
 2981TIP3    H133138   2.796   6.463  18.994  1.2799 -0.4775 -0.2836
 2981TIP3    H233139   2.722   6.488  18.865  0.5862 -1.8320 -0.1615
 2982TIP3   OH233140   5.364   5.294  18.824 -0.4223  0.0118 -0.0706
 2982TIP3    H133141   5.425   5.227  18.856  0.1024  0.0652 -0.9332
 2982TIP3    H233142   5.277   5.257  18.842 -0.1438 -0.9912 -0.6913
 2983TIP3   OH233143   6.315   0.315  16.864 -0.3353  0.0315  0.5441
 2983TIP3    H133144   6.291   0.407  16.851 -1.4854 -0.4642 -1.2009
 2983TIP3    H233145   6.402   0.307  16.824 -0.0332  0.4370  1.1026
 2984TIP3   OH233146   5.038   5.076  17.832 -0.1789 -0.4123  0.1844
 2984TIP3    H133147   5.065   5.007  17.772  0.1754 -0.1451  0.0272
 2984TIP3    H233148   5.034   5.155  17.778 -2.0494 -0.5658  0.0368
 2985TIP3   OH233149   2.535   1.341  17.963 -0.1123 -0.4112 -0.1571
 2985TIP3    H133150   2.545   1.287  18.041  0.4233 -0.5567 -0.3238
 2985TIP3    H233151   2.563   1.428  17.989 -1.0544 -0.1857  0.1347
 2986TIP3   OH233152   4.830   4.525  16.990 -0.1170  0.3872  0.1508
 2986TIP3    H133153   4.739   4.502  16.972 -0.2777  2.6312 -2.4255
 2986TIP3    H233154   4.834   4.620  16.980  2.5279  0.3456  0.1398
 2987TIP3   OH233155   3.887   0.719  17.139 -0.7382  0.3904  0.1990
 2987TIP3    H133156   3.970   0.671  17.151 -2.0516 -2.3894 -0.9214
 2987TIP3    H233157   3.914   0.806  17.112  1.8536 -0.5402 -0.5577
 2988TIP3   OH233158   6.371   7.359  18.777  0.1911  0.0931  0.1150
 2988TIP3    H133159   6.400   7.414  18.850  0.8348  1.5751 -1.1952
 2988TIP3    H233160   6.309   7.413  18.729  0.4924 -0.4898 -0.9681
 2989TIP3   OH233161   5.533   5.910  17.143  0.1715  0.1730 -0.2376
 2989TIP3    H133162   5.451   5.877  17.179 -0.3942  0.0109 -1.6181
 2989TIP3    H233163   5.572   5.835  17.099  0.7950  0.3848 -0.0519
 2990TIP3   OH233164   1.261   7.528  19.270 -0.2545 -0.4235  0.2339
 2990TIP3    H133165   1.314   7.450  19.289  1.8800  0.8331 -0.2003
 2990TIP3    H233166   1.266   7.538  19.175  0.2138  0.7063  0.3670
 2991TIP3   OH233167   3.429   4.806  16.919  0.0145  0.0742 -0.2498
 2991TIP3    H133168   3.419   4.793  16.825  0.3365 -0.7230 -0.1797
 2991TIP3    H233169   3.348   4.774  16.957  0.1604 -0.2504 -0.2051
 2992TIP3   OH233170   0.653   0.601  16.602 -0.1519 -0.2309  0.3705
 2992TIP3    H133171   0.661   0.596  16.698  0.9193  0.9899  0.3690
 2992TIP3    H233172   0.682   0.690  16.580 -1.2469 -0.1760 -1.0173
 2993TIP3   OH233173   1.421   4.157  19.471 -0.4918 -0.4277 -0.3053
 2993TIP3    H133174   1.417   4.212  19.550 -0.1343 -0.8933  0.0437
 2993TIP3    H233175   1.341   4.179  19.423  0.5530  1.8652 -1.1621
 2994TIP3   OH233176   2.610   3.371  17.491  0.0952  0.2713 -0.5403
 2994TIP3    H133177   2.654   3.327  17.563 -2.7760  0.2693  1.3851
 2994TIP3    H233178   2.675   3.431  17.455  2.5109 -1.7804  0.1066
 2995TIP3   OH233179   3.313   4.323  19.412  0.8032 -0.6058  0.2501
 2995TIP3    H133180   3.341   4.300  19.324 -0.3941  0.4143 -0.4316
 2995TIP3    H233181   3.220   4.344  19.403  0.9382  0.7131  1.5216
 2996TIP3   OH233182   6.075   2.403  18.462  0.6696  0.3657  0.2098
 2996TIP3    H133183   6.012   2.471  18.483  0.5041  0.5793 -0.9059
 2996TIP3    H233184   6.115   2.380  18.545 -0.8766  0.2197  0.9457
 2997TIP3   OH233185   5.593   4.654  18.594  0.4543  0.0800  0.0011
 2997TIP3    H133186   5.602   4.591  18.666  0.9942  0.3971  0.2165
 2997TIP3    H233187   5.502   4.646  18.566  0.5720 -0.9774 -0.1376
 2998TIP3   OH233188   1.937   7.286  19.401 -0.1889  0.3041 -0.4532
 2998TIP3    H133189   2.005   7.311  19.338 -0.6964 -0.5541 -1.3593
 2998TIP3    H233190   1.952   7.193  19.417  1.1707  0.8748  2.2541
 2999TIP3   OH233191   2.774   7.645  18.931 -0.2962 -0.1881 -0.3719
 2999TIP3    H133192   2.865   7.618  18.945 -0.0013  0.9064 -0.1280
 2999TIP3    H233193   2.777   7.740  18.929 -1.1687 -0.1600 -2.1709
 3000TIP3   OH233194   4.637   0.260  18.569 -0.1504 -0.2082 -0.0874
 3000TIP3    H133195   4.599   0.253  18.481  2.1394  1.1063 -1.3013
 3000TIP3    H233196   4.718   0.209  18.564  0.5798  0.7987  0.8735
 3001TIP3   OH233197   2.980   1.909  18.460  0.2151  0.0275 -0.6061
 3001TIP3    H133198   2.931   1.936  18.382  1.4109  0.8585 -1.0973
 3001TIP3    H233199   3.068   1.891  18.428  0.9025  0.9954  0.6559
 3002TIP3   OH233200   4.959   7.384  17.853 -0.3170 -0.1219  0.0058
 3002TIP3    H133201   4.897   7.317  17.882 -0.2882 -0.0693  0.1882
 3002TIP3    H233202   4.995   7.349  17.771 -1.6100  0.4732 -0.8516
 3003TIP3   OH233203   4.369   3.365  17.763 -0.1969  0.2833  0.0696
 3003TIP3    H133204   4.409   3.323  17.839  0.8092 -0.4028 -0.8122
 3003TIP3    H233205   4.309   3.299  17.729  0.7678 -0.1616 -0.8290
 3004TIP3   OH233206   3.671   1.501  16.327 -0.0054  0.9108  0.2366
 3004TIP3    H133207   3.754   1.477  16.287 -0.1545 -0.5178  0.7247
 3004TIP3    H233208   3.648   1.426  16.382 -1.5074  1.3582  0.2769
 3005TIP3   OH233209   3.649   0.808  19.536 -0.0060  0.2478  0.3894
 3005TIP3    H133210   3.705   0.756  19.478  0.4049 -0.2657  1.2247
 3005TIP3    H233211   3.574   0.751  19.554 -1.0089  1.0784 -1.0263
 3006TIP3   OH233212   6.658   5.714  19.304  0.7895  0.6524  0.9150
 3006TIP3    H133213   6.617   5.637  19.345 -1.2367  1.3884  0.4011
 3006TIP3    H233214   6.667   5.777  19.376  0.5599  0.6605  0.9370
 3007TIP3   OH233215   0.448   0.622  17.047 -0.5270 -0.2233  0.2358
 3007TIP3    H133216   0.522   0.572  17.013 -1.6353 -0.9588 -1.1801
 3007TIP3    H233217   0.441   0.698  16.990  0.3297  0.9311  1.5841
 3008TIP3   OH233218   0.814   7.408  18.875 -0.7388 -0.5841 -0.3126
 3008TIP3    H133219   0.757   7.423  18.950 -1.3076  0.2303 -0.8886
 3008TIP3    H233220   0.837   7.496  18.844  1.2694 -0.8630  0.2123
 3009TIP3   OH233221   2.580   0.971  17.542  0.5206  0.0768  0.0782
 3009TIP3    H133222   2.527   0.948  17.618  2.4366  0.0436  1.4577
 3009TIP3    H233223   2.562   0.900  17.479 -1.0397  0.0766  0.4849
 3010TIP3   OH233224   7.027   6.105  19.173  0.1881  0.5455  0.2771
 3010TIP3    H133225   6.964   6.094  19.245  0.4230 -0.1476  0.3846
 3010TIP3    H233226   7.050   6.015  19.148 -0.8030  0.7235 -1.4681
 3011TIP3   OH233227   0.381   2.552  18.218 -0.5059 -0.0578  0.2203
 3011TIP3    H133228   0.388   2.534  18.125 -2.2532  0.7722 -0.1221
 3011TIP3    H233229   0.409   2.471  18.261  0.5899 -0.3480 -0.9954
 3012TIP3   OH233230   5.529   2.958  18.768  0.1517  0.0601  0.2279
 3012TIP3    H133231   5.446   2.922  18.737 -0.5716  1.5132  0.3761
 3012TIP3    H233232   5.578   2.980  18.689 -0.5998  1.3366  0.0867
 3013TIP3   OH233233   5.463   1.784  18.360  0.1751 -0.0618 -0.0425
 3013TIP3    H133234   5.448   1.801  18.453 -1.2479  0.3881 -0.3240
 3013TIP3    H233235   5.415   1.703  18.343  0.8534 -0.4138 -0.2792
 3014TIP3   OH233236   1.975   2.258  17.909  0.4511  0.3957  0.2204
 3014TIP3    H133237   1.988   2.352  17.922 -0.5492  0.5507  0.2028
 3014TIP3    H233238   1.912   2.233  17.977 -0.4403  0.0578 -0.6977
 3015TIP3   OH233239   4.948   0.012  17.488  0.5472  0.3074  0.2369
 3015TIP3    H133240   4.948  -0.032  17.403  3.4210  2.1489 -0.8910
 3015TIP3    H233241   4.862   0.053  17.495 -0.6352 -1.8700 -0.5905
 3016TIP3   OH233242   4.322   3.820  18.191  0.1284 -0.1765 -0.5830
 3016TIP3    H133243   4.330   3.726  18.207 -1.6915 -0.2555  0.0505
 3016TIP3    H233244   4.234   3.831  18.156 -0.0573  1.4148  0.3000
 3017TIP3   OH233245   4.360   4.824  18.429 -0.5224 -0.1089 -0.5194
 3017TIP3    H133246   4.381   4.862  18.514 -0.6296 -0.3501 -0.3838
 3017TIP3    H233247   4.357   4.729  18.445  0.8731 -0.2768 -1.0815
 3018TIP3   OH233248   1.928   1.742  18.393  0.4269 -0.0595 -0.1502
 3018TIP3    H133249   1.874   1.685  18.338  1.1392 -0.9515  0.0536
 3018TIP3    H233250   2.017   1.730  18.360  0.7852 -0.1712  0.8369
 3019TIP3   OH233251   0.152   4.511  18.563  0.5647  0.1510  0.3310
 3019TIP3    H133252   0.235   4.487  18.522  0.8974  1.1408  0.3951
 3019TIP3    H233253   0.087   4.455  18.521  0.9079  1.0347 -1.4551
 3020TIP3   OH233254   0.617   6.777  17.721 -0.1765  0.4248 -0.0003
 3020TIP3    H133255   0.554   6.733  17.778  0.4714  0.2161  0.5757
 3020TIP3    H233256   0.662   6.705  17.676  0.8486  0.4797  0.9030
 3021TIP3   OH233257   6.054   4.535  17.665  0.1407  0.2369 -0.9687
 3021TIP3    H133258   6.042   4.581  17.748 -0.6690 -0.2924 -0.7822
 3021TIP3    H233259   6.147   4.513  17.664  0.8116  2.7636 -1.5469
 3022TIP3   OH233260   2.052   2.520  19.695  0.3500 -0.2875  0.5829
 3022TIP3    H133261   2.071   2.492  19.784  0.2515  0.2614  0.7778
 3022TIP3    H233262   2.071   2.443  19.641 -0.7735 -1.0162  1.1925
 3023TIP3   OH233263   3.535   0.378  18.413 -0.0518  0.5987  0.4377
 3023TIP3    H133264   3.525   0.471  18.433  0.8618  1.0311 -0.9688
 3023TIP3    H233265   3.515   0.371  18.320  0.3348 -0.5410  0.4248
 3024TIP3   OH233266   1.878   5.055  18.149 -0.3765  0.1980 -0.7143
 3024TIP3    H133267   1.937   5.019  18.216 -0.7563  1.4226  0.3215
 3024TIP3    H233268   1.931   5.060  18.070  1.8301  3.6317  0.7654
 3025TIP3   OH233269   0.271   5.354  19.663 -0.1297  0.0744  0.2232
 3025TIP3    H133270   0.265   5.289  19.733  0.1454  1.0918  1.2193
 3025TIP3    H233271   0.285   5.302  19.584 -0.0267 -1.0877  0.9728
 3026TIP3   OH233272   4.823   1.776  17.784 -0.4858  0.7330  0.2812
 3026TIP3    H133273   4.820   1.841  17.714  0.6496  0.4402 -0.0675
 3026TIP3    H233274   4.797   1.824  17.863 -2.2300  0.9589 -0.3824
 3027TIP3   OH233275   1.790   3.930  17.819 -0.0295 -0.1987 -0.3701
 3027TIP3    H133276   1.872   3.981  17.821 -0.5053  0.5574  0.9850
 3027TIP3    H233277   1.819   3.839  17.818  0.8427  0.0452  0.5933
 3028TIP3   OH233278   4.875   1.484  17.065  1.1014 -0.2063  0.0969
 3028TIP3    H133279   4.959   1.504  17.108  2.0404 -2.4184 -0.5624
 3028TIP3    H233280   4.852   1.396  17.097 -0.5297 -0.0002 -0.4259
 3029TIP3   OH233281   0.162   4.856  17.546 -0.1396 -0.1084 -0.9040
 3029TIP3    H133282   0.227   4.924  17.563 -0.0826  0.1794 -2.1305
 3029TIP3    H233283   0.085   4.905  17.514 -0.7556 -0.4878 -0.0386
 3030TIP3   OH233284   2.140   1.534  19.409 -0.4543  0.1466 -0.1146
 3030TIP3    H133285   2.073   1.489  19.357  0.0509 -1.0912  0.2565
 3030TIP3    H233286   2.223   1.496  19.379  0.0624  1.3512 -0.2666
 3031TIP3   OH233287   2.461   4.535  18.907  0.4826 -0.2103 -0.5403
 3031TIP3    H133288   2.447   4.517  18.814 -3.5120 -3.9408  0.4302
 3031TIP3    H233289   2.385   4.587  18.933  1.9258  1.4295  0.6120
 3032TIP3   OH233290   4.216   2.021  19.456  1.0370  0.2486  0.1051
 3032TIP3    H133291   4.218   1.977  19.371  0.7821  0.5472 -0.0564
 3032TIP3    H233292   4.244   2.110  19.437 -2.4280  1.3974 -0.3335
 3033TIP3   OH233293   1.540   2.086  18.873  0.1957  0.1673 -0.7624
 3033TIP3    H133294   1.516   2.025  18.803 -1.2404  0.1750 -0.3185
 3033TIP3    H233295   1.556   2.030  18.949 -2.9167  0.2929  0.1621
 3034TIP3   OH233296   4.315   4.561  18.521 -0.3469 -0.3236  0.1684
 3034TIP3    H133297   4.394   4.531  18.477 -0.3133 -0.3616  0.2543
 3034TIP3    H233298   4.245   4.548  18.457 -0.1255  0.7007 -0.3104
 3035TIP3   OH233299   4.723   1.124  19.062 -0.4176  0.1854  0.1378
 3035TIP3    H133300   4.753   1.174  19.138  0.0375 -0.1373  0.1726
 3035TIP3    H233301   4.642   1.083  19.092  1.2143 -2.3335  1.4977
 3036TIP3   OH233302   4.236   7.192  18.837 -0.7374 -0.1164  0.2150
 3036TIP3    H133303   4.161   7.134  18.823  0.1847 -1.4048  0.4458
 3036TIP3    H233304   4.312   7.133  18.842  0.2841  1.1337  0.1281
 3037TIP3   OH233305   6.464   2.822  18.546 -0.1815 -0.4758 -0.0482
 3037TIP3    H133306   6.501   2.770  18.616  1.6034 -0.3846 -0.8755
 3037TIP3    H233307   6.532   2.886  18.524 -0.3817 -0.9169 -2.2784
 3038TIP3   OH233308   5.090   1.876  18.742  0.2507  0.4978  0.3170
 3038TIP3    H133309   5.075   1.901  18.651  0.4280  1.6350  0.5830
 3038TIP3    H233310   5.033   1.933  18.793 -0.8918 -1.0526  0.8810
 3039TIP3   OH233311   7.471   3.217  18.832 -0.4156  0.1696 -0.3135
 3039TIP3    H133312   7.467   3.225  18.737  0.3926  0.0554 -0.3616
 3039TIP3    H233313   7.414   3.143  18.853  0.5399 -0.7264 -0.8416
 3040TIP3   OH233314   0.505   4.374  18.999  0.2033 -0.3868 -0.2897
 3040TIP3    H133315   0.490   4.296  19.053 -1.1790 -0.0155 -0.1024
 3040TIP3    H233316   0.561   4.430  19.053 -0.0105 -0.6245  0.1827
 3041TIP3   OH233317   6.948   3.954  19.141  0.0580  0.5767 -0.6469
 3041TIP3    H133318   6.931   4.000  19.223 -0.9918 -0.1245 -0.4516
 3041TIP3    H233319   6.923   4.016  19.073  0.7888  1.1069 -0.4362
 3042TIP3   OH233320   6.367   3.629  19.266  0.7519 -0.1635 -0.5154
 3042TIP3    H133321   6.282   3.588  19.253  0.6559 -0.3753  0.6371
 3042TIP3    H233322   6.429   3.557  19.262  0.6738 -0.3130  0.5577
 3043TIP3   OH233323   5.690   2.244  16.834  0.3499  0.1719 -0.5411
 3043TIP3    H133324   5.724   2.183  16.900  0.6313 -1.6773 -2.2995
 3043TIP3    H233325   5.742   2.225  16.755  0.2383  2.5252 -1.2464
 3044TIP3   OH233326   1.391   0.565  18.814  0.1430  0.8981 -0.0977
 3044TIP3    H133327   1.464   0.558  18.876 -1.2620 -0.9585  1.4698
 3044TIP3    H233328   1.421   0.518  18.736  1.2601  1.6982 -0.1743
 3045TIP3   OH233329   4.916   3.614  18.762  0.0127  0.2347  0.0261
 3045TIP3    H133330   4.904   3.634  18.670  2.0007  0.7385 -0.1667
 3045TIP3    H233331   4.993   3.557  18.765 -0.0494  0.1799  1.3692
 3046TIP3   OH233332   1.373   1.165  18.459  0.2839 -0.5901 -0.3163
 3046TIP3    H133333   1.337   1.144  18.545 -1.6539  3.1684 -0.0235
 3046TIP3    H233334   1.468   1.171  18.473 -0.1426  2.8295  2.4585
 3047TIP3   OH233335   1.222   2.575  18.684  0.0388  0.1541 -0.2131
 3047TIP3    H133336   1.281   2.511  18.642  0.8904  2.1141 -2.2039
 3047TIP3    H233337   1.271   2.605  18.761  2.0472  2.1256 -2.1017
 3048TIP3   OH233338   0.264   0.411  17.747 -0.1307 -0.2741 -0.2035
 3048TIP3    H133339   0.347   0.451  17.722  0.1056 -0.4304  0.3196
 3048TIP3    H233340   0.235   0.364  17.669 -0.7284  1.4130 -1.0495
 3049TIP3   OH233341   1.038   6.759  18.895 -0.3812  0.1585 -0.1417
 3049TIP3    H133342   1.079   6.674  18.877  0.8196  0.6329  0.2533
 3049TIP3    H233343   1.060   6.813  18.819 -0.0795  0.4878  0.1781
 3050TIP3   OH233344   2.323   7.205  17.174  0.2624  0.4684  0.1365
 3050TIP3    H133345   2.362   7.117  17.172 -0.0451  0.3064 -2.0664
 3050TIP3    H233346   2.251   7.198  17.236 -1.1781 -1.5617 -1.6000
 3051TIP3   OH233347   2.462   5.606  17.393 -0.6832  0.3151 -0.5509
 3051TIP3    H133348   2.504   5.556  17.463  1.9997  2.0140 -0.7988
 3051TIP3    H233349   2.448   5.542  17.323 -0.1334 -0.6799  0.2213
 3052TIP3   OH233350   0.065   7.594  18.816  0.0061 -0.0499 -0.3493
 3052TIP3    H133351   0.103   7.651  18.749 -0.3660  0.2011 -0.3525
 3052TIP3    H233352   0.035   7.517  18.769  0.4050 -0.2028 -0.3638
 3053TIP3   OH233353   2.584   5.161  18.308 -0.0241 -0.3722 -0.1027
 3053TIP3    H133354   2.562   5.068  18.305  0.2458 -0.4336 -0.2183
 3053TIP3    H233355   2.649   5.168  18.378  0.5773 -0.4051 -0.6497
 3054TIP3   OH233356   3.551   1.977  18.401  0.4199  0.1321  0.1957
 3054TIP3    H133357   3.576   1.888  18.426  1.1428 -0.3812 -2.0565
 3054TIP3    H233358   3.621   2.032  18.436  0.7292 -0.3628  0.3724
 3055TIP3   OH233359   6.971   7.610  17.775 -0.0254  0.0289  0.5896
 3055TIP3    H133360   6.904   7.679  17.769 -0.4675 -0.2811  1.6695
 3055TIP3    H233361   6.998   7.594  17.685 -0.7646  0.7946  0.2225
 3056TIP3   OH233362   7.506   5.514  18.154 -0.1521  0.0781 -0.1932
 3056TIP3    H133363   7.560   5.584  18.190 -0.4095  0.2487 -0.1318
 3056TIP3    H233364   7.549   5.433  18.181  0.0264  0.2114 -0.0769
 3057TIP3   OH233365   3.797   5.312  19.117  0.3198  0.0275  0.1842
 3057TIP3    H133366   3.803   5.405  19.093 -0.4525  0.2470  0.7914
 3057TIP3    H233367   3.858   5.302  19.189  1.6603 -0.3337 -0.9595
 3058TIP3   OH233368   4.253   3.907  17.356  0.0674  0.1248 -0.2241
 3058TIP3    H133369   4.215   3.909  17.269  0.7426 -0.7280 -0.5644
 3058TIP3    H233370   4.253   3.998  17.386 -2.5219  0.1220 -0.0470
 3059TIP3   OH233371   6.589   1.079  18.433  0.3244 -0.0573 -0.0593
 3059TIP3    H133372   6.645   1.151  18.402  1.8567 -1.4097 -0.5667
 3059TIP3    H233373   6.548   1.114  18.512  0.1099  1.7784 -0.9166
 3060TIP3   OH233374   5.626   1.305  17.940 -0.2194  0.0792 -0.1727
 3060TIP3    H133375   5.642   1.284  17.848 -1.4525 -0.5240 -0.2695
 3060TIP3    H233376   5.712   1.300  17.981  0.2008 -0.6968 -1.0983
 3061TIP3   OH233377   6.107   5.701  17.573  0.5975  0.5127 -0.3073
 3061TIP3    H133378   6.038   5.698  17.507  0.2280 -0.4479  0.1014
 3061TIP3    H233379   6.186   5.676  17.525  0.6489  1.4770 -0.7448
 3062TIP3   OH233380   6.451   3.785  17.344 -0.5287 -0.0239 -0.3617
 3062TIP3    H133381   6.462   3.836  17.263  0.8459 -2.6118 -1.9840
 3062TIP3    H233382   6.521   3.816  17.401 -0.8783  1.1606 -0.5607
 3063TIP3   OH233383   5.750   1.321  18.224 -0.3834  0.4797  0.9356
 3063TIP3    H133384   5.830   1.279  18.255  1.4023  1.1268 -2.4105
 3063TIP3    H233385   5.681   1.256  18.241  1.4244 -1.6100  0.6845
 3064TIP3   OH233386   5.357   4.611  19.359 -0.0080  0.0424 -0.9409
 3064TIP3    H133387   5.359   4.659  19.441 -1.7654 -0.9165 -0.2909
 3064TIP3    H233388   5.359   4.679  19.291  1.3363  0.8395 -0.1403
 3065TIP3   OH233389   6.251   5.154  18.375  0.4387  0.3035 -0.2029
 3065TIP3    H133390   6.212   5.242  18.375  0.7011  0.4215 -0.2646
 3065TIP3    H233391   6.197   5.104  18.315  0.1510  0.3632  0.0038
 3066TIP3   OH233392   2.301   6.090  18.624  0.0041 -0.3833  0.2113
 3066TIP3    H133393   2.372   6.059  18.680 -0.2605 -1.1740  0.1266
 3066TIP3    H233394   2.240   6.133  18.685  1.2733  1.7202  0.0897
 3067TIP3   OH233395   5.639   2.123  17.447  0.2167 -0.5538  0.4638
 3067TIP3    H133396   5.731   2.110  17.425  0.4716 -0.2782  1.3069
 3067TIP3    H233397   5.602   2.035  17.449  0.2183 -0.6031 -0.8308
 3068TIP3   OH233398   3.641   6.509  18.972 -0.1489 -0.2467  0.2531
 3068TIP3    H133399   3.675   6.450  19.040 -3.2550 -1.0556  1.2803
 3068TIP3    H233400   3.608   6.451  18.904 -0.4350  0.4078 -0.1749
 3069TIP3   OH233401   0.922   5.600  18.692 -0.6275  0.4144  0.1660
 3069TIP3    H133402   0.842   5.577  18.646  0.2428  0.0470 -1.2122
 3069TIP3    H233403   0.896   5.673  18.750 -1.9761  0.1820 -0.1089
 3070TIP3   OH233404   4.569   0.949  17.718  0.1321  0.5979  0.0642
 3070TIP3    H133405   4.658   0.914  17.727  0.3478  0.8094 -1.0108
 3070TIP3    H233406   4.580   1.028  17.665 -0.4769  1.7440  1.5848
 3071TIP3   OH233407   3.212   4.300  18.826 -0.7388 -0.6459 -0.1600
 3071TIP3    H133408   3.276   4.231  18.845  1.5795  1.5828  0.5303
 3071TIP3    H233409   3.206   4.351  18.906 -0.2240  1.6188 -1.4933
 3072TIP3   OH233410   6.887   3.267  17.379  0.1803  0.5209 -0.4436
 3072TIP3    H133411   6.968   3.302  17.417  1.0374 -0.1708 -1.5656
 3072TIP3    H233412   6.911   3.244  17.289 -0.5977 -1.9530 -0.0898
 3073TIP3   OH233413   4.575   2.413  19.344  0.7885  0.2435  0.1914
 3073TIP3    H133414   4.653   2.425  19.291 -0.3681  1.6986 -1.3057
 3073TIP3    H233415   4.503   2.440  19.286 -0.7297 -0.1571  1.8144
 3074TIP3   OH233416   4.061   0.668  18.386  0.3412 -0.3984  0.2522
 3074TIP3    H133417   4.062   0.574  18.372  1.2487 -0.4365  0.4913
 3074TIP3    H233418   4.132   0.683  18.450  0.5451  0.4971 -0.1726
 3075TIP3   OH233419   1.367   4.141  18.369  0.1487  0.0411  0.3204
 3075TIP3    H133420   1.346   4.128  18.277  0.3470  0.2097  0.2504
 3075TIP3    H233421   1.343   4.058  18.411  0.8752 -0.3521 -0.0268
 3076TIP3   OH233422   5.913   0.331  17.974  0.2713 -0.3278  0.3025
 3076TIP3    H133423   5.893   0.408  17.919 -0.9164 -1.0710 -0.3340
 3076TIP3    H233424   5.862   0.260  17.935  1.9176 -1.6393  0.4312
 3077TIP3   OH233425   1.690   4.244  18.627 -1.0593  0.1291 -0.0129
 3077TIP3    H133426   1.612   4.277  18.581 -0.5908  2.1061  0.5267
 3077TIP3    H233427   1.686   4.286  18.713 -0.2567 -1.0688  0.6329
 3078TIP3   OH233428   1.318   1.334  18.924  0.7595 -0.1730  0.4707
 3078TIP3    H133429   1.294   1.386  19.001  0.6728  0.6423 -0.0890
 3078TIP3    H233430   1.397   1.286  18.951  1.3141  0.8666  0.7557
 3079TIP3   OH233431   3.005   1.492  18.764 -0.0506 -0.2326 -0.0494
 3079TIP3    H133432   2.951   1.558  18.721  1.7919  1.3857 -0.0350
 3079TIP3    H233433   3.040   1.438  18.693 -1.3734 -1.0865 -0.0802
 3080TIP3   OH233434   4.271   4.636  16.811  0.0510  0.2123  0.2786
 3080TIP3    H133435   4.349   4.597  16.772 -0.8202  1.1484 -2.6620
 3080TIP3    H233436   4.205   4.567  16.808 -0.0164  0.2846  0.0741
 3081TIP3   OH233437   4.116   3.320  16.615 -0.2293 -0.3257 -0.0046
 3081TIP3    H133438   4.030   3.312  16.656 -1.3026  1.9700 -1.6526
 3081TIP3    H233439   4.108   3.272  16.533  0.6400 -1.4376  0.5151
 3082TIP3   OH233440   0.310   6.044  19.527 -0.3050 -0.0001 -0.8321
 3082TIP3    H133441   0.401   6.068  19.505 -0.2687 -0.5525 -1.2723
 3082TIP3    H233442   0.302   6.067  19.620  0.4966 -0.5703 -0.6117
 3083TIP3   OH233443   4.495   1.882  19.217  0.5638 -0.1223  0.2330
 3083TIP3    H133444   4.564   1.911  19.157 -0.0881 -1.3201 -1.1615
 3083TIP3    H233445   4.506   1.787  19.223 -0.7626 -0.3025  0.2059
 3084TIP3   OH233446   4.675   6.887  18.580  0.0429  0.1220  0.8271
 3084TIP3    H133447   4.725   6.824  18.527 -1.6438 -0.1785 -0.4973
 3084TIP3    H233448   4.736   6.913  18.649  2.1721  0.0551 -0.8867
 3085TIP3   OH233449   1.197   4.579  17.721  0.0067  0.5012 -0.0591
 3085TIP3    H133450   1.158   4.596  17.635  0.1710  2.4594  0.2079
 3085TIP3    H233451   1.287   4.609  17.713 -0.3427  2.0265  1.1596
 3086TIP3   OH233452   6.842   0.625  19.532 -0.1747  0.5383  0.9879
 3086TIP3    H133453   6.935   0.637  19.552 -0.2214 -0.6340  2.0855
 3086TIP3    H233454   6.840   0.589  19.443  0.6478 -1.9924  1.9053
 3087TIP3   OH233455   0.205   4.337  18.179 -0.3871  0.9110 -0.0340
 3087TIP3    H133456   0.159   4.419  18.193  0.1799  1.3079 -0.4666
 3087TIP3    H233457   0.256   4.350  18.099  0.9971  0.7194  0.7688
 3088TIP3   OH233458   7.024   7.300  17.695 -0.8429 -0.3925  0.0656
 3088TIP3    H133459   7.028   7.387  17.656 -0.9881 -0.4423 -0.0647
 3088TIP3    H233460   7.088   7.301  17.765  0.2345 -0.6607 -0.8850
 3089TIP3   OH233461   1.760   1.041  17.795  0.6238 -0.6461 -0.1845
 3089TIP3    H133462   1.818   1.117  17.797 -0.3446  0.1003  1.2493
 3089TIP3    H233463   1.736   1.032  17.702  1.5595  0.1522 -0.5265
 3090TIP3   OH233464   1.965   1.785  19.005  0.8804  0.3088  0.0173
 3090TIP3    H133465   1.935   1.809  19.093 -0.7859  0.3199 -0.5312
 3090TIP3    H233466   2.052   1.824  18.999  0.6883  1.0093  1.3744
 3091TIP3   OH233467   6.721   3.911  18.058 -0.3603  0.2306  0.2789
 3091TIP3    H133468   6.679   3.936  18.140  0.5354  0.9310  0.5506
 3091TIP3    H233469   6.693   3.820  18.043  0.5465 -0.4135  2.1057
 3092TIP3   OH233470   5.622   5.765  16.934 -1.0627 -0.3685  0.4432
 3092TIP3    H133471   5.531   5.749  16.907 -0.4582  0.1917 -2.2070
 3092TIP3    H233472   5.661   5.813  16.860  1.9599 -2.4009  0.5534
 3093TIP3   OH233473   5.695   5.021  17.927  0.0909 -0.1653 -0.2462
 3093TIP3    H133474   5.748   4.942  17.934 -0.3933 -0.8095 -2.7103
 3093TIP3    H233475   5.757   5.093  17.937  0.5994 -0.8233  1.6348
 3094TIP3   OH233476   6.875   0.116  18.808 -0.0970 -0.1415  0.1048
 3094TIP3    H133477   6.802   0.170  18.837 -0.1318 -0.7469  1.1939
 3094TIP3    H233478   6.847   0.026  18.825  0.1871 -0.4909 -1.1581
 3095TIP3   OH233479   0.683   7.610  16.894  0.2016  0.5262  0.2884
 3095TIP3    H133480   0.754   7.546  16.885 -1.5671 -1.4004 -0.7967
 3095TIP3    H233481   0.728   7.692  16.912  2.7413 -0.5348 -0.6538
 3096TIP3   OH233482   1.521   1.677  17.983 -0.4162  0.4626 -0.0687
 3096TIP3    H133483   1.507   1.649  17.893  2.4124 -3.2122  0.4200
 3096TIP3    H233484   1.435   1.665  18.026 -1.2324  0.1007 -1.7377
 3097TIP3   OH233485   7.447   5.152  18.907 -0.0420 -0.0347 -0.0583
 3097TIP3    H133486   7.392   5.118  18.978 -0.0871 -0.5163 -0.3175
 3097TIP3    H233487   7.388   5.155  18.832  0.3466 -0.7935 -0.4005
 3098TIP3   OH233488   4.214   4.773  17.337  0.5198 -0.0745 -0.0567
 3098TIP3    H133489   4.194   4.710  17.268 -1.1926  0.7119 -0.3390
 3098TIP3    H233490   4.179   4.733  17.416 -0.3162  0.3704 -0.1890
 3099TIP3   OH233491   4.815   5.375  17.974 -0.3442  0.0388 -0.0328
 3099TIP3    H133492   4.799   5.379  17.880 -1.5811  1.3046  0.1893
 3099TIP3    H233493   4.873   5.450  17.991 -0.5605  0.1395  0.2754
 3100TIP3   OH233494   0.399   3.855  18.787  0.3951  0.4227  0.2556
 3100TIP3    H133495   0.491   3.850  18.762 -0.0194 -1.4233 -1.1086
 3100TIP3    H233496   0.365   3.932  18.742  0.5902 -0.6611 -1.8780
 3101TIP3   OH233497   6.325   3.312  18.640 -0.3052 -0.5934  0.3229
 3101TIP3    H133498   6.372   3.255  18.700  1.3527  0.1942 -0.1722
 3101TIP3    H233499   6.235   3.314  18.674  0.1804 -1.5448  1.7308
 3102TIP3   OH233500   3.020   5.756  17.344  0.0382  0.2114  0.3613
 3102TIP3    H133501   2.987   5.795  17.425  1.6854  2.8072 -0.0968
 3102TIP3    H233502   3.114   5.774  17.345  0.3235 -0.8929 -1.5168
 3103TIP3   OH233503   3.359   1.207  17.179  0.1511 -1.0607  0.6468
 3103TIP3    H133504   3.289   1.182  17.118  1.1674 -0.8011 -0.6566
 3103TIP3    H233505   3.328   1.288  17.218 -1.0397 -1.8310  1.3827
 3104TIP3   OH233506   2.576   0.634  19.357  0.5764  0.8932  0.4213
 3104TIP3    H133507   2.595   0.709  19.413 -0.8673  1.9018 -0.3645
 3104TIP3    H233508   2.480   0.627  19.358  0.5076  0.8284 -1.7125
 3105TIP3   OH233509   6.161   5.304  18.058 -0.0089  0.1503 -0.7391
 3105TIP3    H133510   6.152   5.342  17.970  1.4556  0.5541 -0.7474
 3105TIP3    H233511   6.216   5.367  18.105  0.5229 -0.8340 -0.0210
 3106TIP3   OH233512   0.970   7.676  18.083  0.2808  0.4395 -0.0337
 3106TIP3    H133513   0.968   7.612  18.154  1.5640 -1.5531 -1.6720
 3106TIP3    H233514   1.059   7.710  18.085 -0.2194  1.7748  0.4379
 3107TIP3   OH233515   0.513   7.566  16.485 -0.1459 -0.4160  0.3577
 3107TIP3    H133516   0.496   7.659  16.504 -1.2735 -0.4669 -0.3391
 3107TIP3    H233517   0.589   7.567  16.426 -1.4612  0.2241 -1.3996
 3108TIP3   OH233518   0.040   0.125  17.770  0.2359  0.0100 -0.1104
 3108TIP3    H133519   0.101   0.063  17.810 -2.2616 -2.7577 -0.2356
 3108TIP3    H233520   0.020   0.087  17.684 -2.6005  0.0012  0.4417
 3109TIP3   OH233521   0.168   6.130  18.191 -0.2090  0.0773  0.2607
 3109TIP3    H133522   0.210   6.082  18.263 -0.4811  0.0330  0.3914
 3109TIP3    H233523   0.233   6.197  18.166 -0.0413 -0.0212  0.4288
 3110TIP3   OH233524   2.913   7.417  17.930  0.5015  0.3623  0.1713
 3110TIP3    H133525   2.841   7.373  17.885 -0.8811  1.8545  0.8617
 3110TIP3    H233526   2.991   7.395  17.878 -0.5354 -0.7049 -0.9832
 3111TIP3   OH233527   3.795   1.385  18.879 -0.4069 -0.7006 -0.0643
 3111TIP3    H133528   3.821   1.435  18.956 -2.4526  0.3175  0.0546
 3111TIP3    H233529   3.796   1.294  18.907  1.1670 -0.5517  0.4204
 3112TIP3   OH233530   0.473   6.160  18.250 -0.2571  0.0663  0.4109
 3112TIP3    H133531   0.497   6.085  18.195  0.1986  1.2086 -0.9884
 3112TIP3    H233532   0.538   6.161  18.320  1.2917  0.6322 -0.9886
 3113TIP3   OH233533   7.432   1.588  18.327 -0.0840 -0.1822 -0.4089
 3113TIP3    H133534   7.466   1.509  18.370 -0.5408 -0.6240 -0.8538
 3113TIP3    H233535   7.386   1.556  18.250 -0.5913  0.4938 -0.3996
 3114TIP3   OH233536   3.243   4.746  18.369 -0.1308  0.0878 -0.1369
 3114TIP3    H133537   3.236   4.838  18.344  0.9633  0.6909  1.6067
 3114TIP3    H233538   3.333   4.737  18.401 -0.7033 -1.2063  1.1759
 3115TIP3   OH233539   5.733   3.743  16.861  0.2861  0.7305  0.7485
 3115TIP3    H133540   5.738   3.711  16.771 -0.4434  0.1765  0.8983
 3115TIP3    H233541   5.824   3.756  16.887  0.4958  1.2526 -0.1894
 3116TIP3   OH233542   0.663   6.012  17.130 -0.3069  0.4563 -0.3597
 3116TIP3    H133543   0.610   6.024  17.209  0.4797  2.0078 -0.0209
 3116TIP3    H233544   0.615   6.057  17.061 -0.4010  0.1357 -0.5080
 3117TIP3   OH233545   2.713   4.237  18.520  0.7695 -0.2061  0.0320
 3117TIP3    H133546   2.635   4.212  18.472  1.1526 -1.1677 -0.0994
 3117TIP3    H233547   2.729   4.165  18.581  1.4677  0.0424  0.1583
 3118TIP3   OH233548   7.152   4.168  18.290 -0.4851  0.0433  0.2679
 3118TIP3    H133549   7.241   4.139  18.269 -0.5747  1.0162 -1.7780
 3118TIP3    H233550   7.096   4.100  18.252 -0.6178  0.9746 -1.3285
 3119TIP3   OH233551   3.075   5.836  17.995 -0.4842 -0.3368 -0.3067
 3119TIP3    H133552   3.107   5.815  18.083  1.4812  0.1612 -0.8514
 3119TIP3    H233553   3.070   5.752  17.950  2.5328 -0.3011 -0.9396
 3120TIP3   OH233554   1.523   6.942  17.300  0.2633  0.0265  0.3738
 3120TIP3    H133555   1.528   6.912  17.209 -1.0653  1.6177 -0.2801
 3120TIP3    H233556   1.553   7.033  17.297 -2.0258  0.8893  1.0332
 3121TIP3   OH233557   3.467   7.126  18.707  0.3007  0.0163  0.1778
 3121TIP3    H133558   3.536   7.069  18.671  0.2904 -0.1431  0.4047
 3121TIP3    H233559   3.502   7.215  18.697  0.3905 -0.0411 -0.0257
 3122TIP3   OH233560   1.514   1.858  17.755  0.5985  0.1271  0.0203
 3122TIP3    H133561   1.501   1.845  17.661  0.6225 -0.3585  0.0844
 3122TIP3    H233562   1.555   1.945  17.762 -0.8439  0.8652 -0.3119
 3123TIP3   OH233563   3.668   1.691  18.621  0.0596  0.0230  0.6435
 3123TIP3    H133564   3.586   1.727  18.590  0.4252 -0.4774 -1.0004
 3123TIP3    H233565   3.706   1.760  18.675  0.4378  1.8879 -1.8499
 3124TIP3   OH233566   2.989   4.733  18.719  0.0826 -0.6272  0.4007
 3124TIP3    H133567   2.976   4.675  18.644  1.2483 -3.5064  2.2362
 3124TIP3    H233568   3.030   4.677  18.785  1.6121  2.4403  2.2503
 3125TIP3   OH233569   1.096   7.009  16.560  1.2228 -0.5611  0.2037
 3125TIP3    H133570   1.014   7.019  16.512  1.2983  1.3519  0.4111
 3125TIP3    H233571   1.164   7.026  16.495  1.4897 -1.8745  0.0970
 3126TIP3   OH233572   3.971   2.498  16.751  0.3247 -0.1255  0.1432
 3126TIP3    H133573   3.986   2.557  16.678  2.1623 -1.0617 -0.2824
 3126TIP3    H233574   3.877   2.481  16.749  0.2828  0.1506 -1.7662
 3127TIP3   OH233575   7.625   0.469  19.741  0.3663 -0.0605 -0.2146
 3127TIP3    H133576   7.603   0.530  19.670  0.1254 -0.7721 -0.7690
 3127TIP3    H233577   7.570   0.393  19.724  0.5606 -0.3760  0.5498
 3128TIP3   OH233578   3.666   3.083  18.427 -0.4303  0.2582 -0.3251
 3128TIP3    H133579   3.660   2.987  18.431 -1.1025  0.2653 -0.9820
 3128TIP3    H233580   3.577   3.113  18.449 -0.1804  0.7402  0.0524
 3129TIP3   OH233581   0.738   5.425  17.346 -0.4929 -0.1298  0.0052
 3129TIP3    H133582   0.781   5.436  17.261  0.3753 -2.0325  0.1337
 3129TIP3    H233583   0.802   5.456  17.410 -0.7172  0.2998  0.0232
 3130TIP3   OH233584   0.516   1.179  18.937 -0.2980  0.0489  0.1640
 3130TIP3    H133585   0.548   1.180  18.847 -1.3951 -0.6185 -0.2522
 3130TIP3    H233586   0.421   1.192  18.929 -0.2150  1.8347  1.3456
 3131TIP3   OH233587   7.386   5.850  19.284 -0.3230 -0.0612  0.0080
 3131TIP3    H133588   7.460   5.892  19.328 -1.7147  2.4637  0.1704
 3131TIP3    H233589   7.351   5.789  19.349  0.0191  0.7119  0.9446
 3132TIP3   OH233590   6.111   4.309  18.932  0.2522  0.1483 -0.3129
 3132TIP3    H133591   6.111   4.234  18.991 -0.3157  0.0631 -0.4106
 3132TIP3    H233592   6.171   4.285  18.862  1.3215  0.4576  0.4771
 3133TIP3   OH233593   3.059   4.378  19.289  0.4167  0.0312 -0.2526
 3133TIP3    H133594   2.999   4.447  19.317 -0.5922 -0.5157 -0.9900
 3133TIP3    H233595   3.080   4.399  19.198  0.2107 -0.5333 -0.4411
 3134TIP3   OH233596   7.019   6.431  18.456  0.2375 -0.0205 -0.2152
 3134TIP3    H133597   7.095   6.456  18.508 -0.1055 -1.0301  0.8091
 3134TIP3    H233598   6.951   6.413  18.520 -0.2617 -1.0848 -1.0061
 3135TIP3   OH233599   4.963   7.068  18.613 -0.2518  0.1541 -0.8649
 3135TIP3    H133600   4.892   7.052  18.675  0.3994 -0.0308 -0.1576
 3135TIP3    H233601   5.007   6.984  18.605  1.5931  0.8807  0.8557
 3136TIP3   OH233602   4.505   3.080  18.009  0.1053  0.1704  0.2406
 3136TIP3    H133603   4.417   3.085  17.972  0.1924  0.1907  0.0353
 3136TIP3    H233604   4.527   3.170  18.032  0.7304  0.4275 -1.2534
 3137TIP3   OH233605   1.786   3.269  17.795  0.1431 -0.3230  0.0740
 3137TIP3    H133606   1.809   3.260  17.887 -1.4442 -1.6979  0.3792
 3137TIP3    H233607   1.700   3.311  17.795  0.1945 -0.1991 -0.7767
 3138TIP3   OH233608   1.939   4.351  18.541 -0.3450 -0.5045  0.0408
 3138TIP3    H133609   2.002   4.340  18.469 -1.0594  1.9981 -1.0691
 3138TIP3    H233610   1.866   4.294  18.517  0.7195 -2.1121  0.4642
 3139TIP3   OH233611   3.592   6.134  19.878  0.0488  0.5300 -0.0796
 3139TIP3    H133612   3.659   6.121  19.811 -1.1522 -0.8114 -1.0754
 3139TIP3    H233613   3.576   6.228  19.877  2.4419  1.0202  0.7568
 3140TIP3   OH233614   0.463   4.099  17.757 -0.0012 -0.2649 -0.4475
 3140TIP3    H133615   0.372   4.102  17.784  0.0487  0.7394 -0.3823
 3140TIP3    H233616   0.510   4.066  17.834 -0.1631  0.3566 -0.0766
 3141TIP3   OH233617   7.276   4.900  19.232  0.2676  0.0503  0.1862
 3141TIP3    H133618   7.350   4.951  19.266 -1.6271  1.7224  2.1332
 3141TIP3    H233619   7.225   4.964  19.182 -1.1527 -0.4047  1.0131
 3142TIP3   OH233620   3.147   3.819  19.132  0.5462 -0.3914  0.8648
 3142TIP3    H133621   3.176   3.729  19.152 -1.0304 -0.5074  3.0650
 3142TIP3    H233622   3.080   3.808  19.065  0.1810 -0.9185  1.2992
 3143TIP3   OH233623   3.920   3.612  18.838  0.5887  0.5582 -0.1657
 3143TIP3    H133624   3.924   3.531  18.786 -1.0839  0.7588 -0.6682
 3143TIP3    H233625   3.946   3.585  18.926 -0.3137 -0.6129 -0.2416
 3144TIP3   OH233626   5.810   4.473  18.162  0.1347 -0.3110  0.6214
 3144TIP3    H133627   5.787   4.555  18.204  1.6234  0.7596 -0.5476
 3144TIP3    H233628   5.900   4.484  18.134  0.2331 -2.1874  0.0285
 3145TIP3   OH233629   5.556   4.694  17.910  0.4304 -0.0433  0.2750
 3145TIP3    H133630   5.463   4.700  17.932  0.5516  0.7141  0.5995
 3145TIP3    H233631   5.570   4.600  17.894 -0.3586 -0.1820  0.3298
 3146TIP3   OH233632   2.644   6.316  18.820  0.2977 -0.3286 -0.0680
 3146TIP3    H133633   2.578   6.319  18.751 -1.2162 -1.2330  1.2792
 3146TIP3    H233634   2.603   6.266  18.891  1.9981  0.0900  1.2816
 3147TIP3   OH233635   0.620   2.983  17.723 -0.6987  0.3035 -0.1572
 3147TIP3    H133636   0.647   2.893  17.704  0.7896  0.5354  0.7383
 3147TIP3    H233637   0.581   3.014  17.642 -1.5887 -1.2675 -0.3708
 3148TIP3   OH233638   1.176   0.453  19.022  0.3638 -0.0387  0.3930
 3148TIP3    H133639   1.198   0.389  19.090 -1.2400  0.2456  1.2195
 3148TIP3    H233640   1.258   0.465  18.973  1.3001 -0.9753  1.6625
 3149TIP3   OH233641   0.905   7.429  17.519  0.2769 -0.4530  0.1731
 3149TIP3    H133642   0.975   7.471  17.468 -0.2715  0.4458  0.1374
 3149TIP3    H233643   0.951   7.388  17.593  0.9330 -0.6386 -0.3248
 3150TIP3   OH233644   0.596   4.004  18.222  0.0027  0.2672  0.1079
 3150TIP3    H133645   0.599   4.093  18.187  0.4202  0.5430  0.8257
 3150TIP3    H233646   0.678   3.964  18.194  1.0184  0.9512  1.9144
 3151TIP3   OH233647   0.670   7.647  18.596 -0.3149 -0.1402 -0.0735
 3151TIP3    H133648   0.754   7.625  18.636  0.0637 -0.6970 -1.1250
 3151TIP3    H233649   0.693   7.683  18.511 -1.1034  0.9055  0.1404
 3152TIP3   OH233650   3.957   7.283  17.109 -0.4105  0.8371  0.0514
 3152TIP3    H133651   3.869   7.261  17.141 -0.4085  0.1527 -0.3890
 3152TIP3    H233652   3.950   7.275  17.014  0.0341  1.1532 -0.0101
 3153TIP3   OH233653   2.010   3.379  17.669  0.4028  0.0244  0.7953
 3153TIP3    H133654   1.937   3.333  17.711 -0.1210  0.9690  0.9545
 3153TIP3    H233655   2.080   3.376  17.735  0.3421 -0.4505  0.8430
 3154TIP3   OH233656   6.952   7.087  17.283 -0.4176  0.0871  0.3392
 3154TIP3    H133657   7.003   7.081  17.203 -1.3565  0.4720 -0.3007
 3154TIP3    H233658   6.873   7.035  17.265 -0.4294 -0.2070  1.1836
 3155TIP3   OH233659   5.940   1.178  18.359 -0.7294  0.1306  0.0385
 3155TIP3    H133660   5.946   1.251  18.420 -0.4758 -0.1766  0.3896
 3155TIP3    H233661   6.030   1.165  18.328 -0.6696 -0.4136  0.4367
 3156TIP3   OH233662   4.858   1.492  19.479  0.3951 -0.3467  0.2318
 3156TIP3    H133663   4.865   1.516  19.387  1.4589 -2.0408 -0.1853
 3156TIP3    H233664   4.946   1.509  19.514  0.2145 -0.4309  0.7279
 3157TIP3   OH233665   0.418   6.183  18.603 -0.0014 -0.3922 -0.2792
 3157TIP3    H133666   0.332   6.168  18.564  0.9565  0.2517 -2.8257
 3157TIP3    H233667   0.403   6.253  18.667 -1.6578 -1.5755  0.7190
 3158TIP3   OH233668   3.867   1.740  19.200  0.4203  0.0333  0.4328
 3158TIP3    H133669   3.924   1.679  19.154  0.8444 -0.0881  1.1029
 3158TIP3    H233670   3.825   1.688  19.268  0.0075  0.2645  0.3554
 3159TIP3   OH233671   2.971   3.907  17.878 -0.4121 -0.2064  0.1298
 3159TIP3    H133672   3.009   3.855  17.807 -0.9164 -0.4688  0.0554
 3159TIP3    H233673   3.047   3.931  17.932 -0.0956 -0.4708 -0.1875
 3160TIP3   OH233674   5.133   7.528  19.521  0.9454 -0.4139  0.4981
 3160TIP3    H133675   5.079   7.457  19.487  0.8591 -0.3411  0.4828
 3160TIP3    H233676   5.220   7.512  19.485  1.2958 -1.3605  1.6814
 3161TIP3   OH233677   3.030   0.330  18.989 -0.2694  0.0190  0.4609
 3161TIP3    H133678   2.998   0.417  18.967  0.0527  0.6403  2.2900
 3161TIP3    H233679   2.951   0.274  18.987 -1.0150  0.9451  2.0461
 3162TIP3   OH233680   7.072   6.062  16.889  0.4136 -0.1579 -0.1996
 3162TIP3    H133681   7.167   6.066  16.876  0.3346 -2.0393 -1.8684
 3162TIP3    H233682   7.053   6.131  16.952  2.9243  0.0907  0.3768
 3163TIP3   OH233683   5.883   0.540  18.952 -0.6562  0.0385  0.5022
 3163TIP3    H133684   5.902   0.620  19.000  0.4118  0.5697 -0.7564
 3163TIP3    H233685   5.938   0.474  18.994  1.7271  0.8997 -1.1074
 3164TIP3   OH233686   2.809   1.711  18.948 -0.6340  0.0248 -0.0693
 3164TIP3    H133687   2.790   1.670  19.032  0.7801 -3.7700 -1.4154
 3164TIP3    H233688   2.900   1.690  18.930 -0.4243  2.0511 -1.9401
 3165TIP3   OH233689   6.492   7.583  18.913 -0.2390  0.5168 -0.0338
 3165TIP3    H133690   6.579   7.575  18.874 -0.9410  1.1540 -1.8057
 3165TIP3    H233691   6.504   7.552  19.003  1.6597 -0.0500 -0.4296
 3166TIP3   OH233692   4.973   0.974  18.645  0.2829 -0.2278 -0.0123
 3166TIP3    H133693   4.961   1.011  18.732  2.6123 -1.3238  0.8535
 3166TIP3    H233694   4.906   0.905  18.639 -0.1710  0.1359  0.7311
 3167TIP3   OH233695   1.975   6.945  17.422 -0.0631  0.1130 -0.1231
 3167TIP3    H133696   1.883   6.923  17.434  0.2599 -0.7001  1.0228
 3167TIP3    H233697   2.019   6.861  17.409  0.2782  0.6155 -2.6532
 3168TIP3   OH233698   4.361   0.067  18.255  0.7272  0.8141  0.1772
 3168TIP3    H133699   4.302   0.139  18.232  1.6611  1.2525 -0.9514
 3168TIP3    H233700   4.354   0.060  18.351 -0.8082  1.1260  0.1143
 3169TIP3   OH233701   2.452   2.484  18.687 -0.3070  0.6679  0.1509
 3169TIP3    H133702   2.456   2.580  18.682  0.8209  0.5788 -1.6638
 3169TIP3    H233703   2.535   2.459  18.727 -0.4992  0.4293  0.4045
 3170TIP3   OH233704   1.397   0.449  17.296 -0.7397  0.0395 -0.2549
 3170TIP3    H133705   1.386   0.380  17.231 -0.0337 -0.7726  0.4508
 3170TIP3    H233706   1.443   0.406  17.368  1.8842  1.7876 -0.7455
 3171TIP3   OH233707   6.249   2.912  18.402 -0.4942 -0.3897  0.3389
 3171TIP3    H133708   6.319   2.894  18.465 -2.3971 -1.3335  2.3154
 3171TIP3    H233709   6.224   3.003  18.418  2.1003  0.9935 -2.4204
 3172TIP3   OH233710   7.601   4.984  17.424 -0.2991 -0.0545  0.5003
 3172TIP3    H133711   7.549   4.979  17.504 -0.5114 -2.2926  0.3066
 3172TIP3    H233712   7.553   4.929  17.361  1.9180 -1.7445  0.1279
 3173TIP3   OH233713   4.137   4.577  18.320 -0.0071 -0.0714  0.0984
 3173TIP3    H133714   4.053   4.572  18.367 -1.1571  2.0179 -1.5300
 3173TIP3    H233715   4.137   4.500  18.263 -0.5852 -0.3634  0.4815
 3174TIP3   OH233716   3.365   3.977  19.145  0.2599  0.2166 -0.0046
 3174TIP3    H133717   3.327   3.998  19.230 -0.0949 -0.1447 -0.0679
 3174TIP3    H233718   3.319   3.897  19.117  1.0091 -0.1833 -0.1191
 3175TIP3   OH233719   7.363   5.206  16.998 -0.2947 -0.2082  0.0756
 3175TIP3    H133720   7.387   5.113  16.993  1.3777  0.2169 -0.3557
 3175TIP3    H233721   7.280   5.207  17.046 -0.7773 -1.9897 -0.6322
 3176TIP3   OH233722   2.858   3.817  19.316  0.4499  0.1613  0.7280
 3176TIP3    H133723   2.899   3.895  19.353  0.8795  1.0426 -1.4524
 3176TIP3    H233724   2.792   3.792  19.381  0.8960  1.8219  1.8896
 3177TIP3   OH233725   4.613   3.898  18.186 -0.1621 -0.0566 -0.6704
 3177TIP3    H133726   4.529   3.874  18.147 -0.4119 -0.1549 -0.0870
 3177TIP3    H233727   4.651   3.962  18.126  1.2595 -2.9993 -3.1752
 3178TIP3   OH233728   2.136   5.002  19.054  0.1807  0.5457  0.0293
 3178TIP3    H133729   2.049   4.963  19.044  0.2672  0.0984  0.9094
 3178TIP3    H233730   2.138   5.074  18.991 -0.1896 -0.5124 -1.2290
 3179TIP3   OH233731   0.261   2.599  19.375  0.0304 -0.1976 -0.2613
 3179TIP3    H133732   0.221   2.623  19.291 -1.3688 -1.5009 -0.0114
 3179TIP3    H233733   0.221   2.515  19.397  0.9828 -0.2665  1.3310
 3180TIP3   OH233734   0.653   4.551  19.165 -0.5776  0.0710 -0.3281
 3180TIP3    H133735   0.703   4.512  19.237  1.3305 -1.4886 -2.3532
 3180TIP3    H233736   0.689   4.639  19.156 -0.2026 -0.0383  0.0548
 3181TIP3   OH233737   0.463   7.249  16.904  0.3512  0.3583 -0.4198
 3181TIP3    H133738   0.393   7.303  16.941  0.5826  0.0890  0.4446
 3181TIP3    H233739   0.466   7.273  16.812 -2.4752 -1.2957 -1.0511
 3182TIP3   OH233740   1.024   2.312  18.965 -0.4687 -0.1545  0.1731
 3182TIP3    H133741   0.983   2.228  18.984  2.2550 -1.0572  2.8401
 3182TIP3    H233742   1.108   2.289  18.926 -0.1822  1.3855 -0.1674
 3183TIP3   OH233743   0.003   5.943  18.070 -0.2793 -0.5789 -0.4842
 3183TIP3    H133744  -0.033   5.880  18.133 -0.3094  0.4657  0.5798
 3183TIP3    H233745   0.056   6.002  18.123  0.0157  0.1014 -1.5105
 3184TIP3   OH233746   1.368   7.246  17.731 -0.7007 -0.5824  0.4674
 3184TIP3    H133747   1.364   7.282  17.643  0.2548 -0.6599  0.3819
 3184TIP3    H233748   1.306   7.173  17.731 -1.4158  0.0248  0.1518
 3185TIP3   OH233749   3.097   4.024  17.473 -0.5298  0.2232 -0.5843
 3185TIP3    H133750   3.017   4.076  17.464 -0.0327  0.7981 -1.8858
 3185TIP3    H233751   3.080   3.943  17.426 -1.5082 -1.1373  1.9100
 3186TIP3   OH233752   5.045   3.820  17.622 -0.2583  0.1260  0.2852
 3186TIP3    H133753   5.059   3.780  17.536 -0.3369 -0.6146  0.6118
 3186TIP3    H233754   4.957   3.857  17.616  0.2184  1.2064 -0.3761
 3187TIP3   OH233755   0.369   1.189  18.220  0.1375 -0.4499  0.2698
 3187TIP3    H133756   0.362   1.284  18.228 -0.0692 -0.5159  0.9311
 3187TIP3    H233757   0.353   1.172  18.127  2.3684  0.3439 -0.3339
 3188TIP3   OH233758   3.786   4.299  18.288 -0.4618 -0.1075  0.0902
 3188TIP3    H133759   3.806   4.260  18.203 -0.7095  0.6001 -0.3034
 3188TIP3    H233760   3.724   4.370  18.268 -0.2985  0.2519  0.8225
 3189TIP3   OH233761   0.207   6.907  17.492 -0.3002 -0.5960  0.7266
 3189TIP3    H133762   0.253   6.838  17.444  0.7400  1.1853 -0.9988
 3189TIP3    H233763   0.129   6.925  17.439  0.1895  0.4904  0.3274
 3190TIP3   OH233764   6.309   2.170  19.058  0.5475  0.3324  0.0729
 3190TIP3    H133765   6.346   2.214  18.981  0.1232  0.9961  0.2415
 3190TIP3    H233766   6.263   2.239  19.105  2.6829  0.4827  2.1532
 3191TIP3   OH233767   5.863   7.537  19.316 -0.3142 -0.5253  0.5794
 3191TIP3    H133768   5.799   7.499  19.256  0.0120 -0.7027  0.3403
 3191TIP3    H233769   5.933   7.472  19.321 -0.0379 -0.2248  0.6451
 3192TIP3   OH233770   1.643   6.177  19.400 -0.2018 -0.2668 -0.5535
 3192TIP3    H133771   1.703   6.226  19.456 -1.0429  0.1994 -0.0393
 3192TIP3    H233772   1.691   6.097  19.379 -0.3169 -1.0927  1.9286
 3193TIP3   OH233773   2.143   7.654  19.182 -0.0501  0.4673 -0.0307
 3193TIP3    H133774   2.057   7.666  19.143 -1.3144 -0.1086  2.4093
 3193TIP3    H233775   2.137   7.572  19.230  2.3760 -0.3794 -1.0037
 3194TIP3   OH233776   7.253   1.802  18.303  0.7237  0.7007 -0.3962
 3194TIP3    H133777   7.306   1.727  18.329 -1.1106 -1.7768 -3.0403
 3194TIP3    H233778   7.312   1.858  18.253  1.4070 -0.8247 -1.3569
 3195TIP3   OH233779   5.933   4.499  19.045  0.3213 -0.2274 -0.1262
 3195TIP3    H133780   5.863   4.507  18.980 -1.0683 -0.3192  1.2721
 3195TIP3    H233781   5.986   4.425  19.016 -0.1349 -0.1269 -1.2499
 3196TIP3   OH233782   2.274   7.115  19.597  1.0554 -0.4978 -0.2615
 3196TIP3    H133783   2.288   7.103  19.503  2.2393  0.6514 -0.2635
 3196TIP3    H233784   2.312   7.201  19.617  1.2920 -0.9331  1.3606
 3197TIP3   OH233785   0.767   5.079  19.003 -0.0328  0.3755 -0.1957
 3197TIP3    H133786   0.787   5.102  19.094  1.1285  1.6333 -0.7381
 3197TIP3    H233787   0.823   5.004  18.985 -1.2929 -0.7878  0.5198
 3198TIP3   OH233788   6.218   0.643  18.747  0.3477  0.3818  0.1297
 3198TIP3    H133789   6.162   0.570  18.718  0.6930 -0.1567  0.8043
 3198TIP3    H233790   6.193   0.716  18.689 -0.5615 -0.0401 -0.0333
 3199TIP3   OH233791   6.441   2.624  16.511  0.6100  0.5842  0.3261
 3199TIP3    H133792   6.399   2.707  16.534  0.3637  0.9347 -1.3004
 3199TIP3    H233793   6.531   2.647  16.489  0.4991  0.4447 -0.2840
 3200TIP3   OH233794   7.132   3.325  18.592 -0.3867 -0.5008 -0.4695
 3200TIP3    H133795   7.042   3.305  18.567 -1.2993  2.0263  0.5269
 3200TIP3    H233796   7.129   3.416  18.622  2.3919 -0.5431  0.1565
 3201TIP3   OH233797   5.029   5.934  17.422 -0.1658  0.1302  0.2163
 3201TIP3    H133798   4.992   5.958  17.507  0.7750 -1.0678  0.9918
 3201TIP3    H233799   5.049   5.841  17.430  2.3973  0.5595 -0.3508
 3202TIP3   OH233800   6.268   3.746  18.315  0.1147  0.1481  0.1242
 3202TIP3    H133801   6.304   3.833  18.331  0.2708  0.1072 -0.0024
 3202TIP3    H233802   6.306   3.719  18.231 -0.9740  0.5167 -0.5112
 3203TIP3   OH233803   7.310   5.550  17.955 -0.3848 -0.1922  0.5811
 3203TIP3    H133804   7.396   5.540  17.996 -0.6098 -0.2776  1.0389
 3203TIP3    H233805   7.325   5.527  17.863 -0.1975 -1.5554  0.9317
 3204TIP3   OH233806   2.313   1.367  18.894  0.0799 -0.3070  0.2921
 3204TIP3    H133807   2.405   1.344  18.887 -0.0527 -1.4329  1.6534
 3204TIP3    H233808   2.307   1.456  18.860  1.3862 -0.7609 -1.2476
 3205TIP3   OH233809   6.324   6.067  19.264 -0.0304  0.1675 -0.3534
 3205TIP3    H133810   6.392   6.011  19.300  0.8989  0.8176 -1.0659
 3205TIP3    H233811   6.254   6.006  19.238  1.7420 -0.9372 -2.9388
 3206TIP3   OH233812   1.735   6.205  18.126  0.2019 -0.3244 -0.5366
 3206TIP3    H133813   1.648   6.228  18.095  0.8441  0.9219 -1.5484
 3206TIP3    H233814   1.720   6.146  18.199 -1.5758  1.8134  0.9639
 3207TIP3   OH233815   2.282   0.597  19.689  0.5194  0.1052 -0.9779
 3207TIP3    H133816   2.285   0.566  19.598  1.6243 -3.5237  0.1373
 3207TIP3    H233817   2.370   0.631  19.706  1.0235 -1.3277 -0.6483
 3208TIP3   OH233818   0.587   5.773  17.874 -0.6294  0.0201  0.5860
 3208TIP3    H133819   0.531   5.802  17.802 -1.2836 -1.4254  0.4954
 3208TIP3    H233820   0.635   5.698  17.839  0.4570  0.4635  1.0699
 3209TIP3   OH233821   1.687   2.942  16.645  0.3665  0.2056  0.3010
 3209TIP3    H133822   1.686   2.980  16.557  1.7695  0.3931  0.3482
 3209TIP3    H233823   1.602   2.898  16.653  0.6335 -0.7424 -1.5570
 3210TIP3   OH233824   3.121   7.266  17.808  0.0097 -0.2449 -0.1173
 3210TIP3    H133825   3.064   7.293  17.736 -1.5438  1.4398  1.6288
 3210TIP3    H233826   3.085   7.182  17.837 -1.7669  0.8257  1.0076
 3211TIP3   OH233827   1.574   0.417  17.888 -0.3019  0.0425  0.1094
 3211TIP3    H133828   1.626   0.360  17.831 -1.3159  0.1718 -1.0026
 3211TIP3    H233829   1.487   0.416  17.848 -0.5443  1.7275  0.5290
 3212TIP3   OH233830   1.359   2.171  17.753 -0.0567 -0.0326 -0.1604
 3212TIP3    H133831   1.421   2.240  17.730  0.0535  0.1604  0.6658
 3212TIP3    H233832   1.285   2.218  17.793 -0.7096 -0.2655 -1.0491
 3213TIP3   OH233833   2.200   7.308  18.942  0.8300 -0.1467  0.0309
 3213TIP3    H133834   2.200   7.379  18.878  1.4573  1.1532  1.3752
 3213TIP3    H233835   2.280   7.258  18.922 -0.2473 -1.2754 -1.6921
 3214TIP3   OH233836   6.336   0.576  18.460 -0.0742  0.2196  0.5232
 3214TIP3    H133837   6.403   0.508  18.450  1.5547  1.6348  1.2596
 3214TIP3    H233838   6.346   0.606  18.550 -1.0276  1.1585  0.3296
 3215TIP3   OH233839   3.809   7.401  19.233 -0.3839 -0.3602  0.1250
 3215TIP3    H133840   3.761   7.441  19.305 -0.5345 -0.5424  0.1258
 3215TIP3    H233841   3.742   7.355  19.181 -0.2250 -0.5470  0.0819
 3216TIP3   OH233842   5.442   1.075  18.005 -0.8109 -0.3625  0.6323
 3216TIP3    H133843   5.366   1.034  17.962  0.3834 -0.9822 -0.9724
 3216TIP3    H233844   5.444   1.164  17.969 -1.8042  0.2933  2.0742
 3217TIP3   OH233845   4.497   4.975  18.256  0.0429  0.4624  0.4480
 3217TIP3    H133846   4.455   4.907  18.309  0.4833 -0.1457  0.0217
 3217TIP3    H233847   4.535   5.035  18.321 -0.4430  0.3702  0.8265
 3218TIP3   OH233848   3.794   3.234  18.823 -0.5153 -0.5629 -0.0846
 3218TIP3    H133849   3.786   3.224  18.918  0.5349  1.9354  0.3418
 3218TIP3    H233850   3.799   3.144  18.790  0.6897 -1.4958  2.3901
 3219TIP3   OH233851   4.014   0.901  19.163  0.0757  0.2803 -0.8197
 3219TIP3    H133852   4.084   0.849  19.125  1.4989 -0.6339  2.6520
 3219TIP3    H233853   4.056   0.982  19.191 -0.3856  0.0737  0.5529
 3220TIP3   OH233854   1.528   7.153  18.427  1.1357  0.3564  0.0101
 3220TIP3    H133855   1.622   7.168  18.424  1.2634 -0.5133 -0.8580
 3220TIP3    H233856   1.512   7.085  18.361 -0.2804  1.4366 -0.8148
 3221TIP3   OH233857   0.569   3.783  16.787 -0.1026 -0.2210  0.1525
 3221TIP3    H133858   0.549   3.690  16.783 -0.0449 -0.2431  0.3518
 3221TIP3    H233859   0.495   3.825  16.743  0.3128 -0.4118 -0.7408
 3222TIP3   OH233860   4.599   1.227  20.024 -0.6326 -0.2106 -0.4058
 3222TIP3    H133861   4.628   1.280  19.950 -0.8470  0.8650  0.2538
 3222TIP3    H233862   4.656   1.253  20.096 -0.4066 -1.2650 -0.1810
 3223TIP3   OH233863   6.036   5.535  18.605 -0.3139 -0.2657  0.5868
 3223TIP3    H133864   6.040   5.450  18.647 -1.1272 -1.3280 -1.3660
 3223TIP3    H233865   6.119   5.542  18.558 -0.4727 -0.2189  0.3120
 3224TIP3   OH233866   5.585   0.998  19.208 -0.1497 -0.2102 -0.6835
 3224TIP3    H133867   5.592   0.952  19.125 -2.3370  0.1951 -1.1605
 3224TIP3    H233868   5.600   1.090  19.186  0.0248 -0.1967 -0.5063
 3225TIP3   OH233869   3.248   2.549  18.129  0.1628  0.1213  0.9184
 3225TIP3    H133870   3.179   2.589  18.182  0.3947  0.6172  0.8479
 3225TIP3    H233871   3.252   2.459  18.160 -1.6469 -0.3991 -0.2076
 3226TIP3   OH233872   3.896   1.494  18.648 -0.3453 -0.5247  0.1555
 3226TIP3    H133873   3.877   1.453  18.732  0.4589  0.4370  0.8396
 3226TIP3    H233874   3.811   1.523  18.615 -0.5174  0.4268  1.3704
 3227TIP3   OH233875   6.890   3.020  18.972  0.2277 -0.3824  0.0885
 3227TIP3    H133876   6.956   2.955  18.997  0.9432  0.3797  0.2123
 3227TIP3    H233877   6.940   3.091  18.932 -0.4483  0.5261  0.8196
 3228TIP3   OH233878   4.807   6.416  18.380 -0.7438  0.0291  0.2985
 3228TIP3    H133879   4.732   6.378  18.335 -1.3896  1.2314  0.3076
 3228TIP3    H233880   4.809   6.372  18.465 -1.7542  0.3348  0.4908
 3229TIP3   OH233881   2.135   3.565  17.407 -0.4751  0.4934  0.2326
 3229TIP3    H133882   2.190   3.547  17.330  0.7051 -0.8793  1.3327
 3229TIP3    H233883   2.117   3.478  17.443 -4.2755  0.7712 -0.6165
 3230TIP3   OH233884   1.258   0.829  19.016  1.0283  0.0645  0.0762
 3230TIP3    H133885   1.287   0.781  18.939  2.8170  0.8342  0.2297
 3230TIP3    H233886   1.221   0.761  19.074  1.2620 -0.7534 -0.7187
 3231TIP3   OH233887   6.458   3.103  18.775 -0.6363  0.0226  0.7156
 3231TIP3    H133888   6.510   3.085  18.696 -0.5112 -0.3125  0.8741
 3231TIP3    H233889   6.522   3.102  18.846 -0.4055  2.2339  0.6187
 3232TIP3   OH233890   4.396   7.201  16.689  0.5645 -0.4397  0.2452
 3232TIP3    H133891   4.329   7.238  16.747 -0.6580  0.9168 -1.8899
 3232TIP3    H233892   4.350   7.135  16.638  0.8268  0.4336 -1.1830
 3233TIP3   OH233893   7.264   5.629  19.427 -0.3174  0.5820  0.1455
 3233TIP3    H133894   7.202   5.593  19.490 -1.6051 -0.2163 -1.5038
 3233TIP3    H233895   7.289   5.554  19.373 -0.9256  1.5974 -1.6363
 3234TIP3   OH233896   5.693   6.123  18.265 -0.2936  0.1632 -0.4636
 3234TIP3    H133897   5.763   6.140  18.328 -0.4834 -0.2077 -0.1473
 3234TIP3    H233898   5.618   6.100  18.319 -0.9560  1.5796 -0.7519
 3235TIP3   OH233899   3.764   0.570  18.782  0.2057 -0.5691  0.2701
 3235TIP3    H133900   3.820   0.641  18.815  0.5111 -0.5134 -0.3633
 3235TIP3    H233901   3.758   0.509  18.856 -1.1179  0.7131  1.2919
 3236TIP3   OH233902   1.006   3.698  16.957 -0.0341 -0.4777  0.0683
 3236TIP3    H133903   0.966   3.762  16.898 -0.9021 -0.6498  0.4552
 3236TIP3    H233904   0.932   3.652  16.997  0.5174 -0.2070  1.4718
 3237TIP3   OH233905   4.734   3.964  17.265  0.4339 -0.8612  0.2415
 3237TIP3    H133906   4.756   3.926  17.349  2.4850  1.7894  1.0354
 3237TIP3    H233907   4.813   4.010  17.237 -1.1270  0.9195 -1.6407
 3238TIP3   OH233908   4.793   5.869  19.230  0.0670 -0.3989 -0.1969
 3238TIP3    H133909   4.733   5.795  19.227 -1.2089  0.4126  2.3225
 3238TIP3    H233910   4.876   5.832  19.259 -0.9688 -0.7131  2.5847
 3239TIP3   OH233911   0.797   4.357  18.847  0.3004  0.3875  0.0301
 3239TIP3    H133912   0.824   4.274  18.886 -0.5579  1.3340  2.8765
 3239TIP3    H233913   0.858   4.422  18.883  0.0620  1.2113 -1.0026
 3240TIP3   OH233914   4.951   4.163  17.244  0.5497  0.5332  0.2291
 3240TIP3    H133915   4.897   4.242  17.254  0.0327  0.4122 -1.2352
 3240TIP3    H233916   5.002   4.180  17.164 -0.1749 -0.9187 -0.5757
 3241TIP3   OH233917   0.008   4.214  17.168  0.3233 -0.1029 -0.1690
 3241TIP3    H133918  -0.087   4.203  17.169  0.5621 -4.0154 -1.8952
 3241TIP3    H233919   0.030   4.232  17.077  1.2705  1.0007  0.2461
 3242TIP3   OH233920   3.795   5.485  17.608  0.2671 -0.7141  0.3182
 3242TIP3    H133921   3.877   5.451  17.573  0.1798  0.4570 -1.1289
 3242TIP3    H233922   3.734   5.483  17.534 -0.6950 -0.5269  1.0770
 3243TIP3   OH233923   2.434   7.541  18.435 -0.1993 -0.5287 -0.6109
 3243TIP3    H133924   2.470   7.539  18.523 -1.1224  0.4187 -0.1938
 3243TIP3    H233925   2.502   7.583  18.382 -0.2866  0.3934 -0.0209
 3244TIP3   OH233926   0.242   4.609  17.486  0.0040  0.0164  0.3970
 3244TIP3    H133927   0.198   4.599  17.402 -1.3885 -2.1606  1.2835
 3244TIP3    H233928   0.198   4.682  17.529 -1.3129 -0.7230  0.3668
 3245TIP3   OH233929   1.205   6.824  18.485 -0.5717  0.2186  0.3855
 3245TIP3    H133930   1.286   6.854  18.525  0.1156 -0.2726 -0.6194
 3245TIP3    H233931   1.151   6.903  18.480 -0.2303  0.5194  1.1951
 3246TIP3   OH233932   4.987   4.140  17.548 -0.0265  0.0344  0.5300
 3246TIP3    H133933   5.011   4.231  17.566 -1.1057  0.1373  1.6019
 3246TIP3    H233934   4.994   4.131  17.453  0.0419  1.2528  0.4119
 3247TIP3   OH233935   2.805   1.474  16.819  0.2788 -0.3444 -0.5826
 3247TIP3    H133936   2.766   1.387  16.816 -1.0676  0.1504  0.8410
 3247TIP3    H233937   2.778   1.515  16.737 -1.7837 -0.2320  0.0929
 3248TIP3   OH233938   3.192   3.649  17.907  0.2209 -0.3238  0.5256
 3248TIP3    H133939   3.135   3.583  17.946  0.0681 -0.9412 -0.6970
 3248TIP3    H233940   3.272   3.645  17.959 -0.8033  0.5791  2.2988
 3249TIP3   OH233941   2.811   0.375  17.227  0.0586  0.3147  0.0627
 3249TIP3    H133942   2.724   0.358  17.193  0.1830  3.6407 -2.4657
 3249TIP3    H233943   2.798   0.399  17.318 -1.6412  0.3752 -0.1748
 3250TIP3   OH233944   0.181   7.670  17.142  0.2188  0.4901  0.1956
 3250TIP3    H133945   0.226   7.671  17.226  2.7399 -3.4406 -0.8487
 3250TIP3    H233946   0.224   7.739  17.090  2.4728 -0.5912  0.5050
 3251TIP3   OH233947   0.374   6.513  19.255  0.3632  0.0650  0.2283
 3251TIP3    H133948   0.404   6.604  19.253 -1.4849  0.7018 -0.1928
 3251TIP3    H233949   0.374   6.489  19.347  3.4264 -0.4770  0.2122
 3252TIP3   OH233950   1.058   1.377  17.967  0.1092  0.0326  0.8872
 3252TIP3    H133951   1.091   1.300  18.014  0.9696  0.2807  0.7180
 3252TIP3    H233952   1.003   1.422  18.030 -0.8665 -1.0103  0.8124
 3253TIP3   OH233953   0.675   7.354  18.427 -0.0855 -0.2103  0.1765
 3253TIP3    H133954   0.598   7.405  18.454  0.4976  1.6768 -1.4541
 3253TIP3    H233955   0.733   7.419  18.387  0.5998 -2.1891 -2.2720
 3254TIP3   OH233956   4.585   2.233  18.359 -0.2563 -0.0623 -0.0397
 3254TIP3    H133957   4.552   2.177  18.288  0.5045  0.2698 -0.6799
 3254TIP3    H233958   4.656   2.284  18.318  2.0685 -1.7789  1.6070
 3255TIP3   OH233959   0.555   4.762  17.826  0.1876 -0.1349  0.3790
 3255TIP3    H133960   0.541   4.754  17.731  1.3712  0.4111  0.1382
 3255TIP3    H233961   0.483   4.817  17.856 -0.6321 -0.9352 -0.0700
 3256TIP3   OH233962   4.487   3.862  17.507 -0.6136  0.1818 -0.0281
 3256TIP3    H133963   4.407   3.868  17.453 -0.2901  0.0640 -0.5300
 3256TIP3    H233964   4.550   3.917  17.461 -0.3742  0.1998  0.3198
 3257TIP3   OH233965   2.593   0.221  17.887 -0.1660 -0.0814 -1.1112
 3257TIP3    H133966   2.638   0.304  17.871  0.3801 -0.8164 -4.0969
 3257TIP3    H233967   2.656   0.168  17.937  0.6261  0.3770 -1.5930
 3258TIP3   OH233968   5.319   6.927  17.383 -0.5717  0.9484  0.2190
 3258TIP3    H133969   5.280   6.922  17.471 -2.0684 -0.2144 -0.4681
 3258TIP3    H233970   5.393   6.867  17.385 -0.5222  1.0218  0.7050
 3259TIP3   OH233971   2.590   0.539  17.088  0.2138  0.3433  0.3124
 3259TIP3    H133972   2.586   0.449  17.055  1.3581 -0.3987  2.0842
 3259TIP3    H233973   2.602   0.593  17.009  3.4073 -1.3888 -0.5549
 3260TIP3   OH233974   0.344   6.420  18.385  0.6229  0.4371  0.3199
 3260TIP3    H133975   0.413   6.448  18.325 -0.9765 -0.8760 -2.2850
 3260TIP3    H233976   0.354   6.325  18.390 -1.0488  0.2047 -0.2202
 3261TIP3   OH233977   6.820   6.590  16.699 -0.0753  0.4134  0.2487
 3261TIP3    H133978   6.904   6.558  16.732 -0.7038 -0.8319  0.6869
 3261TIP3    H233979   6.786   6.518  16.646 -0.8329  0.9411  0.0073
 3262TIP3   OH233980   4.275   0.149  16.853 -0.5043 -0.5155  0.5598
 3262TIP3    H133981   4.323   0.166  16.772 -1.3234 -2.4572 -0.3928
 3262TIP3    H233982   4.341   0.116  16.914 -0.2081 -0.9497  0.0162
 3263TIP3   OH233983   6.359   0.602  16.911  0.7189  0.0386  0.0122
 3263TIP3    H133984   6.423   0.667  16.879 -0.0724  1.4284  1.1190
 3263TIP3    H233985   6.409   0.550  16.975  0.8616  0.8859  0.6111
 3264TIP3   OH233986   6.728   2.725  17.978  0.2943  0.1407 -0.5638
 3264TIP3    H133987   6.650   2.780  17.989  1.0345  0.9849  0.7221
 3264TIP3    H233988   6.779   2.740  18.057  1.0117 -1.6574 -0.6437
 3265TIP3   OH233989   6.808   1.158  17.973  0.1075 -0.1663 -0.1846
 3265TIP3    H133990   6.793   1.064  17.980  1.0151 -0.2357  1.2501
 3265TIP3    H233991   6.770   1.195  18.053  1.2343  0.4661  0.0878
 3266TIP3   OH233992   2.841   0.671  17.414 -0.2600 -0.1791 -0.0157
 3266TIP3    H133993   2.875   0.678  17.325  1.0372 -1.0109  0.3819
 3266TIP3    H233994   2.871   0.585  17.444 -2.8541 -1.0318  0.3473
 3267TIP3   OH233995   6.004   7.023  18.704  0.3176 -0.3493 -0.0916
 3267TIP3    H133996   6.047   6.975  18.774 -0.3864 -1.1431 -0.1875
 3267TIP3    H233997   6.020   6.971  18.625  2.5651  1.3913 -0.8918
 3268TIP3   OH233998   6.306   1.542  18.064 -0.2562  0.1164 -0.1211
 3268TIP3    H133999   6.233   1.523  18.123 -0.5115  1.8404  0.1543
 3268TIP3    H234000   6.376   1.573  18.121 -0.5036  1.8071 -0.6880
 3269TIP3   OH234001   1.916   0.973  18.020  0.3767 -0.4755  0.3586
 3269TIP3    H134002   1.990   0.957  17.962  1.0401  1.1946  0.6931
 3269TIP3    H234003   1.839   0.972  17.963  0.9807  0.8030 -0.5135
 3270TIP3   OH234004   7.253   2.839  18.575  0.2027  0.1085  0.8772
 3270TIP3    H134005   7.301   2.830  18.493 -0.3659  0.7696  0.4585
 3270TIP3    H234006   7.161   2.847  18.548 -0.1275 -0.9285  1.6495
 3271TIP3   OH234007   5.477   2.896  18.358  0.4939  0.4679 -0.4652
 3271TIP3    H134008   5.514   2.980  18.330  0.6763 -0.2310 -2.4561
 3271TIP3    H234009   5.415   2.873  18.289  0.4333 -1.0153  0.0568
 3272TIP3   OH234010   7.251   3.998  17.143  0.7529 -0.6786 -0.0400
 3272TIP3    H134011   7.261   3.911  17.103  0.9383 -1.2645  1.2431
 3272TIP3    H234012   7.197   4.046  17.081 -0.9005 -2.2943  0.0534
 3273TIP3   OH234013   0.797   3.161  19.247 -0.0842 -0.0941 -0.2733
 3273TIP3    H134014   0.874   3.216  19.237  0.5379 -0.7500  0.6827
 3273TIP3    H234015   0.752   3.196  19.324 -1.2047  0.7924 -1.3016
 3274TIP3   OH234016   3.665   5.714  19.077  0.1770 -0.3074  0.2287
 3274TIP3    H134017   3.655   5.696  19.171  0.7058 -0.0729  0.3358
 3274TIP3    H234018   3.632   5.803  19.066  2.4468  0.6658  0.6748
 3275TIP3   OH234019   3.468   7.020  17.919 -0.7369 -0.1162  0.1233
 3275TIP3    H134020   3.379   6.985  17.919 -0.1138 -1.7736 -0.0245
 3275TIP3    H234021   3.457   7.112  17.894 -2.4618 -0.0749  0.8645
 3276TIP3   OH234022   1.168   7.407  17.940 -0.2021 -0.0442  0.1679
 3276TIP3    H134023   1.134   7.487  17.901 -1.6312 -0.4466  0.5008
 3276TIP3    H234024   1.130   7.336  17.887  2.3866 -0.5235 -1.1842
 3277TIP3   OH234025   0.045   7.297  17.253 -0.1847 -0.0947  0.4783
 3277TIP3    H134026   0.078   7.221  17.206 -0.3989 -0.2048  0.5040
 3277TIP3    H234027   0.067   7.281  17.344  3.0549  1.5384  0.1299
 3278TIP3   OH234028   1.995   3.698  18.060 -0.6061 -0.1808 -0.3603
 3278TIP3    H134029   1.967   3.780  18.101 -1.3590 -0.0655 -1.0831
 3278TIP3    H234030   1.943   3.630  18.103 -1.3421 -0.0680 -1.0613
 3279TIP3   OH234031   2.112   3.013  17.597 -0.0074  0.3270 -0.0417
 3279TIP3    H134032   2.101   3.044  17.687  2.5757  0.2827  0.3651
 3279TIP3    H234033   2.070   2.926  17.597  1.1200 -0.2640  1.5261
 3280TIP3   OH234034   7.097   7.633  16.501 -0.3185 -0.4636 -0.0321
 3280TIP3    H134035   7.168   7.677  16.547 -0.5129 -0.6961  0.4943
 3280TIP3    H234036   7.080   7.689  16.424 -0.2108  0.1006  0.3464
 3281TIP3   OH234037   3.287   6.342  19.815 -0.1425 -0.7285 -0.0437
 3281TIP3    H134038   3.247   6.419  19.774  1.2667  0.3672  0.5558
 3281TIP3    H234039   3.379   6.365  19.825  0.5705 -2.9174 -0.8174
 3282TIP3   OH234040   7.665   5.042  18.308 -0.0481 -0.3193  0.0393
 3282TIP3    H134041   7.646   5.065  18.399  0.5749  1.0448 -0.1500
 3282TIP3    H234042   7.759   5.025  18.307  0.0161  0.0675 -0.4306
 3283TIP3   OH234043   7.436   6.542  19.116 -0.5892  0.6866 -0.1053
 3283TIP3    H134044   7.379   6.617  19.096 -2.5530 -0.5303  0.6504
 3283TIP3    H234045   7.462   6.508  19.031 -0.2760  1.7640 -0.4578
 3284TIP3   OH234046   1.598   0.331  18.758 -0.1311  0.3425  0.1414
 3284TIP3    H134047   1.554   0.281  18.827  2.2388 -0.9821  0.8174
 3284TIP3    H234048   1.690   0.332  18.785  1.3259 -1.9380 -3.8841
 3285TIP3   OH234049   6.020   7.317  18.178  0.0404 -0.1315  0.2684
 3285TIP3    H134050   5.998   7.254  18.246  0.5090  0.3308  0.8625
 3285TIP3    H234051   6.109   7.344  18.199  0.6453 -0.8838 -1.2395
 3286TIP3   OH234052   6.981   5.353  18.439 -0.2719 -0.5404 -0.3511
 3286TIP3    H134053   6.946   5.343  18.528 -2.5721  1.5242 -0.9496
 3286TIP3    H234054   6.918   5.309  18.383  0.1137 -0.0881 -1.1512
 3287TIP3   OH234055   2.577   4.139  18.077 -0.3592  0.2903 -0.3869
 3287TIP3    H134056   2.560   4.223  18.035  3.2806  0.3086 -2.1585
 3287TIP3    H234057   2.639   4.095  18.020  0.5293 -2.1726  2.2207
 3288TIP3   OH234058   5.823   6.049  16.962 -0.3250 -0.6179  0.7659
 3288TIP3    H134059   5.834   5.979  16.896 -0.6746 -0.1051  0.1506
 3288TIP3    H234060   5.869   6.124  16.925 -1.5368  0.0401  0.5213
 3289TIP3   OH234061   6.912   1.780  19.148  0.1100  0.1920  0.3719
 3289TIP3    H134062   6.904   1.841  19.075 -0.6221  0.2549  0.4975
 3289TIP3    H234063   7.004   1.755  19.149  0.2424  0.6517 -0.1996
 3290TIP3   OH234064   3.297   2.214  19.488 -0.0691 -0.3223  0.0097
 3290TIP3    H134065   3.217   2.175  19.451  0.2492 -0.8138 -0.1680
 3290TIP3    H234066   3.354   2.139  19.506  0.3347  0.0246  0.1874
 3291TIP3   OH234067   1.475   4.631  17.955 -0.3812 -0.4986  0.0608
 3291TIP3    H134068   1.433   4.697  18.009 -0.3129 -0.4433  0.0457
 3291TIP3    H234069   1.569   4.651  17.961 -0.3832 -0.4142 -0.1789
 3292TIP3   OH234070   5.470   5.201  18.352 -0.1014  0.2760  0.2621
 3292TIP3    H134071   5.392   5.222  18.403 -0.2753  2.4688 -0.7680
 3292TIP3    H234072   5.542   5.209  18.415 -0.6604 -2.1995  1.3295
 3293TIP3   OH234073   2.247   3.447  17.164  0.0235  0.2759  0.1300
 3293TIP3    H134074   2.190   3.373  17.184  0.8284 -0.2706  0.4144
 3293TIP3    H234075   2.328   3.408  17.132  0.5716  1.0137  0.5759
 3294TIP3   OH234076   1.021   1.840  19.651 -0.2760 -0.1918  0.1133
 3294TIP3    H134077   1.024   1.866  19.559  1.5056 -0.3218  0.1067
 3294TIP3    H234078   0.943   1.784  19.657  0.3027 -1.2831 -1.6440
 3295TIP3   OH234079   5.823   5.618  17.074 -0.1549  0.2303  0.1709
 3295TIP3    H134080   5.771   5.682  17.026 -1.7410  0.1862  1.7217
 3295TIP3    H234081   5.901   5.604  17.020 -2.2298 -0.5188 -2.8451
 3296TIP3   OH234082   2.982   1.211  19.359 -0.1566  0.0508  0.4046
 3296TIP3    H134083   3.012   1.144  19.297 -2.1609 -0.9410  0.4477
 3296TIP3    H234084   3.047   1.282  19.350  1.7515 -1.6408 -0.0026
 3297TIP3   OH234085   3.207   4.713  17.408  0.4803  0.1185  0.1439
 3297TIP3    H134086   3.211   4.629  17.454 -0.6503 -0.4431 -0.7144
 3297TIP3    H234087   3.149   4.696  17.334 -1.0793  2.0804  0.8294
 3298TIP3   OH234088   1.132   0.409  19.657 -0.7937 -0.3086  0.1945
 3298TIP3    H134089   1.202   0.470  19.680  0.0735 -1.5427  0.9457
 3298TIP3    H234090   1.052   0.450  19.688 -0.1253  0.0801  1.4353
 3299TIP3   OH234091   7.028   0.606  18.224 -0.0203 -0.2064 -0.0796
 3299TIP3    H134092   7.073   0.542  18.280 -0.5676 -0.3532  0.1923
 3299TIP3    H234093   6.940   0.614  18.262 -0.3653 -0.2386 -0.8691
 3300TIP3   OH234094   1.440   0.886  18.226  0.3856  0.3248 -0.1756
 3300TIP3    H134095   1.353   0.853  18.246  0.6290 -0.2655 -0.0781
 3300TIP3    H234096   1.430   0.929  18.141  0.3759 -1.3193 -1.0536
 3301TIP3   OH234097   2.028   6.249  18.333  0.0095 -0.1794 -0.0731
 3301TIP3    H134098   1.979   6.290  18.405 -1.3290 -1.2946 -0.3006
 3301TIP3    H234099   2.028   6.315  18.264 -0.3326  0.2029  0.2828
 3302TIP3   OH234100   1.203   6.399  18.448 -0.3460  0.5648  0.4238
 3302TIP3    H134101   1.292   6.400  18.483 -0.9693  2.4663  2.1466
 3302TIP3    H234102   1.171   6.311  18.467  1.6857 -0.8607 -1.9311
 3303TIP3   OH234103   1.392   6.520  17.721  0.5264 -0.3643  0.0416
 3303TIP3    H134104   1.313   6.537  17.669 -0.7336  0.1712  1.9982
 3303TIP3    H234105   1.376   6.434  17.761  0.2820  0.3001  1.4630
 3304TIP3   OH234106   6.318   6.809  17.669 -0.0044  0.0568  0.0550
 3304TIP3    H134107   6.296   6.777  17.757  0.1970 -0.1001  0.0501
 3304TIP3    H234108   6.340   6.902  17.683  0.8309 -0.1642  0.3121
 3305TIP3   OH234109   1.765   6.722  16.732  0.1360  0.1051 -0.1603
 3305TIP3    H134110   1.693   6.661  16.745 -0.1162  0.7096  1.5860
 3305TIP3    H234111   1.729   6.807  16.759  1.1560  0.6230 -0.3929
 3306TIP3   OH234112   5.004   1.384  18.892  0.2366  0.1294 -0.3164
 3306TIP3    H134113   5.031   1.463  18.939 -0.9970  0.6977 -0.5255
 3306TIP3    H234114   5.043   1.392  18.805  1.3256 -0.2220  0.1222
 3307TIP3   OH234115   0.694   2.719  17.622  0.4581  0.2486  0.6788
 3307TIP3    H134116   0.756   2.647  17.629  0.0923 -0.1394  0.0650
 3307TIP3    H234117   0.611   2.677  17.597  0.2402  0.8757  0.3089
 3308TIP3   OH234118   2.159   4.072  18.501  0.4862  0.4643 -0.3616
 3308TIP3    H134119   2.153   4.084  18.596  1.6304 -2.1248  0.1270
 3308TIP3    H234120   2.087   4.125  18.466 -1.6358 -0.4846  2.1663
 3309TIP3   OH234121   4.455   1.270  18.838  0.1277  0.3438 -0.5570
 3309TIP3    H134122   4.475   1.197  18.895  1.7153 -0.5490 -2.1728
 3309TIP3    H234123   4.377   1.311  18.877  0.6272 -0.7425  1.6844
 3310TIP3   OH234124   1.315   4.389  17.477  0.0701 -0.0545 -0.0714
 3310TIP3    H134125   1.377   4.425  17.540  0.4528  2.1459 -1.6115
 3310TIP3    H234126   1.250   4.458  17.465  0.7690  0.2188 -3.0527
 3311TIP3   OH234127   3.478   4.621  17.907 -0.1348 -0.7279  0.4245
 3311TIP3    H134128   3.468   4.663  17.993  1.1368 -2.1494  1.3246
 3311TIP3    H234129   3.396   4.641  17.861 -0.5860  0.6069  1.7104
 3312TIP3   OH234130   2.636   2.280  16.368 -0.5962  0.5406 -0.0359
 3312TIP3    H134131   2.614   2.225  16.293 -1.1817  0.9424 -0.1698
 3312TIP3    H234132   2.610   2.369  16.341 -1.5472  0.5757  0.9160
 3313TIP3   OH234133   5.809   5.792  18.554  0.0744  0.1459  0.2900
 3313TIP3    H134134   5.778   5.711  18.595  0.7990 -0.4091 -0.2284
 3313TIP3    H234135   5.838   5.846  18.627 -1.2493  0.3299  0.7154
 3314TIP3   OH234136   5.666   4.002  17.790  0.5769  0.9616 -0.1802
 3314TIP3    H134137   5.639   3.913  17.812  0.6831  0.9560 -0.0751
 3314TIP3    H234138   5.621   4.057  17.854  1.3286  0.9004  0.4119
 3315TIP3   OH234139   7.377   0.653  19.430  0.4808  0.4545  0.1044
 3315TIP3    H134140   7.383   0.700  19.347 -1.6056 -1.0457 -0.9876
 3315TIP3    H234141   7.466   0.658  19.467  1.3485  1.5688 -1.9514
 3316TIP3   OH234142   3.168   5.486  18.335 -0.2862 -0.2525  0.0648
 3316TIP3    H134143   3.196   5.408  18.288 -1.2596  0.1025 -1.1567
 3316TIP3    H234144   3.215   5.482  18.418 -1.5515 -3.0042  0.7622
 3317TIP3   OH234145   4.090   6.864  18.947 -0.5327  0.0276 -0.7709
 3317TIP3    H134146   4.081   6.954  18.978 -0.0038 -0.1257 -0.1552
 3317TIP3    H234147   4.004   6.843  18.910 -1.1218  0.3014  0.3879
 3318TIP3   OH234148   1.659   4.717  17.061  0.7606 -0.5133  0.1796
 3318TIP3    H134149   1.728   4.729  17.126  0.2752 -2.5801  1.1570
 3318TIP3    H234150   1.692   4.650  17.001  0.0222 -0.8122  0.0851
 3319TIP3   OH234151   6.870   5.461  18.893  0.0439 -0.7252  0.2768
 3319TIP3    H134152   6.864   5.492  18.983  2.0052  1.3487 -0.2225
 3319TIP3    H234153   6.843   5.536  18.840  1.4821 -1.0176 -0.9078
 3320TIP3   OH234154   4.803   4.408  17.314 -0.3000  0.1325  0.5367
 3320TIP3    H134155   4.744   4.404  17.389 -0.4642  1.7222  0.5294
 3320TIP3    H234156   4.777   4.487  17.267 -0.1140 -0.7324 -1.1405
 3321TIP3   OH234157   3.861   2.495  17.813  0.2816 -0.0107  0.2891
 3321TIP3    H134158   3.800   2.501  17.739  0.5233 -1.7265 -0.1062
 3321TIP3    H234159   3.823   2.550  17.881 -0.6826  0.4811 -0.6277
 3322TIP3   OH234160   5.254   0.175  18.579  0.1452  0.0441  0.1637
 3322TIP3    H134161   5.184   0.216  18.629 -0.6488 -0.7020 -0.2872
 3322TIP3    H234162   5.241   0.207  18.489 -0.1682 -0.7580 -0.0897
 3323TIP3   OH234163   4.895   5.956  17.701 -0.2347  0.2310 -0.3655
 3323TIP3    H134164   4.976   5.944  17.751  0.1890 -0.2383 -1.1365
 3323TIP3    H234165   4.830   5.903  17.747  0.6605 -1.9730 -1.4657
 3324TIP3   OH234166   6.448   1.152  18.711 -0.4556 -0.1051 -0.0831
 3324TIP3    H134167   6.364   1.117  18.683  0.2225 -2.2624  0.3275
 3324TIP3    H234168   6.434   1.246  18.720 -2.2252 -0.1192 -2.0186
 3325TIP3   OH234169   3.776   6.208  17.622 -0.2277 -0.6835  0.0591
 3325TIP3    H134170   3.830   6.169  17.554  3.0984 -1.9167  3.0731
 3325TIP3    H234171   3.825   6.285  17.651 -2.6615  1.1390 -0.2844
 3326TIP3   OH234172   7.167   1.615  18.588 -0.0702  0.3811 -0.1259
 3326TIP3    H134173   7.146   1.592  18.498 -1.0371  1.0855 -0.1025
 3326TIP3    H234174   7.252   1.576  18.604  0.6714  1.2440 -1.7219
 3327TIP3   OH234175   2.053   0.948  18.535 -0.1061 -0.2084 -0.3744
 3327TIP3    H134176   2.118   0.913  18.596  0.5435  0.7527 -0.4937
 3327TIP3    H234177   2.009   1.018  18.584 -0.9141 -0.6951 -0.3744
 3328TIP3   OH234178   6.972   5.781  19.292 -0.0944  0.2778 -0.3020
 3328TIP3    H134179   6.968   5.848  19.360  0.2417  0.4323 -0.4322
 3328TIP3    H234180   7.028   5.819  19.225 -1.3217  0.5917 -1.1827
 3329TIP3   OH234181   7.054   5.139  18.108 -1.1070  0.0506  0.1992
 3329TIP3    H134182   7.139   5.179  18.129  0.6451 -3.4214  0.4267
 3329TIP3    H234183   7.010   5.204  18.053  1.4250  2.2597  0.5759
 3330TIP3   OH234184   1.850   3.493  19.286  0.1360  0.4218 -0.1711
 3330TIP3    H134185   1.791   3.420  19.265 -2.0306  1.4165  1.9358
 3330TIP3    H234186   1.937   3.454  19.286 -0.6712 -1.5847 -1.5384
 3331TIP3   OH234187   6.003   3.826  17.952  0.3219 -0.0498  0.0579
 3331TIP3    H134188   6.082   3.872  17.980  0.3997  1.2311 -2.0440
 3331TIP3    H234189   5.982   3.864  17.867 -2.3919 -0.5921  0.3956
 3332TIP3   OH234190   5.119   3.735  17.355 -0.3103  0.3874 -0.5941
 3332TIP3    H134191   5.090   3.775  17.273 -0.6113  2.6683  0.5481
 3332TIP3    H234192   5.131   3.642  17.333 -2.6174  0.4542 -2.6229
 3333TIP3   OH234193   0.246   3.949  16.954  0.5992  0.3507  0.2976
 3333TIP3    H134194   0.294   3.895  16.891 -0.2762 -1.9227  1.4618
 3333TIP3    H234195   0.262   4.039  16.925  2.1000 -0.4905 -1.7810
 3334TIP3   OH234196   1.642   3.865  18.143 -0.0694  0.3928 -0.3673
 3334TIP3    H134197   1.619   3.780  18.180 -0.9317  0.0786 -1.5484
 3334TIP3    H234198   1.729   3.884  18.178 -0.3989 -0.3791  0.9130
 3335TIP3   OH234199   2.459   4.375  18.392 -0.0970 -0.5722  0.0708
 3335TIP3    H134200   2.373   4.336  18.374 -1.2216  1.5668  0.5514
 3335TIP3    H234201   2.458   4.395  18.486  0.6012  0.2007 -0.0719
 3336TIP3   OH234202   5.186   5.349  16.600  0.3329 -0.0897  0.1239
 3336TIP3    H134203   5.192   5.441  16.624  2.3894 -0.4172  1.1280
 3336TIP3    H234204   5.253   5.338  16.531  0.1776 -0.8394  0.0799
 3337TIP3   OH234205   5.559   2.404  17.424 -0.5239 -0.5345 -0.1024
 3337TIP3    H134206   5.555   2.384  17.330  2.4870  1.0858 -0.7073
 3337TIP3    H234207   5.570   2.319  17.466  1.4322 -1.1105 -1.6069
 3338TIP3   OH234208   6.791   5.691  18.780 -0.2097 -0.1460  0.6753
 3338TIP3    H134209   6.705   5.713  18.745  0.3622 -2.4885 -2.7000
 3338TIP3    H234210   6.853   5.737  18.723  0.7950 -1.1663  0.9080
 3339TIP3   OH234211   7.336   6.006  17.846  0.3030  0.0662 -0.5052
 3339TIP3    H134212   7.249   5.971  17.828 -0.0466  0.1676  0.8556
 3339TIP3    H234213   7.354   5.980  17.937  0.8088  1.8153 -0.0618
 3340TIP3   OH234214   5.647   7.417  17.912  0.3449 -0.0749 -0.5235
 3340TIP3    H134215   5.735   7.441  17.884  0.6777 -0.1533  0.4240
 3340TIP3    H234216   5.596   7.413  17.830  1.0547  0.6128 -1.0118
 3341TIP3   OH234217   0.750   4.305  16.804  0.0594  0.0760  0.2331
 3341TIP3    H134218   0.840   4.334  16.786 -0.1284 -0.0862 -1.1360
 3341TIP3    H234219   0.751   4.211  16.783 -1.4247  0.8472 -4.4236
 3342TIP3   OH234220   1.854   3.609  17.402  0.4557  0.0082  0.4946
 3342TIP3    H134221   1.847   3.532  17.346 -0.7732  0.7041 -0.3703
 3342TIP3    H234222   1.948   3.622  17.414  0.9628  1.1115 -3.2934
 3343TIP3   OH234223   0.180   3.256  17.048  0.0889  0.0789 -0.2554
 3343TIP3    H134224   0.188   3.163  17.025 -1.9753  0.0170 -0.9192
 3343TIP3    H234225   0.184   3.302  16.965 -1.0218  0.3802 -0.1636
 3344TIP3   OH234226   7.224   5.407  16.889 -0.4134 -0.2233 -0.2152
 3344TIP3    H134227   7.264   5.476  16.836  0.1965  0.5747  1.2306
 3344TIP3    H234228   7.298   5.366  16.934 -0.9916 -0.1526  0.8416
 3345TIP3   OH234229   6.416   7.160  19.136 -0.0005  0.3179 -0.4365
 3345TIP3    H134230   6.464   7.214  19.074  0.2769  0.1984 -0.3285
 3345TIP3    H234231   6.456   7.073  19.129 -0.4452  0.1216 -0.6163
 3346TIP3   OH234232   6.981   1.639  18.812  0.3669 -0.1091  0.0667
 3346TIP3    H134233   7.039   1.622  18.738  1.5741 -2.5685  1.4413
 3346TIP3    H234234   6.913   1.571  18.805  0.1687 -0.0092  0.8788
 3347TIP3   OH234235   6.646   6.613  17.945 -0.1410  0.4244 -0.0855
 3347TIP3    H134236   6.706   6.573  18.008 -2.3930 -1.1407  1.2287
 3347TIP3    H234237   6.656   6.560  17.866  1.0558  0.9655 -0.3222
 3348TIP3   OH234238   4.001   1.789  17.637 -0.0783 -0.1188 -0.1364
 3348TIP3    H134239   4.009   1.869  17.584  0.2505  2.0526  2.8848
 3348TIP3    H234240   3.907   1.783  17.657 -0.1843 -0.8454 -0.8520
 3349TIP3   OH234241   3.696   5.647  16.943  0.1244 -0.2638 -0.1344
 3349TIP3    H134242   3.752   5.621  17.017 -0.7900 -1.5630  0.1419
 3349TIP3    H234243   3.644   5.569  16.924 -0.1366  0.2661 -1.7328
 3350TIP3   OH234244   1.122   3.215  18.510  0.2588  0.0865  0.4202
 3350TIP3    H134245   1.154   3.249  18.593 -0.1403 -1.4615  1.2434
 3350TIP3    H234246   1.040   3.261  18.494  0.2134  0.2111  1.0159
 3351TIP3   OH234247   1.044   6.123  19.492  0.5656 -0.1833 -0.1620
 3351TIP3    H134248   1.040   6.202  19.439  0.5619  0.1173  0.2858
 3351TIP3    H234249   1.135   6.120  19.524  0.7789 -0.7637 -0.7905
 3352TIP3   OH234250   5.898   2.682  17.964  0.1224  0.4112 -0.1233
 3352TIP3    H134251   5.932   2.768  17.987  0.2389  0.3248  0.0301
 3352TIP3    H234252   5.924   2.669  17.872 -1.4386  1.2928 -0.7148
 3353TIP3   OH234253   3.663   7.556  19.369 -0.2106 -0.5272  0.2784
 3353TIP3    H134254   3.630   7.641  19.339 -0.5742 -0.6308  0.3784
 3353TIP3    H234255   3.586   7.499  19.369  0.0162 -0.8353  0.2901
 3354TIP3   OH234256   1.444   1.325  17.490 -0.2358 -0.5773  0.1888
 3354TIP3    H134257   1.410   1.272  17.418 -0.6290 -0.6753  0.4457
 3354TIP3    H234258   1.526   1.361  17.456  0.3078 -1.7643  0.1867
 3355TIP3   OH234259   4.132   5.452  18.032  0.0281  0.0151  0.6367
 3355TIP3    H134260   4.071   5.436  17.960  1.3343  0.5889 -0.6295
 3355TIP3    H234261   4.169   5.538  18.014 -0.0518  0.4588  2.3489
 3356TIP3   OH234262   7.008   5.191  18.854 -0.1675  0.3170 -0.2589
 3356TIP3    H134263   6.933   5.189  18.795 -0.4632  1.4484  0.0667
 3356TIP3    H234264   7.010   5.280  18.889  1.5934  0.4665 -0.6058
 3357TIP3   OH234265   0.151   2.767  18.006  0.1110 -0.1831  0.9094
 3357TIP3    H134266   0.088   2.784  17.936  1.5286  2.6508  0.1646
 3357TIP3    H234267   0.099   2.770  18.086 -1.3648 -2.4371  0.1533
 3358TIP3   OH234268   5.333   3.262  18.663  0.0675  0.1304  0.2626
 3358TIP3    H134269   5.317   3.176  18.624 -0.0916  0.8359 -1.3381
 3358TIP3    H234270   5.345   3.245  18.756  1.3567 -1.7668 -0.2042
 3359TIP3   OH234271   5.494   6.985  18.868  0.0454  0.0639 -0.2735
 3359TIP3    H134272   5.547   7.065  18.868 -0.2962  0.3005  0.3452
 3359TIP3    H234273   5.437   6.994  18.945 -0.6385 -0.3543 -0.7177
 3360TIP3   OH234274   3.613   6.636  18.556 -0.3513  0.3663 -0.2506
 3360TIP3    H134275   3.534   6.595  18.520 -0.7427  0.3323  0.6228
 3360TIP3    H234276   3.653   6.568  18.610  1.0354 -0.0677 -1.7466
 3361TIP3   OH234277   1.061   4.844  18.380 -0.7399 -0.7577 -0.1784
 3361TIP3    H134278   1.036   4.919  18.326  1.0116 -0.2657 -0.3651
 3361TIP3    H234279   1.036   4.869  18.469  2.1701  1.3016  0.2169
 3362TIP3   OH234280   2.808   2.470  19.297 -0.5703  0.1781  0.2358
 3362TIP3    H134281   2.837   2.557  19.324  0.0293 -0.1859  0.7949
 3362TIP3    H234282   2.750   2.486  19.223 -2.2976  1.2219  1.7222
 3363TIP3   OH234283   1.336   6.481  17.230  0.0484 -0.0223 -0.0856
 3363TIP3    H134284   1.364   6.482  17.138 -1.6915  0.1597 -0.6504
 3363TIP3    H234285   1.417   6.466  17.279  0.9669 -0.5103 -1.6557
 3364TIP3   OH234286   0.635   4.110  17.136 -0.2085 -1.0991  0.2771
 3364TIP3    H134287   0.637   4.087  17.043  1.9088 -1.1082  0.2785
 3364TIP3    H234288   0.542   4.112  17.158 -0.8109 -0.2272 -2.0468
 3365TIP3   OH234289   4.245   1.373  19.906 -0.8436 -0.1810 -0.8874
 3365TIP3    H134290   4.249   1.384  20.001 -0.4966  0.8662 -1.0133
 3365TIP3    H234291   4.162   1.327  19.892 -0.5071 -1.1001 -0.0228
 3366TIP3   OH234292   0.216   7.632  18.246  1.0433  0.1571  0.5779
 3366TIP3    H134293   0.295   7.680  18.273  3.1168 -2.3981 -0.5366
 3366TIP3    H234294   0.190   7.582  18.323  0.3324  1.1286  0.9988
 3367TIP3   OH234295   5.403   3.610  18.873 -0.3690  0.3342  0.3427
 3367TIP3    H134296   5.467   3.639  18.808  1.2550 -0.1158  1.6641
 3367TIP3    H234297   5.448   3.621  18.957 -0.9680 -2.6273  1.1638
 3368TIP3   OH234298   4.627   5.916  17.969 -0.2427 -0.3670  0.1137
 3368TIP3    H134299   4.566   5.843  17.958 -0.4286 -0.2434  0.3275
 3368TIP3    H234300   4.611   5.971  17.892  1.0227 -1.3537 -0.9033
 3369TIP3   OH234301   3.430   7.391  19.352  0.1018 -0.0108 -0.2488
 3369TIP3    H134302   3.383   7.311  19.376  0.1191 -0.1048 -0.5280
 3369TIP3    H234303   3.368   7.462  19.371 -0.3017 -0.1573 -0.9712
 3370TIP3   OH234304   0.001   3.923  18.896 -0.7275 -0.2129 -0.1933
 3370TIP3    H134305  -0.070   3.859  18.888 -2.6975  1.3011  3.1457
 3370TIP3    H234306   0.079   3.874  18.871 -2.6442 -2.4800 -2.3804
 3371TIP3   OH234307   4.135   0.338  19.503 -0.1315  0.0146 -0.1163
 3371TIP3    H134308   4.178   0.264  19.545 -0.9235  0.4368  1.5165
 3371TIP3    H234309   4.043   0.328  19.525 -0.4901  0.6427 -1.2188
 3372TIP3   OH234310   5.302   5.955  18.979  0.4357 -0.2188 -1.0042
 3372TIP3    H134311   5.311   6.024  19.045  0.9682 -0.3430 -0.9376
 3372TIP3    H234312   5.386   5.956  18.933  0.8441 -1.4802 -0.3486
 3373TIP3   OH234313   3.323   1.044  18.251 -0.3344  0.1876  0.3079
 3373TIP3    H134314   3.418   1.049  18.254 -0.1209 -1.6713 -1.5139
 3373TIP3    H234315   3.298   1.011  18.337  0.6787  0.3909  0.6953
 3374TIP3   OH234316   2.494   3.999  18.862 -0.0998 -0.3343  0.1686
 3374TIP3    H134317   2.448   4.083  18.866  0.1445 -0.2376  1.4122
 3374TIP3    H234318   2.585   4.022  18.841 -0.4173 -0.4557 -1.4149
 3375TIP3   OH234319   2.680   6.635  17.059 -0.5539 -0.4220  0.2916
 3375TIP3    H134320   2.669   6.644  16.964  0.6967 -0.1150  0.1588
 3375TIP3    H234321   2.678   6.541  17.074 -0.1904 -0.5028 -0.1261
 3376TIP3   OH234322   0.876   4.040  18.848 -0.2354 -0.0899 -0.8410
 3376TIP3    H134323   0.882   4.093  18.928  0.4654  0.1327 -1.0341
 3376TIP3    H234324   0.957   3.989  18.848 -0.7738 -0.9597 -0.8097
 3377TIP3   OH234325   6.017   3.621  17.632 -0.0472 -0.4241 -0.2400
 3377TIP3    H134326   5.996   3.679  17.559  0.5617 -0.9210 -0.8280
 3377TIP3    H234327   5.933   3.590  17.664 -0.3446  0.2503 -0.3598
 3378TIP3   OH234328   2.030   5.807  17.677 -0.1775 -0.3108 -0.2779
 3378TIP3    H134329   2.093   5.744  17.642  2.2632  0.5420  2.2458
 3378TIP3    H234330   2.030   5.791  17.771 -3.1436  0.3684 -0.0558
 3379TIP3   OH234331   6.365   3.549  16.779  0.1556  0.2846  0.4371
 3379TIP3    H134332   6.433   3.601  16.820  1.8318 -0.8994 -0.6922
 3379TIP3    H234333   6.293   3.549  16.842  0.9702  2.0253  1.4391
 3380TIP3   OH234334   2.592   1.787  17.110  0.0564  0.2707 -0.0447
 3380TIP3    H134335   2.557   1.782  17.199 -0.0461 -1.1797 -0.1448
 3380TIP3    H234336   2.548   1.862  17.072  1.0244  1.6988  1.5111
 3381TIP3   OH234337   6.526   2.171  17.345  0.1087  0.0564  0.2918
 3381TIP3    H134338   6.597   2.108  17.349 -0.0986 -0.3039 -1.2211
 3381TIP3    H234339   6.542   2.221  17.264 -1.4065 -0.1217 -0.1500
 3382TIP3   OH234340   0.965   6.315  18.842 -0.3628 -0.7402  0.1362
 3382TIP3    H134341   0.935   6.246  18.901 -0.6941  0.2022  1.0850
 3382TIP3    H234342   0.885   6.349  18.802 -0.3857  0.2703  0.9993
 3383TIP3   OH234343   1.208   7.482  18.367 -0.1515 -0.3142  0.4492
 3383TIP3    H134344   1.254   7.441  18.294 -2.7375 -1.1311 -0.8422
 3383TIP3    H234345   1.257   7.455  18.445  2.6407  0.5147 -0.8892
 3384TIP3   OH234346   0.535   3.296  18.375  0.6261 -0.2253 -0.1362
 3384TIP3    H134347   0.566   3.252  18.455  2.0833  1.1966  0.1417
 3384TIP3    H234348   0.580   3.251  18.304 -0.4273 -1.2886 -0.1449
 3385TIP3   OH234349   5.841   6.086  17.605 -0.6403 -0.3331  0.6955
 3385TIP3    H134350   5.749   6.064  17.589  0.1037 -1.3373 -3.5941
 3385TIP3    H234351   5.867   6.137  17.528  2.6285 -0.9240  1.2525
 3386TIP3   OH234352   1.053   6.513  17.220 -0.2679 -0.1553 -0.6399
 3386TIP3    H134353   1.146   6.498  17.238 -0.6112 -3.4311 -0.8505
 3386TIP3    H234354   1.047   6.514  17.125 -0.3319  1.3939 -0.6397
 3387TIP3   OH234355   2.557   0.775  18.351  0.4128  0.0746  0.4474
 3387TIP3    H134356   2.585   0.790  18.441 -1.4199  1.1046  0.9093
 3387TIP3    H234357   2.531   0.861  18.319  0.3955 -0.3808 -0.8518
 3388TIP3   OH234358   2.030   7.411  17.276 -0.7462 -0.2270 -0.0665
 3388TIP3    H134359   2.075   7.356  17.340  1.4990 -1.2917 -2.3701
 3388TIP3    H234360   1.981   7.349  17.221  0.6447  0.1148 -1.8026
 3389TIP3   OH234361   2.244   4.357  19.145  0.6423  0.3720  0.6704
 3389TIP3    H134362   2.230   4.281  19.089  0.4504 -0.2510  1.5366
 3389TIP3    H234363   2.171   4.415  19.127  0.8764  0.4296 -0.1142
 3390TIP3   OH234364   6.854   5.197  18.643 -0.5881 -0.0535  0.2187
 3390TIP3    H134365   6.861   5.131  18.575 -0.3823 -1.0331  1.1602
 3390TIP3    H234366   6.764   5.229  18.637 -1.0253 -1.2076  0.4433
 3391TIP3   OH234367   4.774   1.877  17.257 -0.5012 -0.4269 -0.1725
 3391TIP3    H134368   4.739   1.958  17.218 -0.8589 -0.4319  0.1324
 3391TIP3    H234369   4.805   1.826  17.182 -0.2542  0.0026 -0.3673
 3392TIP3   OH234370   4.723   3.548  17.810 -0.4101 -0.4589  0.5044
 3392TIP3    H134371   4.654   3.569  17.746  0.4849 -1.1527 -0.7339
 3392TIP3    H234372   4.739   3.630  17.857 -1.7982 -0.1915  0.5525
 3393TIP3   OH234373   4.165   6.530  17.867 -0.4108  0.1371 -0.4607
 3393TIP3    H134374   4.207   6.610  17.900 -0.7876  0.6307 -1.1520
 3393TIP3    H234375   4.074   6.537  17.895 -0.5575  0.1922 -0.9448
 3394TIP3   OH234376   5.158   2.974  18.990  0.1171  0.4950 -0.2780
 3394TIP3    H134377   5.067   2.965  19.019 -0.2400  3.0561 -0.3391
 3394TIP3    H234378   5.154   3.035  18.916  1.9503  1.2982  0.2251
 3395TIP3   OH234379   2.145   6.191  18.831 -0.1479  0.0662 -0.0894
 3395TIP3    H134380   2.052   6.198  18.810  0.3044 -0.1483 -2.4649
 3395TIP3    H234381   2.147   6.171  18.925 -2.3430  3.0888  0.7478
 3396TIP3   OH234382   1.837   6.623  19.546 -0.3239 -0.3305 -0.3112
 3396TIP3    H134383   1.792   6.695  19.590 -0.0560 -0.6834  0.5662
 3396TIP3    H234384   1.778   6.548  19.555 -0.0405 -0.5296 -0.1128
 3397TIP3   OH234385   5.183   0.706  18.572 -0.3762 -0.4115 -0.2488
 3397TIP3    H134386   5.097   0.749  18.571 -0.1690  0.0167  0.0159
 3397TIP3    H234387   5.211   0.711  18.663  0.4872  0.6015 -0.5475
 3398TIP3   OH234388   7.600   2.864  18.866 -0.2659 -0.0336 -0.6275
 3398TIP3    H134389   7.574   2.776  18.837  0.4180  0.1441 -1.8035
 3398TIP3    H234390   7.518   2.913  18.868 -0.5254 -0.4478 -0.8422
 3399TIP3   OH234391   2.998   1.313  18.997  0.1211 -0.0723  0.0809
 3399TIP3    H134392   3.023   1.241  18.939  1.5927  1.1101 -0.7905
 3399TIP3    H234393   2.975   1.385  18.939 -2.1406 -0.0247  0.9292
 3400TIP3   OH234394   4.725   6.216  19.258  0.2991 -0.1554  0.2519
 3400TIP3    H134395   4.733   6.125  19.230 -1.7882 -0.6525  1.0609
 3400TIP3    H234396   4.788   6.224  19.331 -0.0831 -1.2012  0.7144
 3401TIP3   OH234397   1.854   4.718  18.366  0.0616  0.1145  0.7913
 3401TIP3    H134398   1.786   4.776  18.400  0.1449  0.5865  0.1951
 3401TIP3    H234399   1.931   4.738  18.419  0.1426  0.7075  0.4656
 3402TIP3   OH234400   2.842   6.744  18.730  0.1482  0.1331  0.2889
 3402TIP3    H134401   2.851   6.673  18.793 -0.9372  0.8573  1.3183
 3402TIP3    H234402   2.761   6.724  18.683  1.0754 -0.5329 -1.0951
 3403TIP3   OH234403   4.690   4.673  17.222 -0.4901 -0.0690  0.7115
 3403TIP3    H134404   4.604   4.677  17.179 -0.1258 -0.2602 -0.0352
 3403TIP3    H234405   4.747   4.725  17.166  0.0558 -0.5556  0.8166
 3404TIP3   OH234406   1.704   1.953  17.264 -0.8582 -0.0151 -0.1173
 3404TIP3    H134407   1.796   1.970  17.283 -0.7730  0.4880 -0.9162
 3404TIP3    H234408   1.704   1.869  17.219 -0.7174  0.2829 -0.6765
 3405TIP3   OH234409   3.149   4.737  19.337 -0.0998  0.0737  0.2516
 3405TIP3    H134410   3.074   4.719  19.394  0.3580 -0.3798  0.7236
 3405TIP3    H234411   3.216   4.673  19.364 -0.1381 -0.6799 -1.3184
 3406TIP3   OH234412   5.270   2.771  18.221 -0.3848 -0.1761  0.3956
 3406TIP3    H134413   5.232   2.846  18.175 -0.0557 -0.3316 -0.1480
 3406TIP3    H234414   5.276   2.703  18.154  1.0561 -0.0827  0.3891
 3407TIP3   OH234415   5.266   4.283  18.616 -0.4029  0.1457  0.2738
 3407TIP3    H134416   5.203   4.274  18.687 -0.1732  1.7009  0.7073
 3407TIP3    H234417   5.221   4.246  18.540 -1.1383 -0.3874  0.9482
 3408TIP3   OH234418   4.893   7.357  17.043  0.6380  0.5365  0.2050
 3408TIP3    H134419   4.902   7.403  16.959  3.3412  0.5839  0.4517
 3408TIP3    H234420   4.926   7.269  17.026  1.0750  0.5024  1.1766
 3409TIP3   OH234421   4.317   0.092  19.334 -0.2439  0.2896  0.4019
 3409TIP3    H134422   4.347   0.089  19.425  0.1170 -1.8279  0.2691
 3409TIP3    H234423   4.276   0.007  19.320 -1.6764  1.1652 -0.9940
 3410TIP3   OH234424   7.508   7.397  19.580  0.0235 -0.0227  0.2435
 3410TIP3    H134425   7.442   7.402  19.511  0.9708  0.7773 -0.6227
 3410TIP3    H234426   7.500   7.481  19.627 -0.5906 -0.5447  1.1051
 3411TIP3   OH234427   5.171   1.724  17.823 -0.0514 -0.1808 -0.6689
 3411TIP3    H134428   5.199   1.736  17.913 -0.4823 -1.4746 -0.3314
 3411TIP3    H234429   5.119   1.644  17.825 -0.8188  0.2578 -1.9074
 3412TIP3   OH234430   0.962   5.356  18.851 -0.3827 -0.5234 -0.4154
 3412TIP3    H134431   0.954   5.440  18.806  1.9666  0.6526  1.1716
 3412TIP3    H234432   0.971   5.378  18.943 -0.7366 -2.5958  0.1701
 3413TIP3   OH234433   6.770   0.175  18.219 -0.1517  0.5551 -0.7239
 3413TIP3    H134434   6.723   0.233  18.279  0.9626  0.2359  0.5060
 3413TIP3    H234435   6.825   0.121  18.276 -0.5102 -1.1270 -1.8941
 3414TIP3   OH234436   6.461   0.945  17.005 -0.1543  0.9557  0.0141
 3414TIP3    H134437   6.466   0.882  16.933 -1.0756  2.0640 -1.0738
 3414TIP3    H234438   6.514   0.907  17.075  0.2631 -0.4491 -1.0326
 3415TIP3   OH234439   3.909   7.272  17.646  0.3663  0.0462  0.3862
 3415TIP3    H134440   3.819   7.275  17.614  0.1839 -0.6428  0.8142
 3415TIP3    H234441   3.960   7.319  17.579 -0.2460  0.0841 -0.0605
 3416TIP3   OH234442   3.043   4.516  17.991  0.2439 -0.0716  0.5016
 3416TIP3    H134443   3.069   4.427  18.012  1.8327 -0.1610 -1.5289
 3416TIP3    H234444   3.004   4.550  18.072  4.0106 -0.9522  2.9004
 3417TIP3   OH234445   5.644   0.882  17.968 -0.1519 -0.3700  0.1222
 3417TIP3    H134446   5.698   0.896  18.046 -1.1814  0.4642  0.7049
 3417TIP3    H234447   5.569   0.940  17.980  0.4243  0.9588 -2.2622
 3418TIP3   OH234448   1.471   0.670  17.482  0.5416  0.4105 -0.0704
 3418TIP3    H134449   1.562   0.700  17.474  0.7200 -0.0921  0.0057
 3418TIP3    H234450   1.470   0.584  17.440  0.2545  0.1262  0.4986
 3419TIP3   OH234451   4.462   6.374  17.107 -0.4367  0.5210  0.0290
 3419TIP3    H134452   4.537   6.427  17.078 -0.1652  0.0017 -0.2192
 3419TIP3    H234453   4.444   6.316  17.033 -0.6655  0.1880  0.3468
 3420TIP3   OH234454   4.241   5.596  18.881 -0.6428  0.5749  0.2182
 3420TIP3    H134455   4.222   5.576  18.789 -1.0078  0.4588  0.3154
 3420TIP3    H234456   4.235   5.691  18.887  1.3366  0.7610 -0.2938
 3421TIP3   OH234457   2.625   5.911  17.383 -0.0551  0.1767  0.1932
 3421TIP3    H134458   2.643   5.902  17.289 -3.3588  1.2405 -0.6692
 3421TIP3    H234459   2.537   5.876  17.393 -0.6022  2.0309  2.5105
 3422TIP3   OH234460   6.690   7.001  18.922 -0.2798  0.0853  0.0353
 3422TIP3    H134461   6.745   6.986  18.845 -0.7218  0.0591 -0.2766
 3422TIP3    H234462   6.752   7.024  18.991  0.1922 -0.6805 -0.1210
 3423TIP3   OH234463   7.582   7.321  18.382  0.4079 -0.0535  0.4436
 3423TIP3    H134464   7.615   7.237  18.351 -0.2439 -0.0383 -0.3092
 3423TIP3    H234465   7.487   7.309  18.388  0.5286 -0.5178  3.7742
 3424TIP3   OH234466   2.446   2.052  19.123 -0.0133 -0.2675 -0.4771
 3424TIP3    H134467   2.485   1.967  19.106  1.8605  0.5665 -0.5176
 3424TIP3    H234468   2.519   2.114  19.122 -1.5455  1.7210 -2.7339
 3425TIP3   OH234469   4.458   5.461  16.716 -0.0343 -0.4450 -0.0321
 3425TIP3    H134470   4.517   5.536  16.718 -0.2078 -0.2867 -0.5243
 3425TIP3    H234471   4.401   5.478  16.640  0.3895 -1.4261 -0.5821
 3426TIP3   OH234472   4.096   2.008  17.486  0.7568 -0.4278  0.0936
 3426TIP3    H134473   4.189   2.011  17.463  0.4729  2.7212 -1.2067
 3426TIP3    H234474   4.052   2.052  17.414 -1.4881  0.1005  1.6745
 3427TIP3   OH234475   3.411   2.761  18.925 -0.6467 -0.2639  0.1665
 3427TIP3    H134476   3.424   2.709  19.004  0.3757 -1.8585 -0.9990
 3427TIP3    H234477   3.388   2.698  18.857  0.1841  0.8343 -1.2039
 3428TIP3   OH234478   5.080   4.284  18.815  0.1364  0.1834  0.0204
 3428TIP3    H134479   5.087   4.327  18.900  0.1992 -1.0647  0.6705
 3428TIP3    H234480   5.007   4.223  18.825  0.1896 -0.0279 -0.8027
 3429TIP3   OH234481   1.371   6.264  18.878 -0.5213 -0.3497 -0.5394
 3429TIP3    H134482   1.399   6.173  18.868 -1.2375 -0.4470 -1.7664
 3429TIP3    H234483   1.453   6.314  18.877  0.1720 -1.1271  3.0333
 3430TIP3   OH234484   1.914   2.514  17.445 -0.6712 -0.1114  0.0345
 3430TIP3    H134485   1.848   2.470  17.498 -1.6701  2.0527  0.7056
 3430TIP3    H234486   1.924   2.458  17.368 -1.8429 -1.4806  0.8212
 3431TIP3   OH234487   0.796   2.868  19.021 -0.2143 -0.8230 -0.4024
 3431TIP3    H134488   0.835   2.872  18.934 -0.9429 -0.5934 -0.7342
 3431TIP3    H234489   0.869   2.875  19.082  0.4379 -2.2135 -0.9875
 3432TIP3   OH234490   1.711   1.072  19.124 -0.3046 -0.4599 -0.2590
 3432TIP3    H134491   1.795   1.117  19.123 -1.1907  1.2963 -0.4806
 3432TIP3    H234492   1.715   1.016  19.202  1.6306 -1.6469 -1.1392
 3433TIP3   OH234493   2.101   5.926  19.448  0.4472  0.1285  0.5814
 3433TIP3    H134494   2.134   5.994  19.507  1.7936  0.1100 -0.1040
 3433TIP3    H234495   2.179   5.876  19.423 -0.3264 -0.8415  0.0206
 3434TIP3   OH234496   7.308   4.803  17.818 -0.0733  0.1605  0.3497
 3434TIP3    H134497   7.317   4.831  17.909  0.1557 -0.7904  0.6340
 3434TIP3    H234498   7.319   4.883  17.767 -1.8490  1.0166  1.2202
 3435TIP3   OH234499   4.122   1.126  18.962 -0.0748  0.2769  0.3086
 3435TIP3    H134500   4.125   1.216  18.994  0.9988  0.0474  0.9056
 3435TIP3    H234501   4.030   1.101  18.968 -0.1386  0.7543  1.8315
 3436TIP3   OH234502   4.549   6.827  17.866 -0.2613  0.0038 -0.1146
 3436TIP3    H134503   4.562   6.922  17.868  4.0926 -0.3983  0.7417
 3436TIP3    H234504   4.576   6.797  17.953 -2.7737 -2.0000  0.0806
 3437TIP3   OH234505   2.926   4.957  19.057 -0.0202 -0.4281 -0.0213
 3437TIP3    H134506   2.969   5.028  19.008 -0.5907  0.7871  1.1603
 3437TIP3    H234507   2.992   4.888  19.061  0.0548 -0.5881 -2.4407
 3438TIP3   OH234508   5.056   7.585  18.589  0.2670 -0.1169  0.2379
 3438TIP3    H134509   5.008   7.503  18.583  1.7849 -0.9579 -1.2023
 3438TIP3    H234510   5.099   7.581  18.675  0.3336 -0.8279  0.1777
 3439TIP3   OH234511   5.839   7.475  17.449 -0.4282 -0.2856 -0.0609
 3439TIP3    H134512   5.764   7.422  17.423 -0.2162 -0.0380 -1.2660
 3439TIP3    H234513   5.854   7.533  17.373  0.7615 -0.1077  0.2971
 3440TIP3   OH234514   3.476   0.045  19.223  0.0874  0.3227 -0.0332
 3440TIP3    H134515   3.415   0.002  19.284  1.0959  1.5330  1.9287
 3440TIP3    H234516   3.421   0.106  19.174 -0.7957 -0.8693 -0.5862
 3441TIP3   OH234517   3.749   6.381  18.379  0.2047  0.3140 -0.3959
 3441TIP3    H134518   3.763   6.467  18.418  2.5859 -0.7897  1.4872
 3441TIP3    H234519   3.711   6.328  18.450  3.0115 -1.2864  0.0960
 3442TIP3   OH234520   5.376   2.014  18.803 -0.0954 -0.8542  0.1429
 3442TIP3    H134521   5.283   2.031  18.820  0.4021 -0.2294  2.4970
 3442TIP3    H234522   5.410   1.978  18.884  1.7847 -0.8805 -0.6010
 3443TIP3   OH234523   2.801   1.018  18.388 -0.1238  0.3555  0.2543
 3443TIP3    H134524   2.705   1.018  18.393 -0.3640 -2.0242 -1.9612
 3443TIP3    H234525   2.828   0.967  18.465 -0.6771  0.5539  0.5891
 3444TIP3   OH234526   5.475   5.914  18.116  0.2038  0.1074  0.3032
 3444TIP3    H134527   5.410   5.939  18.181  0.5343 -0.7628  0.9828
 3444TIP3    H234528   5.424   5.876  18.045 -0.1218  0.6755  0.2233
 3445TIP3   OH234529   6.569   0.044  18.522  0.2572  0.7287  0.0105
 3445TIP3    H134530   6.595   0.133  18.498 -0.6773  1.2389  0.8158
 3445TIP3    H234531   6.520   0.055  18.604 -1.5300 -0.2891 -0.8688
 3446TIP3   OH234532   5.719   2.806  18.470  0.7247 -0.2420 -0.3343
 3446TIP3    H134533   5.791   2.850  18.424  0.3434  0.5148 -0.2224
 3446TIP3    H234534   5.642   2.824  18.417  0.2994  0.5363  0.5237
 3447TIP3   OH234535   0.829   5.276  17.028 -0.2560 -1.1536 -0.3769
 3447TIP3    H134536   0.827   5.226  17.110 -0.7789 -0.9849 -0.2847
 3447TIP3    H234537   0.754   5.245  16.978 -0.7775 -0.2420 -0.1824
 3448TIP3   OH234538   6.591   2.696  18.743  0.6118  0.6009  0.4171
 3448TIP3    H134539   6.658   2.629  18.756  0.6124  0.8485  1.8377
 3448TIP3    H234540   6.589   2.744  18.825 -1.4297  0.4943  0.4723
 3449TIP3   OH234541   6.503   3.259  17.624 -0.1723 -0.5179  0.1342
 3449TIP3    H134542   6.557   3.297  17.554 -1.2784 -0.5598 -0.7805
 3449TIP3    H234543   6.431   3.215  17.578 -1.7938  0.7490  1.3070
 3450TIP3   OH234544   2.698   6.164  18.543 -0.0358  0.0633 -0.4532
 3450TIP3    H134545   2.657   6.250  18.538 -1.5597 -0.4405  1.7930
 3450TIP3    H234546   2.753   6.169  18.622  1.0134 -0.5733 -1.1260
 3451TIP3   OH234547   6.072   5.293  19.553 -0.0969  0.1457 -0.1513
 3451TIP3    H134548   6.023   5.371  19.578  0.3227  0.1730  0.6200
 3451TIP3    H234549   6.022   5.255  19.481 -1.0385  0.3938  0.3527
 3452TIP3   OH234550   4.723   3.995  18.571  0.0448 -0.4006 -0.4875
 3452TIP3    H134551   4.667   4.070  18.553 -0.3090  0.2399  2.8293
 3452TIP3    H234552   4.670   3.937  18.625  1.7941 -0.8641  0.8287
 3453TIP3   OH234553   0.128   0.543  19.056  0.2064  0.1196  0.3267
 3453TIP3    H134554   0.210   0.494  19.058 -0.3086 -0.8615 -0.9647
 3453TIP3    H234555   0.074   0.497  18.991 -0.4908  2.1081 -0.5761
 3454TIP3   OH234556   7.044   2.592  16.540  0.3533  0.4857 -0.5720
 3454TIP3    H134557   7.133   2.570  16.514  0.6030 -0.8600  1.1906
 3454TIP3    H234558   6.995   2.511  16.528 -0.3387  0.8583 -0.3165
 3455TIP3   OH234559   3.704   1.713  18.135  0.3105 -0.2202 -0.2221
 3455TIP3    H134560   3.742   1.626  18.121 -0.4183 -0.3849 -1.3949
 3455TIP3    H234561   3.613   1.695  18.159 -0.6144  0.1813 -3.0308
 3456TIP3   OH234562   5.572   3.234  18.281  0.8339 -0.3068 -0.3789
 3456TIP3    H134563   5.565   3.248  18.375  0.8965 -4.3209  0.3910
 3456TIP3    H234564   5.503   3.289  18.243  0.0602  0.5487  2.0750
 3457TIP3   OH234565   3.466   1.736  19.440  0.3674  0.3243  0.6280
 3457TIP3    H134566   3.464   1.829  19.414  0.7132  0.0409 -0.4636
 3457TIP3    H234567   3.501   1.691  19.364 -0.0744 -0.7520  1.0467
 3458TIP3   OH234568   3.184   6.450  19.499  0.0467  0.2778  0.2598
 3458TIP3    H134569   3.098   6.425  19.467  0.5668 -0.7024 -0.4169
 3458TIP3    H234570   3.229   6.367  19.516  0.2088  0.7316  2.4619
 3459TIP3   OH234571   3.902   2.782  17.012 -0.1477  0.4454 -0.3383
 3459TIP3    H134572   3.891   2.702  17.063 -1.3055  0.2698 -0.8322
 3459TIP3    H234573   3.875   2.758  16.923  1.8956  0.7180 -1.0953
 3460TIP3   OH234574   2.010   4.762  17.876  0.0073 -0.4977  0.6149
 3460TIP3    H134575   2.057   4.691  17.833  2.2278  0.4652  1.2518
 3460TIP3    H234576   2.018   4.743  17.970  1.9202  1.1982  0.8903
 3461TIP3   OH234577   2.871   5.703  19.043  0.1245 -0.0003  0.3693
 3461TIP3    H134578   2.797   5.731  18.989 -0.6475  0.2244  1.4983
 3461TIP3    H234579   2.849   5.612  19.067 -0.4598  0.4795  1.7653
 3462TIP3   OH234580   0.955   4.926  18.613 -0.0826 -0.3352  0.6665
 3462TIP3    H134581   0.928   4.987  18.681  1.4602  0.4490  0.6212
 3462TIP3    H234582   0.890   4.856  18.616  0.0424 -0.4244  3.0878
 3463TIP3   OH234583   6.520   5.083  18.260 -0.0251 -0.3393  0.3874
 3463TIP3    H134584   6.443   5.082  18.317  0.0016  0.9206  0.4733
 3463TIP3    H234585   6.532   5.175  18.238  1.4676 -0.5206  0.3778
 3464TIP3   OH234586   0.585   1.790  18.345  0.0876  0.2611 -0.1811
 3464TIP3    H134587   0.654   1.832  18.294  0.4817 -0.3074 -0.1346
 3464TIP3    H234588   0.553   1.719  18.289  1.2741 -1.0636  0.7395
 3465TIP3   OH234589   6.199   6.867  17.004 -0.3811 -0.0836  0.6364
 3465TIP3    H134590   6.129   6.881  17.068 -0.9757 -0.7821  0.1479
 3465TIP3    H234591   6.208   6.951  16.960  0.8968  0.8031  2.4554
 3466TIP3   OH234592   1.210   5.608  17.180 -0.2852 -0.1728 -0.3498
 3466TIP3    H134593   1.215   5.623  17.274 -1.4259  2.2458 -0.5770
 3466TIP3    H234594   1.194   5.514  17.170 -3.3187 -0.0518  2.0597
 3467TIP3   OH234595   0.069   4.612  18.147  0.0733  0.1796  0.0191
 3467TIP3    H134596   0.136   4.662  18.194 -0.4731  0.0902  0.9165
 3467TIP3    H234597   0.025   4.677  18.092  0.2114  0.4407  0.2126
 3468TIP3   OH234598   0.291   2.246  17.000 -0.2013  0.2563  0.4845
 3468TIP3    H134599   0.347   2.283  16.932  1.8820 -1.0064  1.4179
 3468TIP3    H234600   0.206   2.287  16.986  0.5517  1.1520 -1.9160
 3469TIP3   OH234601   1.737   0.737  18.975 -0.0565  0.1762 -0.1277
 3469TIP3    H134602   1.694   0.656  19.001 -0.7354  0.6663  0.3031
 3469TIP3    H234603   1.665   0.799  18.961  0.4568  0.7218 -0.3959
 3470TIP3   OH234604   0.161   5.501  18.996 -0.7741  0.5075  0.0981
 3470TIP3    H134605   0.168   5.506  18.901  0.9938  0.1878  0.1744
 3470TIP3    H234606   0.067   5.493  19.013 -0.9797 -2.0382 -1.7559
 3471TIP3   OH234607   3.759   3.697  18.536 -0.0920 -0.1088 -0.1725
 3471TIP3    H134608   3.720   3.628  18.589  0.1368  0.8766  1.3637
 3471TIP3    H234609   3.850   3.701  18.566  0.2963 -0.1034 -1.2889
 3472TIP3   OH234610   0.063   6.453  18.430  0.1279  0.3254  0.0718
 3472TIP3    H134611   0.019   6.409  18.357  1.9276 -0.0886 -0.8148
 3472TIP3    H234612   0.155   6.432  18.419  0.6648  1.7422  1.4600
 3473TIP3   OH234613   5.797   1.094  17.728  0.0048  0.1755 -0.0762
 3473TIP3    H134614   5.710   1.104  17.688  0.7748  2.4609 -1.3881
 3473TIP3    H234615   5.856   1.084  17.653  0.9987 -0.1915  0.7385
 3474TIP3   OH234616   5.465   4.554  18.976 -1.0109  0.7001 -0.1472
 3474TIP3    H134617   5.443   4.645  18.995 -2.1654  0.4215 -0.1051
 3474TIP3    H234618   5.422   4.536  18.893 -3.7388 -0.7978  1.4550
 3475TIP3   OH234619   5.471   1.032  18.596  0.5111 -0.5260  0.1203
 3475TIP3    H134620   5.504   0.952  18.637  0.2689 -1.1567 -0.8860
 3475TIP3    H234621   5.545   1.065  18.544 -0.1938 -1.6221 -1.6682
 3476TIP3   OH234622   0.957   3.704  17.244 -0.4143  0.2921 -0.3783
 3476TIP3    H134623   1.012   3.726  17.319 -1.5003 -0.1863  0.5919
 3476TIP3    H234624   0.990   3.759  17.173  2.2977 -1.0395 -0.3026
 3477TIP3   OH234625   6.192   1.119  18.255  0.2037 -0.1763 -0.0044
 3477TIP3    H134626   6.215   1.074  18.174  2.5234  2.2911 -0.8319
 3477TIP3    H234627   6.245   1.076  18.322 -1.9968 -2.4762  0.4179
 3478TIP3   OH234628   3.254   2.467  19.353  0.3946 -0.5618 -0.7899
 3478TIP3    H134629   3.285   2.395  19.408  0.1265 -0.9105 -1.0894
 3478TIP3    H234630   3.164   2.444  19.332 -0.2003  0.5853  0.3188
 3479TIP3   OH234631   4.262   5.138  18.152  0.0979 -0.8806 -0.0718
 3479TIP3    H134632   4.233   5.116  18.063  0.3290 -1.3446 -0.0369
 3479TIP3    H234633   4.351   5.102  18.157  0.0232 -0.9999  0.4001
 3480TIP3   OH234634   3.952   4.370  17.446  0.2637  0.0025 -0.6377
 3480TIP3    H134635   3.950   4.377  17.351  0.9871 -0.5583 -0.7053
 3480TIP3    H234636   3.869   4.329  17.469 -0.7079  1.7087 -0.8546
 3481TIP3   OH234637   4.175   4.365  18.712 -0.2245  0.6099 -0.2713
 3481TIP3    H134638   4.156   4.280  18.672 -1.9937  0.3059  1.0920
 3481TIP3    H234639   4.213   4.417  18.641 -3.0359  0.0458 -2.3631
 3482TIP3   OH234640   2.063   6.470  17.268  0.3098 -0.0826  0.0374
 3482TIP3    H134641   1.974   6.435  17.276  0.0523  0.6415  0.3968
 3482TIP3    H234642   2.117   6.393  17.249 -0.3534 -0.5672  0.0753
 3483TIP3   OH234643   5.758   3.852  18.568 -0.2312 -0.7687 -0.4817
 3483TIP3    H134644   5.831   3.802  18.531 -0.2952 -0.5987 -0.8449
 3483TIP3    H234645   5.765   3.938  18.527 -1.6076 -1.2402 -1.7904
 3484TIP3   OH234646   2.663   4.823  17.397  0.5229  0.0936 -0.0446
 3484TIP3    H134647   2.742   4.872  17.419  0.1926 -0.0911  1.6776
 3484TIP3    H234648   2.591   4.880  17.425 -0.0006  0.4278 -1.9349
 3485TIP3   OH234649   0.373   3.640  17.703 -0.2227  0.4059 -0.0970
 3485TIP3    H134650   0.359   3.636  17.798 -1.1746 -0.6574 -0.2545
 3485TIP3    H234651   0.333   3.724  17.677  2.0386  1.8141  0.6990
 3486TIP3   OH234652   3.436   5.622  19.273  0.0722  0.8640  0.5482
 3486TIP3    H134653   3.457   5.709  19.305  0.4874  1.0937 -0.3114
 3486TIP3    H234654   3.342   5.612  19.291  0.1886  1.1640  1.3614
 3487TIP3   OH234655   1.178   2.304  17.892 -0.6826  0.8206 -0.2722
 3487TIP3    H134656   1.158   2.276  17.981 -0.4571  0.8490 -0.2133
 3487TIP3    H234657   1.148   2.395  17.889 -1.1172  0.6756 -0.3679
 3488TIP3   OH234658   3.753   0.217  17.470 -0.0006  0.6387  0.3218
 3488TIP3    H134659   3.772   0.218  17.376  1.3618 -0.2922  0.5541
 3488TIP3    H234660   3.703   0.297  17.485  0.7149  1.3781 -1.0022
 3489TIP3   OH234661   4.915   6.929  17.790  0.1207  0.1696 -0.7498
 3489TIP3    H134662   4.886   6.839  17.805  1.5106 -0.3222 -0.8240
 3489TIP3    H234663   4.903   6.972  17.874 -0.3944 -0.1358 -0.6653
 3490TIP3   OH234664   4.177   0.623  17.633  0.1349 -0.5989  0.1612
 3490TIP3    H134665   4.238   0.566  17.586  0.3816 -0.8685  0.7836
 3490TIP3    H234666   4.098   0.624  17.581  0.1479 -1.4822  0.1208
 3491TIP3   OH234667   2.837   1.594  17.293 -0.5062  0.0624 -0.1534
 3491TIP3    H134668   2.787   1.566  17.370 -1.4714  0.3332 -0.6645
 3491TIP3    H234669   2.849   1.688  17.304  0.8003 -0.1504  0.4638
 3492TIP3   OH234670   0.628   2.906  18.282  0.3301  0.6551  0.3046
 3492TIP3    H134671   0.623   2.995  18.248 -0.4004  0.8147  0.8152
 3492TIP3    H234672   0.543   2.890  18.322  1.6385  1.1912  3.7439
 3493TIP3   OH234673   3.491   6.839  18.430 -0.2200 -0.3341 -0.5255
 3493TIP3    H134674   3.536   6.771  18.479 -1.2946 -0.2505  0.6481
 3493TIP3    H234675   3.561   6.898  18.400  0.4778 -0.3187  1.0403
 3494TIP3   OH234676   1.008   2.582  18.343 -0.1702  0.4765  0.2900
 3494TIP3    H134677   0.959   2.631  18.277  0.7325  1.7525  0.5240
 3494TIP3    H234678   1.085   2.550  18.296  0.7223  1.7986  0.7902
 3495TIP3   OH234679   6.161   6.379  18.865 -0.2208  0.2483 -0.4882
 3495TIP3    H134680   6.253   6.370  18.839 -0.3610 -1.1721 -0.5917
 3495TIP3    H234681   6.128   6.289  18.868 -1.8705  0.7708 -1.4161
 3496TIP3   OH234682   1.812   5.971  17.640 -0.1911  0.0978 -0.2580
 3496TIP3    H134683   1.832   6.051  17.688 -0.5776  0.4390 -0.6530
 3496TIP3    H234684   1.871   5.906  17.676  1.5332  1.0309 -1.2844
 3497TIP3   OH234685   2.709   4.126  17.589  0.1508 -1.0871 -0.1154
 3497TIP3    H134686   2.787   4.130  17.535 -0.7083 -1.0390 -1.3977
 3497TIP3    H234687   2.705   4.035  17.619  1.6622 -0.6630  1.4802
 3498TIP3   OH234688   2.839   4.320  18.192  0.0152 -0.2507 -0.2513
 3498TIP3    H134689   2.849   4.235  18.233 -5.1473 -1.5703 -0.9844
 3498TIP3    H234690   2.814   4.378  18.264 -0.5089 -0.3918 -0.3190
 3499TIP3   OH234691   1.298   4.681  18.624  0.8243  0.4300  0.4456
 3499TIP3    H134692   1.316   4.618  18.693  0.8845 -0.7823 -0.6485
 3499TIP3    H234693   1.211   4.657  18.593  1.3395  0.1135 -0.7853
 3500TIP3   OH234694   1.425   2.000  17.419 -0.3294  0.3109  1.1912
 3500TIP3    H134695   1.514   2.028  17.397  0.4106 -0.6968  2.7673
 3500TIP3    H234696   1.388   1.969  17.336  0.5754  1.2483  0.4159
 3501TIP3   OH234697   0.746   2.582  17.265 -0.0819 -0.2209  0.4039
 3501TIP3    H134698   0.657   2.574  17.301 -0.0448 -1.1524  0.3165
 3501TIP3    H234699   0.788   2.499  17.286  0.8203  0.2611  0.5540
 3502TIP3   OH234700   1.769   5.952  18.741  0.5186  0.3561  0.0127
 3502TIP3    H134701   1.768   5.872  18.689 -0.4578 -0.1200  0.7347
 3502TIP3    H234702   1.744   5.924  18.829  0.7148  1.3712  0.4033
 3503TIP3   OH234703   4.582   5.177  18.693  0.0410 -0.3418  0.0600
 3503TIP3    H134704   4.571   5.257  18.745  0.4936  0.4298 -0.9809
 3503TIP3    H234705   4.608   5.110  18.756  0.0464  0.4321  0.8967
 3504TIP3   OH234706   3.191   0.585  18.833  0.0247 -0.0718 -0.1747
 3504TIP3    H134707   3.265   0.540  18.793 -0.4801 -1.8790  0.8117
 3504TIP3    H234708   3.196   0.561  18.926 -3.1373 -2.3213 -0.4328
 3505TIP3   OH234709   1.032   6.067  16.733 -0.3659 -0.3115  0.0875
 3505TIP3    H134710   1.045   5.974  16.715 -0.1695 -0.5892  1.5116
 3505TIP3    H234711   1.115   6.108  16.708 -0.6582 -0.4119 -1.1018
 3506TIP3   OH234712   2.631   2.266  19.308 -0.4991  0.2292 -0.3421
 3506TIP3    H134713   2.658   2.222  19.227  0.6034 -0.5529  0.4233
 3506TIP3    H234714   2.709   2.312  19.338 -0.3586 -0.9070  1.1717
 3507TIP3   OH234715   2.867   3.441  16.844  0.1882  0.3952 -0.4724
 3507TIP3    H134716   2.943   3.497  16.854  0.8015 -0.4570 -0.1994
 3507TIP3    H234717   2.902   3.352  16.843 -0.6352  0.0429 -2.1246
 3508TIP3   OH234718   1.319   6.673  18.196  0.0135 -0.3378 -0.2030
 3508TIP3    H134719   1.307   6.738  18.127 -2.2458 -0.6909 -0.2271
 3508TIP3    H234720   1.240   6.680  18.250 -0.5313 -3.2859 -0.4447
 3509TIP3   OH234721   7.328   3.520  16.774  0.2235  0.4332 -0.3198
 3509TIP3    H134722   7.347   3.557  16.688  1.0143  1.8873  0.4409
 3509TIP3    H234723   7.407   3.471  16.796  0.1839  0.4003 -0.2524
 3510TIP3   OH234724   4.029   6.077  18.733  0.3011 -0.2512 -0.5687
 3510TIP3    H134725   3.955   6.066  18.793  0.2098 -0.8939 -0.7909
 3510TIP3    H234726   4.055   6.168  18.743  0.5375 -0.4430  0.7537
 3511TIP3   OH234727   7.045   3.466  19.060  0.6088  0.6970  0.6804
 3511TIP3    H134728   7.035   3.546  19.009  1.3343 -0.0111 -0.6525
 3511TIP3    H234729   7.124   3.481  19.113  0.5780  0.9601  0.6540
 3512TIP3   OH234730   6.390   1.175  19.028 -0.0223  0.1304 -0.4628
 3512TIP3    H134731   6.355   1.170  19.116 -1.0232  0.0492 -0.8490
 3512TIP3    H234732   6.458   1.242  19.032  0.0199  0.0462  0.3831
 3513TIP3   OH234733   0.918   1.311  18.339 -0.8360  0.1264  0.3696
 3513TIP3    H134734   0.911   1.248  18.410  1.1093 -0.5570  0.0335
 3513TIP3    H234735   0.928   1.258  18.260 -0.9425  0.8632 -0.1501
 3514TIP3   OH234736   7.345   7.379  19.343  0.4862  0.4082  0.2775
 3514TIP3    H134737   7.396   7.311  19.300 -3.5453 -3.1330  0.4556
 3514TIP3    H234738   7.320   7.439  19.273  0.3844 -0.8829 -0.8152
 3515TIP3   OH234739   2.692   6.844  18.065  0.0647  0.0937  0.5255
 3515TIP3    H134740   2.626   6.908  18.037 -0.3308  0.1370  1.5297
 3515TIP3    H234741   2.706   6.863  18.158 -0.2124 -1.3902  0.8928
 3516TIP3   OH234742   5.423   0.694  19.052  0.2977 -0.2865 -1.1279
 3516TIP3    H134743   5.343   0.732  19.016 -0.3728 -2.0027 -1.5811
 3516TIP3    H234744   5.413   0.704  19.147  1.0538  2.3053 -1.2660
 3517TIP3   OH234745   4.791   5.084  17.615 -0.3480  0.4550 -0.4431
 3517TIP3    H134746   4.813   5.177  17.611 -1.8732  0.8165 -1.3609
 3517TIP3    H234747   4.864   5.040  17.571  0.6388  1.1484  0.4669
 3518TIP3   OH234748   0.591   4.271  18.393 -0.1754 -0.0982 -0.1638
 3518TIP3    H134749   0.648   4.237  18.325 -0.7051  1.2899 -1.3474
 3518TIP3    H234750   0.637   4.251  18.475  1.2049 -0.4616 -0.9997
 3519TIP3   OH234751   4.183   6.030  19.634  0.1471 -0.1032  0.2433
 3519TIP3    H134752   4.278   6.036  19.628  0.1581 -0.6592 -0.2433
 3519TIP3    H234753   4.161   6.081  19.712  0.6136  2.1128 -0.9917
 3520TIP3   OH234754   6.688   6.643  18.292  0.6730  0.4066 -0.0720
 3520TIP3    H134755   6.761   6.609  18.239 -0.5038 -2.2722 -0.1203
 3520TIP3    H234756   6.635   6.693  18.230  0.3768 -1.0042 -0.9904
 3521TIP3   OH234757   5.393   5.843  18.644 -0.2708 -0.6780  0.1386
 3521TIP3    H134758   5.311   5.794  18.645 -2.3315  2.4327 -0.2828
 3521TIP3    H234759   5.433   5.825  18.729 -3.1375  0.2654  1.8234
 3522TIP3   OH234760   6.295   3.997  18.018 -0.5981  0.0949 -0.2310
 3522TIP3    H134761   6.296   3.975  17.925  2.6088  1.6479 -0.7088
 3522TIP3    H234762   6.354   3.933  18.058  0.3256  1.1749  0.1869
 3523TIP3   OH234763   3.373   1.039  19.295 -0.7076  0.0468 -0.1120
 3523TIP3    H134764   3.313   1.086  19.237 -3.0636  0.9142  2.7262
 3523TIP3    H234765   3.350   0.947  19.286 -1.0937  0.1833 -0.5081
 3524TIP3   OH234766   3.639   2.869  18.127 -0.1249 -1.0898 -0.0149
 3524TIP3    H134767   3.635   2.952  18.079  0.1624 -0.7808  0.4827
 3524TIP3    H234768   3.729   2.864  18.158 -0.7652 -0.3323  2.1389
 3525TIP3   OH234769   4.927   6.501  19.541 -0.1439  0.5447 -0.2326
 3525TIP3    H134770   4.950   6.461  19.457  1.0558  1.0092 -0.1318
 3525TIP3    H234771   4.848   6.454  19.568  0.6872 -1.1251 -0.5702
 3526TIP3   OH234772   7.258   0.032  17.341 -0.4266  0.3713  0.2865
 3526TIP3    H134773   7.249   0.102  17.276  0.1441 -0.3525 -0.5939
 3526TIP3    H234774   7.316   0.069  17.408  1.1436  0.2470 -0.9428
 3527TIP3   OH234775   6.746   5.918  16.877 -0.2797 -0.1982  0.0891
 3527TIP3    H134776   6.738   5.988  16.942  0.6646 -0.0936  0.1122
 3527TIP3    H234777   6.657   5.885  16.866 -0.5378  0.1174  1.0730
 3528TIP3   OH234778   1.720   2.947  17.059 -0.3632  0.1902 -0.0595
 3528TIP3    H134779   1.634   2.960  17.099 -0.2721  1.0760 -0.1387
 3528TIP3    H234780   1.722   2.854  17.036 -0.9077 -0.0574  0.8358
 3529TIP3   OH234781   3.545   3.911  16.988  0.0208 -0.3997 -0.4063
 3529TIP3    H134782   3.606   3.898  16.915 -0.8572 -4.1305 -0.6817
 3529TIP3    H234783   3.465   3.946  16.947 -0.0954 -1.4344 -1.0903
 3530TIP3   OH234784   1.051   6.323  19.277 -0.2508  0.1013 -0.1994
 3530TIP3    H134785   1.035   6.414  19.253  1.9086  0.7607  0.6210
 3530TIP3    H234786   1.095   6.286  19.201  0.0602  0.1388 -0.0425
 3531TIP3   OH234787   0.200   3.101  18.747 -0.1372  0.1820 -0.2315
 3531TIP3    H134788   0.246   3.145  18.675 -0.6832  1.0648 -0.0540
 3531TIP3    H234789   0.267   3.089  18.814  0.3169 -0.4108 -0.7767
 3532TIP3   OH234790   7.558   0.765  16.576  0.0508 -0.6550 -1.0440
 3532TIP3    H134791   7.635   0.818  16.558 -0.9419  1.2698  0.1239
 3532TIP3    H234792   7.497   0.785  16.505 -0.2863 -0.3012 -0.6589
 3533TIP3   OH234793   4.026   1.112  19.565  0.3274 -0.3787 -0.3540
 3533TIP3    H134794   3.971   1.071  19.631  1.0044  0.2611  0.6431
 3533TIP3    H234795   4.113   1.073  19.579  1.2029  1.9060  1.1949
 3534TIP3   OH234796   2.441   6.563  19.550  0.4325 -0.1492  0.0019
 3534TIP3    H134797   2.429   6.658  19.558  0.0517 -0.0835 -1.2904
 3534TIP3    H234798   2.532   6.549  19.576  0.2556  0.4528  1.0216
 3535TIP3   OH234799   6.121   1.348  18.148 -0.2671 -0.0470  0.2618
 3535TIP3    H134800   6.122   1.307  18.061 -0.6694 -0.2898  0.3677
 3535TIP3    H234801   6.173   1.289  18.203 -0.4830 -0.1921  0.3132
 3536TIP3   OH234802   1.517   3.616  18.261 -0.2675 -0.3039  0.3001
 3536TIP3    H134803   1.513   3.545  18.325  0.4107 -1.6807 -1.1245
 3536TIP3    H234804   1.440   3.603  18.206 -0.7393  0.7594  0.6645
 3537TIP3   OH234805   4.773   0.001  18.993  0.6694 -0.1808 -0.0061
 3537TIP3    H134806   4.722  -0.075  19.022 -0.7261  0.4991 -0.5611
 3537TIP3    H234807   4.725   0.077  19.027  1.6206  0.4764 -0.0862
 3538TIP3   OH234808   1.821   2.678  19.586  0.6502 -0.1261 -0.3656
 3538TIP3    H134809   1.881   2.654  19.656 -0.5388  0.0078  0.7443
 3538TIP3    H234810   1.765   2.601  19.575  1.0817 -0.2959 -1.4639
 3539TIP3   OH234811   2.044   4.737  18.154  0.0132 -0.1553 -0.0516
 3539TIP3    H134812   2.122   4.747  18.208  0.3376 -2.2875 -0.0334
 3539TIP3    H234813   1.971   4.739  18.216 -0.2393  3.8333 -0.2409
 3540TIP3   OH234814   5.556   1.223  17.657  0.7211 -0.1719  0.5039
 3540TIP3    H134815   5.475   1.264  17.689 -1.1259 -3.0473 -0.1546
 3540TIP3    H234816   5.577   1.271  17.577 -0.5330  0.4400  0.5128
 3541TIP3   OH234817   2.322   7.131  19.321  0.4306 -0.2323 -0.2154
 3541TIP3    H134818   2.258   7.184  19.273  1.1586  1.1968  0.3344
 3541TIP3    H234819   2.388   7.109  19.256 -0.3026 -1.2234 -0.6492
 3542TIP3   OH234820   0.630   2.019  17.429  0.0574 -0.1427  0.5065
 3542TIP3    H134821   0.723   2.004  17.414  0.5342  2.2456  0.5677
 3542TIP3    H234822   0.620   2.017  17.524 -0.1822 -1.3584  0.4740
 3543TIP3   OH234823   0.596   4.470  17.838 -0.1785 -0.3717 -0.0905
 3543TIP3    H134824   0.623   4.547  17.889  2.0927 -0.8671 -0.4341
 3543TIP3    H234825   0.582   4.504  17.750 -0.0502 -0.2025 -0.0469
 3544TIP3   OH234826   5.966   3.992  18.912  0.3127  0.1305 -0.0868
 3544TIP3    H134827   5.902   4.058  18.940 -1.4769 -1.0625 -1.1905
 3544TIP3    H234828   5.990   4.018  18.823  1.9826  0.9668  0.5578
 3545TIP3   OH234829   1.684   0.692  19.520 -0.0846 -0.6135  0.0297
 3545TIP3    H134830   1.752   0.655  19.576  1.8812 -1.2566 -2.5874
 3545TIP3    H234831   1.732   0.743  19.454 -2.3283  0.9290 -0.5222
 3546TIP3   OH234832   3.793   0.694  17.932 -0.2026 -0.1498 -0.1817
 3546TIP3    H134833   3.857   0.704  18.003 -0.6754 -1.1931  0.4135
 3546TIP3    H234834   3.834   0.735  17.856  1.1103 -0.6505  0.2342
 3547TIP3   OH234835   2.548   2.370  17.923  0.0488  0.2840 -0.5331
 3547TIP3    H134836   2.578   2.293  17.874  1.6531  0.3787  0.2132
 3547TIP3    H234837   2.456   2.353  17.940  0.0921 -0.9441 -1.3649
 3548TIP3   OH234838   6.242   2.161  17.231 -0.0506  0.0567  0.7568
 3548TIP3    H134839   6.204   2.106  17.299 -0.7618 -2.3148 -1.3953
 3548TIP3    H234840   6.332   2.177  17.261 -0.7206  0.2347  2.8302
 3549TIP3   OH234841   7.278   6.569  18.271 -0.4927 -0.0482 -0.1425
 3549TIP3    H134842   7.336   6.584  18.197  1.3579 -0.8691  1.0682
 3549TIP3    H234843   7.295   6.478  18.297 -2.1321 -0.2245  0.4244
 3550TIP3   OH234844   7.328   2.487  17.624  0.1123 -0.6046  0.0295
 3550TIP3    H134845   7.305   2.569  17.580 -1.8013 -0.1989  1.6132
 3550TIP3    H234846   7.270   2.422  17.586 -0.2578 -0.6274  0.6068
 3551TIP3   OH234847   3.982   7.107  18.394  0.1304 -0.2585 -0.0574
 3551TIP3    H134848   4.000   7.195  18.360  1.9773  0.4186  2.3393
 3551TIP3    H234849   4.065   7.061  18.385 -0.3274 -1.1774  0.3129
 3552TIP3   OH234850   3.477   4.704  18.710  0.1526 -0.1953  0.3827
 3552TIP3    H134851   3.501   4.646  18.782  1.5202 -0.3291 -0.1443
 3552TIP3    H234852   3.541   4.775  18.714 -1.6695  1.4886  1.1928
 3553TIP3   OH234853   7.513   1.044  17.990 -0.4350 -0.3447 -0.0139
 3553TIP3    H134854   7.564   1.109  18.038  0.1774 -1.0109  0.2413
 3553TIP3    H234855   7.431   1.037  18.039 -0.6025  0.3876 -0.1711
 3554TIP3   OH234856   0.867   0.659  19.254 -0.5298 -0.0393  0.2832
 3554TIP3    H134857   0.866   0.577  19.304  0.6486 -0.7338 -0.7497
 3554TIP3    H234858   0.841   0.633  19.165  0.7022  0.5236 -0.2702
 3555TIP3   OH234859   3.463   1.681  17.100 -0.1931  0.0016  0.0367
 3555TIP3    H134860   3.521   1.698  17.025  0.8104 -1.1237  0.5181
 3555TIP3    H234861   3.380   1.654  17.061  0.5784 -1.4249 -0.7053
 3556TIP3   OH234862   0.367   5.016  18.088  0.1110 -0.2561  1.1602
 3556TIP3    H134863   0.278   5.047  18.104  0.4417  0.6002  1.4105
 3556TIP3    H234864   0.362   4.968  18.006 -0.2716  1.1868  0.3212
 3557TIP3   OH234865   1.541   5.806  18.530  0.1343  0.0444  0.3504
 3557TIP3    H134866   1.495   5.747  18.471 -0.4641  0.7509  0.0968
 3557TIP3    H234867   1.578   5.749  18.598 -2.5098 -0.4274  1.5056
 3558TIP3   OH234868   6.244   0.897  18.006  0.5322 -0.3591  0.1844
 3558TIP3    H134869   6.152   0.920  17.989  0.9249  1.1045 -0.1201
 3558TIP3    H234870   6.244   0.801  18.009 -0.8982 -0.4173 -0.4394
 3559TIP3   OH234871   7.025   5.513  18.103 -0.6326  0.1669  0.2315
 3559TIP3    H134872   7.008   5.471  18.019 -1.8651  0.4697  0.3023
 3559TIP3    H234873   7.051   5.603  18.081 -0.6525  0.1542  0.1572
 3560TIP3   OH234874   1.136   4.683  17.200 -0.0223 -0.2564 -0.3558
 3560TIP3    H134875   1.220   4.643  17.178  0.9067  0.8336  1.0428
 3560TIP3    H234876   1.082   4.670  17.122  1.2391 -1.4854 -1.0744
 3561TIP3   OH234877   6.711   2.482  18.354 -0.2019 -0.1791 -0.3383
 3561TIP3    H134878   6.661   2.402  18.336 -1.0630  0.3454 -0.3130
 3561TIP3    H234879   6.735   2.475  18.446 -0.2759 -0.3958 -0.3343
 3562TIP3   OH234880   5.643   3.751  18.831  0.2109  0.1240 -0.0902
 3562TIP3    H134881   5.693   3.770  18.911  0.4205 -0.9768  0.0460
 3562TIP3    H234882   5.693   3.795  18.762 -0.3356  1.6651  0.4404
 3563TIP3   OH234883   5.388   0.490  17.186  0.4270 -0.3678 -0.5100
 3563TIP3    H134884   5.468   0.511  17.234 -0.0644 -0.2350  0.2697
 3563TIP3    H234885   5.331   0.449  17.251 -0.8668  1.2606 -0.5530
 3564TIP3   OH234886   0.749   4.859  17.411  0.0025  0.2431  0.3341
 3564TIP3    H134887   0.831   4.894  17.445  0.7822  0.2097 -1.4258
 3564TIP3    H234888   0.757   4.865  17.316 -0.6772 -2.8043 -0.0209
 3565TIP3   OH234889   2.339   6.757  18.777 -0.1528 -0.2229 -0.7390
 3565TIP3    H134890   2.248   6.777  18.759 -0.6280 -0.3877  1.3055
 3565TIP3    H234891   2.337   6.676  18.828  1.1021  0.0401 -0.2243
 3566TIP3   OH234892   5.533   5.264  17.880 -0.5033  0.1430 -0.0388
 3566TIP3    H134893   5.580   5.286  17.960 -0.4144 -0.8137  0.1924
 3566TIP3    H234894   5.510   5.171  17.891  0.0598 -0.1780 -1.3796
 3567TIP3   OH234895   2.161   5.707  18.382  0.0413 -0.2246  0.1689
 3567TIP3    H134896   2.197   5.796  18.384 -0.1601 -0.1043 -0.9121
 3567TIP3    H234897   2.069   5.717  18.405  0.1704 -0.2355  0.6846
 3568TIP3   OH234898   5.229   2.721  18.517 -0.1205  0.0244  0.6051
 3568TIP3    H134899   5.236   2.699  18.424  1.7114 -2.5223  1.2406
 3568TIP3    H234900   5.282   2.800  18.527  0.2089 -0.0563 -0.3983
 3569TIP3   OH234901   6.196   4.499  18.617 -0.1184  0.2208  0.1865
 3569TIP3    H134902   6.203   4.526  18.525  1.0165  0.8604  0.4440
 3569TIP3    H234903   6.157   4.412  18.613 -2.3470  1.1954 -0.7590
 3570TIP3   OH234904   5.236   7.634  18.073 -0.6189  0.3958 -0.0420
 3570TIP3    H134905   5.288   7.568  18.119  0.5177  1.1269 -0.2410
 3570TIP3    H234906   5.273   7.637  17.985 -0.7859  1.1614 -0.0919
 3571TIP3   OH234907   7.180   2.164  18.008  0.0439 -0.4837 -0.1103
 3571TIP3    H134908   7.240   2.227  18.048  2.0079 -0.8142 -2.3044
 3571TIP3    H234909   7.109   2.155  18.071  1.5312  1.1140  1.9356
 3572TIP3   OH234910   1.320   6.363  19.505 -0.6219 -0.0765  0.2108
 3572TIP3    H134911   1.293   6.344  19.415 -1.2267  1.5118  0.0219
 3572TIP3    H234912   1.303   6.456  19.516  1.5056  0.2628  1.2594
 3573TIP3   OH234913   0.272   0.227  19.353 -0.3590 -0.2618  0.2337
 3573TIP3    H134914   0.260   0.139  19.387 -0.6875 -0.7642 -1.1370
 3573TIP3    H234915   0.264   0.218  19.258  1.7511  0.8760 -0.1290
 3574TIP3   OH234916   5.479   7.438  18.813 -0.2330  0.6800  0.0835
 3574TIP3    H134917   5.426   7.459  18.736  1.4951  1.9223 -0.8279
 3574TIP3    H234918   5.562   7.407  18.777 -0.7415 -2.6633  1.4600
 3575TIP3   OH234919   1.814   2.445  17.190  0.0946  0.3282  0.1560
 3575TIP3    H134920   1.753   2.372  17.205  0.0776  0.4822  0.8738
 3575TIP3    H234921   1.842   2.435  17.099 -1.0766  0.3000 -0.2216
 3576TIP3   OH234922   3.485   4.806  18.144  0.2837 -0.3753  0.2643
 3576TIP3    H134923   3.575   4.833  18.164  0.6138 -1.6538  0.6018
 3576TIP3    H234924   3.465   4.740  18.210 -0.8241 -0.2774  0.0354
 3577TIP3   OH234925   4.773   1.645  18.486  0.0373 -0.3387  0.0230
 3577TIP3    H134926   4.855   1.693  18.477  0.8393 -1.5454  0.5216
 3577TIP3    H234927   4.799   1.553  18.487 -1.5837 -0.9323 -2.6099
 3578TIP3   OH234928   1.370   2.678  18.887 -0.6817  0.3647 -0.0179
 3578TIP3    H134929   1.423   2.602  18.909 -2.8700 -0.6279  2.2421
 3578TIP3    H234930   1.434   2.749  18.874  1.3934 -1.6558 -1.8432
 3579TIP3   OH234931   2.842   1.144  17.189  0.0747  0.4205 -0.5223
 3579TIP3    H134932   2.891   1.201  17.247  0.8955 -1.0434  0.2928
 3579TIP3    H234933   2.758   1.131  17.232 -0.1406  1.0475 -0.7451
 3580TIP3   OH234934   0.380   1.987  16.900 -0.0315  0.2137  0.1333
 3580TIP3    H134935   0.318   2.056  16.921 -0.7915  0.2482 -2.0359
 3580TIP3    H234936   0.429   2.020  16.824  1.9274 -0.2737  1.1004
 3581TIP3   OH234937   2.560   4.078  18.335  0.7246  0.6552 -0.9213
 3581TIP3    H134938   2.598   3.990  18.336  0.0170  0.3377 -1.2213
 3581TIP3    H234939   2.589   4.115  18.252  0.8696  0.6363 -0.8794
 3582TIP3   OH234940   2.083   3.201  17.138 -0.2295 -0.2080 -0.3942
 3582TIP3    H134941   2.060   3.216  17.046 -0.6331  0.2493 -0.2187
 3582TIP3    H234942   2.066   3.108  17.151 -2.2307  0.1403 -0.2103
 3583TIP3   OH234943   3.034   2.451  17.368 -0.2108 -0.3390  0.1656
 3583TIP3    H134944   3.001   2.427  17.455 -0.1896 -0.1666  0.2222
 3583TIP3    H234945   2.958   2.440  17.311 -0.4781  0.4367  0.3626
 3584TIP3   OH234946   0.696   0.032  17.656  0.1073 -0.0017 -0.0830
 3584TIP3    H134947   0.617  -0.022  17.650 -0.2991  0.6619 -0.8405
 3584TIP3    H234948   0.768  -0.031  17.653 -0.3752 -0.5617 -0.0601
 3585TIP3   OH234949   3.841   6.016  19.359 -0.1010  0.3592 -0.8435
 3585TIP3    H134950   3.797   5.932  19.347  0.4998  0.1623 -1.7905
 3585TIP3    H234951   3.823   6.065  19.279 -0.0451  0.9448 -0.5048
 3586TIP3   OH234952   4.853   6.699  18.470 -0.0193  0.5017  0.1362
 3586TIP3    H134953   4.924   6.699  18.533  0.2897  0.8445 -0.2049
 3586TIP3    H234954   4.849   6.609  18.437  0.2269  0.4728  0.1889
 3587TIP3   OH234955   2.835   5.949  18.689 -0.4644 -0.3486  0.3764
 3587TIP3    H134956   2.895   5.898  18.634  0.2734  0.4742  0.4038
 3587TIP3    H234957   2.751   5.944  18.644 -0.8304 -2.8750  1.1429
 3588TIP3   OH234958   4.151   4.179  19.043 -0.2312  0.1581 -0.6227
 3588TIP3    H134959   4.151   4.275  19.047 -0.5808  0.1214  0.3755
 3588TIP3    H234960   4.221   4.158  18.980 -0.3690  1.0723 -1.0980
 3589TIP3   OH234961   2.552   0.757  16.893  0.6924  0.0320  0.6353
 3589TIP3    H134962   2.484   0.798  16.839  0.5916 -2.2096 -1.0951
 3589TIP3    H234963   2.621   0.823  16.899  0.1681  0.8195 -1.2232
 3590TIP3   OH234964   1.235   7.075  17.446  0.4777 -0.3445 -0.0872
 3590TIP3    H134965   1.200   7.005  17.391 -0.5360 -0.0373  0.1455
 3590TIP3    H234966   1.235   7.039  17.535  1.9522 -0.7809 -0.2494
 3591TIP3   OH234967   3.465   7.647  17.606 -0.1776 -0.7284  0.5150
 3591TIP3    H134968   3.502   7.689  17.684 -1.1369 -0.2717  0.7397
 3591TIP3    H234969   3.447   7.720  17.546  1.7091 -1.1814 -0.6593
 3592TIP3   OH234970   2.214   0.050  18.566 -0.0478 -0.0337 -0.1004
 3592TIP3    H134971   2.159   0.121  18.533  0.4435 -0.2752 -1.4802
 3592TIP3    H234972   2.304   0.077  18.547  0.1440 -1.0228 -0.6644
 3593TIP3   OH234973   4.257   7.080  19.415  0.0295  0.5886 -0.0693
 3593TIP3    H134974   4.181   7.124  19.377 -1.0373 -0.8205  0.3600
 3593TIP3    H234975   4.263   6.997  19.368  1.0227  0.4657  0.2425
 3594TIP3   OH234976   0.054   3.678  18.307 -0.2039 -0.2621 -0.1168
 3594TIP3    H134977  -0.042   3.676  18.306 -0.2277 -0.7184  1.3295
 3594TIP3    H234978   0.080   3.603  18.254 -0.6437 -0.3635 -0.1962
 3595TIP3   OH234979   3.949   7.167  18.692 -0.1733 -0.3879 -0.5584
 3595TIP3    H134980   3.859   7.194  18.713 -0.8114 -1.0260 -2.2607
 3595TIP3    H234981   3.939   7.108  18.616  1.6482 -0.8500 -0.4805
 3596TIP3   OH234982   3.310   5.267  18.289 -0.0520 -0.0799  0.3933
 3596TIP3    H134983   3.250   5.193  18.286  0.3994 -0.4126 -0.7746
 3596TIP3    H234984   3.397   5.228  18.279  0.1594  0.6332 -0.7519
 3597TIP3   OH234985   2.582   7.493  18.662 -0.1025 -0.2064 -0.4019
 3597TIP3    H134986   2.669   7.482  18.624  0.2296 -1.0243  0.5550
 3597TIP3    H234987   2.592   7.468  18.754 -1.3424 -0.2984 -0.2699
 3598TIP3   OH234988   1.745   1.941  18.128  0.0552 -0.0295  0.5550
 3598TIP3    H134989   1.794   1.897  18.197 -1.3210 -0.9125  1.0197
 3598TIP3    H234990   1.663   1.892  18.122 -0.9009  1.5493  0.0286
 3599TIP3   OH234991   5.540   3.983  18.950 -0.1709  0.0569 -0.5662
 3599TIP3    H134992   5.460   4.022  18.916  0.5543  0.7050 -1.5691
 3599TIP3    H234993   5.574   3.930  18.878 -0.1214 -0.9093  0.1353
 3600TIP3   OH234994   2.464   1.728  16.836  0.4491 -0.2281  0.3508
 3600TIP3    H134995   2.552   1.728  16.876  0.1923 -0.1612  0.9287
 3600TIP3    H234996   2.405   1.747  16.909 -0.2460 -2.4920  0.4650
 3601TIP3   OH234997   6.319   6.386  17.945  0.0307  0.0662 -0.2339
 3601TIP3    H134998   6.335   6.370  17.852 -0.4902  0.8883 -0.4763
 3601TIP3    H234999   6.289   6.301  17.978 -0.8702  0.0322 -1.0686
 3602TIP3   OH235000   1.193   3.185  19.524 -0.4067 -0.6942 -0.0203
 3602TIP3    H135001   1.213   3.091  19.521 -0.4367 -0.7023  0.0259
 3602TIP3    H235002   1.106   3.190  19.563 -0.8304 -0.6957 -0.9645
 3603TIP3   OH235003   6.848   3.077  18.670 -0.0294 -0.0013  0.1873
 3603TIP3    H135004   6.912   3.069  18.599 -1.5632  1.8948 -1.5111
 3603TIP3    H235005   6.880   3.150  18.723  1.3471 -1.6831  1.8279
 3604TIP3   OH235006   6.190   5.144  19.185 -0.4617 -0.3621 -0.2935
 3604TIP3    H135007   6.259   5.129  19.249  1.2481 -0.4609 -2.0357
 3604TIP3    H235008   6.211   5.085  19.113 -2.1472 -0.0889 -1.0760
 3605TIP3   OH235009   5.105   2.206  18.129 -0.0638  0.1662 -0.2877
 3605TIP3    H135010   5.104   2.261  18.050 -0.9150  1.9444  0.8895
 3605TIP3    H235011   5.021   2.160  18.127 -0.7489  1.3441  0.2925
 3606TIP3   OH235012   2.685   4.034  17.095  0.1046  0.2295 -0.4157
 3606TIP3    H135013   2.712   4.126  17.101  0.1499  0.2216 -0.4902
 3606TIP3    H235014   2.592   4.035  17.116  0.1117  0.2881 -0.3857
 3607TIP3   OH235015   5.934   3.886  17.084  0.5224  0.3966 -0.4801
 3607TIP3    H135016   6.002   3.945  17.051 -0.3053  1.5595 -0.1734
 3607TIP3    H235017   5.967   3.799  17.064  1.0573  0.9853 -2.4378
 3608TIP3   OH235018   5.568   0.975  17.553  0.0926  0.1103 -0.1033
 3608TIP3    H135019   5.497   0.949  17.494  0.9675 -0.7325 -0.8217
 3608TIP3    H235020   5.552   1.068  17.570 -0.8886  0.0610 -0.6494
 3609TIP3   OH235021   3.474   5.381  17.148  0.0358  0.5633  0.4552
 3609TIP3    H135022   3.438   5.450  17.093  0.0138 -0.9636 -1.5587
 3609TIP3    H235023   3.567   5.376  17.123 -0.4011 -1.4419 -0.9448
 3610TIP3   OH235024   5.313   4.582  17.958 -0.1467 -0.7157  0.3657
 3610TIP3    H135025   5.280   4.534  18.035 -0.9909 -2.0729 -0.7728
 3610TIP3    H235026   5.235   4.624  17.921  0.4631  0.9621  0.9176
 3611TIP3   OH235027   7.313   4.701  18.779 -0.2373  0.4276  0.0278
 3611TIP3    H135028   7.346   4.790  18.767  0.6529 -0.1350 -2.0914
 3611TIP3    H235029   7.360   4.669  18.857 -0.3393  1.6773  0.6289
 3612TIP3   OH235030   0.086   5.958  16.909  0.4210  0.5391  0.5069
 3612TIP3    H135031   0.064   6.032  16.853  2.2043  0.4077 -0.4469
 3612TIP3    H235032   0.105   5.996  16.994 -2.1469  0.7612  1.0615
 3613TIP3   OH235033   4.480   7.158  17.841  0.3410  0.0047 -0.4336
 3613TIP3    H135034   4.525   7.175  17.758  1.4203  1.1432  0.3511
 3613TIP3    H235035   4.540   7.190  17.908 -1.0774  0.3429  0.7193
 3614TIP3   OH235036   4.482   7.249  19.456  0.1586  0.7259 -0.5286
 3614TIP3    H135037   4.491   7.273  19.548  0.4240  0.0442 -0.3699
 3614TIP3    H235038   4.414   7.182  19.455  2.5227 -1.8478 -0.3353
 3615TIP3   OH235039   7.307   5.405  19.276 -0.1208  0.6590  0.2741
 3615TIP3    H135040   7.224   5.363  19.252  1.1503 -1.2870 -0.9320
 3615TIP3    H235041   7.338   5.445  19.194  0.3440  1.0053  0.6151
 3616TIP3   OH235042   4.453   0.448  18.115 -0.3155 -0.0778  0.0690
 3616TIP3    H135043   4.504   0.474  18.192 -1.3337  0.1909  0.6827
 3616TIP3    H235044   4.501   0.484  18.041 -0.8676  2.3084  0.7764
 3617TIP3   OH235045   1.869   6.204  18.794  0.6101 -0.0360  0.2291
 3617TIP3    H135046   1.815   6.208  18.873  2.4658 -1.5418  1.6653
 3617TIP3    H235047   1.847   6.120  18.755 -0.5307  0.8341 -1.1128
 3618TIP3   OH235048   7.309   6.507  17.437 -0.1495  0.3041  0.3611
 3618TIP3    H135049   7.378   6.573  17.441  1.4580 -1.3273  3.0295
 3618TIP3    H235050   7.248   6.533  17.506 -2.1482  1.5197 -1.7265
 3619TIP3   OH235051   4.640   6.574  18.772 -0.3167  0.1697 -0.3182
 3619TIP3    H135052   4.572   6.562  18.839  1.0413  0.6498  1.2015
 3619TIP3    H235053   4.609   6.649  18.721 -1.2213  0.0153 -0.0187
 3620TIP3   OH235054   2.000   4.712  18.907  0.2027  0.5451  0.1475
 3620TIP3    H135055   2.092   4.689  18.895  0.6635  2.2608  0.0811
 3620TIP3    H235056   1.979   4.767  18.832 -0.7604  0.5178  0.3815
 3621TIP3   OH235057   3.422   0.008  18.149 -0.2089  0.4050  0.4661
 3621TIP3    H135058   3.478  -0.067  18.133 -2.0682 -1.0785  0.5375
 3621TIP3    H235059   3.337  -0.030  18.173 -1.0904  2.5285  0.9579
 3622TIP3   OH235060   4.948   0.242  18.038 -0.6134 -0.0323  0.3223
 3622TIP3    H135061   4.949   0.289  17.955  1.9323 -0.4066  0.0589
 3622TIP3    H235062   4.941   0.150  18.014  0.5167 -0.1684  0.4822
 3623TIP3   OH235063   3.415   1.253  17.673  0.6805 -0.3712 -0.1429
 3623TIP3    H135064   3.432   1.176  17.727 -1.4429 -0.7445  0.0824
 3623TIP3    H235065   3.426   1.222  17.583 -0.2786 -0.9923 -0.0573
 3624TIP3   OH235066   2.215   3.597  18.759  0.1871  0.3810  0.6649
 3624TIP3    H135067   2.154   3.641  18.699  1.2337  1.0890  0.0852
 3624TIP3    H235068   2.292   3.655  18.761  0.0129  0.6441  3.0636
 3625TIP3   OH235069   4.683   1.640  17.441  0.5286 -0.2034  0.1095
 3625TIP3    H135070   4.677   1.703  17.370  1.5995  0.1751  0.3449
 3625TIP3    H235071   4.610   1.579  17.425 -0.6094  1.1540 -0.0382
 3626TIP3   OH235072   7.393   7.072  17.730 -0.1731  0.3227 -0.5295
 3626TIP3    H135073   7.392   7.014  17.654  0.9600 -1.1107  0.4921
 3626TIP3    H235074   7.372   7.158  17.694  2.8165  0.2272 -2.9616
 3627TIP3   OH235075   6.512   0.527  18.677  0.1651 -0.5372 -0.0932
 3627TIP3    H135076   6.459   0.477  18.740 -4.4471  1.1313 -2.2295
 3627TIP3    H235077   6.524   0.468  18.603 -0.4412 -0.3014 -0.3853
 3628TIP3   OH235078   5.099   1.900  17.652 -0.1619  0.4035 -0.4912
 3628TIP3    H135079   5.142   1.834  17.706  0.9436  0.2190 -1.5646
 3628TIP3    H235080   5.028   1.852  17.609 -2.4736  0.9915  2.3005
 3629TIP3   OH235081   2.252   6.529  18.551  0.4646  0.0341  0.2388
 3629TIP3    H135082   2.182   6.536  18.616 -1.2574 -0.8826 -1.4334
 3629TIP3    H235083   2.217   6.571  18.473  1.5889 -0.8523 -0.7875
 3630TIP3   OH235084   6.009   2.983  16.984  0.4017  0.1611  0.2746
 3630TIP3    H135085   6.038   2.904  16.939 -1.1070 -0.1364 -0.2250
 3630TIP3    H235086   5.970   3.037  16.916  0.2182  0.7548  0.8379
 3631TIP3   OH235087   3.769   0.738  18.290 -0.6357  0.3581 -0.0750
 3631TIP3    H135088   3.807   0.658  18.324 -0.4766  1.0789  1.5419
 3631TIP3    H235089   3.683   0.711  18.256  0.0004 -0.7212 -0.8719
 3632TIP3   OH235090   1.023   0.139  19.620 -0.8378  0.3749 -0.4999
 3632TIP3    H135091   1.062   0.224  19.642  2.4643 -1.6874  3.0629
 3632TIP3    H235092   1.088   0.096  19.565 -0.4428 -1.2105  1.0949
 3633TIP3   OH235093   6.378   6.651  17.935  0.7311  0.6960 -0.9028
 3633TIP3    H135094   6.473   6.644  17.933  0.9523  1.6747  1.9480
 3633TIP3    H235095   6.348   6.563  17.958  1.2059  1.0138  1.1145
 3634TIP3   OH235096   7.677   1.765  17.449  0.3285  0.3176  0.3569
 3634TIP3    H135097   7.681   1.818  17.369  0.7269  0.4994  0.4952
 3634TIP3    H235098   7.584   1.747  17.461  0.3515 -0.5505 -0.7010
 3635TIP3   OH235099   4.231   5.651  19.265 -0.2696  0.1685 -0.0510
 3635TIP3    H135100   4.208   5.721  19.326 -0.4958  0.3778 -0.3691
 3635TIP3    H235101   4.269   5.697  19.190 -0.9440 -0.0004 -0.5070
 3636TIP3   OH235102   2.353   1.004  19.110 -1.0765  0.2028  0.0336
 3636TIP3    H135103   2.397   0.990  19.026  0.9066 -1.4762  1.2474
 3636TIP3    H235104   2.342   1.099  19.116  0.0998  0.4724 -1.4622
 3637TIP3   OH235105   6.643   3.843  17.118 -0.8900  0.0218 -0.1999
 3637TIP3    H135106   6.650   3.914  17.181 -1.4646  0.5740 -0.7465
 3637TIP3    H235107   6.711   3.780  17.145  0.5125  1.3635 -0.4799
 3638TIP3   OH235108   5.621   0.573  17.970 -0.2185 -0.1486 -0.3563
 3638TIP3    H135109   5.557   0.515  18.012  0.6827 -0.4582  0.6284
 3638TIP3    H235110   5.657   0.625  18.042  1.6661 -0.9667 -0.6521
 3639TIP3   OH235111   1.678   1.464  18.853  0.6712 -0.2188 -0.4012
 3639TIP3    H135112   1.622   1.399  18.895  0.5917 -0.8046 -1.3762
 3639TIP3    H235113   1.749   1.414  18.814  0.8018  0.3091 -0.8663
 3640TIP3   OH235114   3.435   0.300  18.140  0.4940 -0.2996  0.1224
 3640TIP3    H135115   3.450   0.223  18.086 -0.9428 -1.3435  1.1478
 3640TIP3    H235116   3.405   0.367  18.079 -0.8483 -1.3824 -0.4542
 3641TIP3   OH235117   4.923   2.175  17.106 -0.3120  0.1809  0.1701
 3641TIP3    H135118   4.900   2.267  17.097 -0.5640 -0.0444 -1.8810
 3641TIP3    H235119   4.840   2.128  17.104 -0.0954 -0.1909 -0.5008
 3642TIP3   OH235120   5.185   7.623  17.579 -0.2133  0.4274  0.3357
 3642TIP3    H135121   5.095   7.617  17.548 -0.1840  0.9876  0.1377
 3642TIP3    H235122   5.226   7.689  17.523  0.1036  0.7365  0.9206
 3643TIP3   OH235123   6.320   4.844  18.416  0.8976  0.0383 -0.0304
 3643TIP3    H135124   6.337   4.921  18.470  1.4917 -0.0762 -0.0456
 3643TIP3    H235125   6.340   4.770  18.474  1.0025 -0.0911 -0.2346
 3644TIP3   OH235126   1.007   3.235  16.585 -0.5343  0.2100  0.5796
 3644TIP3    H135127   1.059   3.157  16.566 -1.4032 -0.0479 -0.9078
 3644TIP3    H235128   1.070   3.307  16.588  0.0651 -0.2915  0.0817
 3645TIP3   OH235129   1.221   4.127  17.735 -0.2960 -0.4611  0.5589
 3645TIP3    H135130   1.225   4.047  17.787  0.1340 -0.9280 -0.1767
 3645TIP3    H235131   1.220   4.097  17.644 -2.6553  0.2653  0.2651
 3646TIP3   OH235132   0.135   7.071  17.156  0.3681 -0.6201  0.1469
 3646TIP3    H135133   0.104   6.986  17.187  0.5580 -1.4878 -1.9347
 3646TIP3    H235134   0.227   7.057  17.134  0.1272 -0.1941 -1.2299
 3647TIP3   OH235135   6.897   0.003  18.418 -0.3871 -0.3821  0.5318
 3647TIP3    H135136   6.867   0.020  18.507  3.4906  1.6391  1.6611
 3647TIP3    H235137   6.926  -0.088  18.419  0.3615 -0.1539  1.6365
 3648TIP3   OH235138   4.240   6.108  18.330  0.3865  0.5103  0.3176
 3648TIP3    H135139   4.168   6.088  18.270  0.2792  0.0140  0.6155
 3648TIP3    H235140   4.317   6.071  18.287  0.1102 -1.0889  1.1285
 3649TIP3   OH235141   4.937   1.414  17.408  0.0742 -0.8188 -0.2738
 3649TIP3    H135142   4.899   1.374  17.330 -0.2063 -2.1955  0.5408
 3649TIP3    H235143   5.012   1.358  17.429  1.5127  0.8225 -0.8093
 3650TIP3   OH235144   7.630   4.419  17.521  0.0958 -0.8079 -0.6785
 3650TIP3    H135145   7.548   4.389  17.481  0.5940 -0.5221 -1.9851
 3650TIP3    H235146   7.698   4.365  17.480  0.6162 -0.6701 -0.0106
 3651TIP3   OH235147   0.956   5.641  18.177 -0.0562  0.2528  0.1026
 3651TIP3    H135148   0.943   5.645  18.082  1.1196  0.3711 -0.0752
 3651TIP3    H235149   0.881   5.592  18.210  0.9246 -2.3908 -1.2470
 3652TIP3   OH235150   4.353   6.100  17.566 -0.4364  0.3183 -0.3829
 3652TIP3    H135151   4.332   6.013  17.532 -0.8742  0.4310 -0.4020
 3652TIP3    H235152   4.386   6.148  17.490  0.0135  0.1085 -0.3282
 3653TIP3   OH235153   1.087   4.578  17.461  0.2679 -0.6248 -0.2705
 3653TIP3    H135154   1.098   4.637  17.387  2.2856  0.7623  1.0156
 3653TIP3    H235155   1.009   4.526  17.440 -0.0128  0.6431 -2.6817
 3654TIP3   OH235156   5.104   5.740  18.614 -0.0021 -0.9531  0.8252
 3654TIP3    H135157   5.106   5.807  18.683  1.4006 -1.0807  0.9348
 3654TIP3    H235158   5.127   5.659  18.659 -2.7946 -1.7965  0.9230
 3655TIP3   OH235159   0.839   3.874  18.132 -0.3704  0.1932 -0.6632
 3655TIP3    H135160   0.920   3.916  18.104  0.0726 -1.6066 -2.2812
 3655TIP3    H235161   0.861   3.832  18.215 -0.2278  1.3173 -0.1133
 3656TIP3   OH235162   6.600   7.433  17.372 -0.2348  0.0806  0.4988
 3656TIP3    H135163   6.617   7.383  17.292 -1.5188 -0.3070  0.4462
 3656TIP3    H235164   6.618   7.371  17.443 -1.6987 -0.4625  0.4365
 3657TIP3   OH235165   3.807   2.688  16.487  0.5847 -0.0532  0.0976
 3657TIP3    H135166   3.900   2.703  16.473  0.2329  1.8196 -0.5113
 3657TIP3    H235167   3.786   2.613  16.431  1.4252  0.4596 -0.9338
 3658TIP3   OH235168   1.710   4.497  18.252 -0.7411  0.9316 -0.1490
 3658TIP3    H135169   1.738   4.511  18.161  0.7227 -1.0070 -0.0473
 3658TIP3    H235170   1.757   4.564  18.302 -0.5721  1.2047 -0.6624
 3659TIP3   OH235171   4.557   4.552  19.029  0.1293 -0.1477 -0.0433
 3659TIP3    H135172   4.507   4.480  18.991  0.9353 -1.9433  2.1127
 3659TIP3    H235173   4.533   4.628  18.976 -1.8392 -1.7008 -1.5297
 3660TIP3   OH235174   6.864   5.575  19.144 -0.1055 -0.2508 -0.7336
 3660TIP3    H135175   6.938   5.612  19.192 -0.7649  0.0456  0.0843
 3660TIP3    H235176   6.787   5.599  19.196 -0.7615 -0.7289 -1.4553
 3661TIP3   OH235177   1.953   3.213  18.029  0.3264  0.5590 -0.2678
 3661TIP3    H135178   1.926   3.150  18.095 -0.4770  0.1392 -0.9859
 3661TIP3    H235179   2.004   3.278  18.077  0.5096 -0.2168  0.6052
 3662TIP3   OH235180   1.934   0.760  18.327 -0.1888 -0.0974 -0.4622
 3662TIP3    H135181   1.852   0.786  18.285 -0.0564 -0.6698 -1.0923
 3662TIP3    H235182   1.952   0.830  18.391 -1.0512  0.1352 -0.4639
 3663TIP3   OH235183   4.318   0.114  18.880  1.0364  0.2947  0.5043
 3663TIP3    H135184   4.234   0.135  18.922  1.5234  0.2115  1.5293
 3663TIP3    H235185   4.363   0.059  18.943  2.5917  1.7456  0.7279
 3664TIP3   OH235186   4.715   2.421  18.613 -0.0850  0.0218 -0.2541
 3664TIP3    H135187   4.793   2.388  18.568  0.0902 -1.4076  1.0156
 3664TIP3    H235188   4.743   2.431  18.704 -0.4164  2.8655 -0.3751
 3665TIP3   OH235189   3.288   3.403  17.156  0.6590  0.1580 -0.1090
 3665TIP3    H135190   3.249   3.366  17.077 -0.6313 -1.9081  1.4087
 3665TIP3    H235191   3.214   3.422  17.213  1.6449 -1.5735  1.8974
 3666TIP3   OH235192   3.279   6.453  17.633  0.1267 -0.0958  0.8345
 3666TIP3    H135193   3.204   6.510  17.614  1.4052  0.8852 -1.8973
 3666TIP3    H235194   3.341   6.510  17.678 -0.1274 -0.4659  1.6650
 3667TIP3   OH235195   3.330   1.366  16.770 -0.1683  0.7743 -0.1004
 3667TIP3    H135196   3.297   1.277  16.784 -1.2028  0.9656 -1.1334
 3667TIP3    H235197   3.424   1.360  16.789  0.2287 -1.0664 -2.2092
 3668TIP3   OH235198   4.425   6.395  19.417 -0.1618  0.5812  0.1527
 3668TIP3    H135199   4.349   6.416  19.471 -1.4406 -0.6662 -1.0876
 3668TIP3    H235200   4.440   6.302  19.431  0.9968  0.7468  0.1603
 3669TIP3   OH235201   1.098   1.755  17.653 -0.3531 -0.0307  0.1037
 3669TIP3    H135202   1.047   1.719  17.580 -0.5959  0.9762 -0.2459
 3669TIP3    H235203   1.184   1.775  17.614 -0.3014 -0.0079  0.2300
 3670TIP3   OH235204   7.567   3.975  17.869 -0.6795  0.4016 -0.3350
 3670TIP3    H135205   7.606   4.062  17.860 -0.0194  0.0326 -1.2548
 3670TIP3    H235206   7.574   3.955  17.962  1.8612  0.1543 -0.5067
 3671TIP3   OH235207   2.395   0.366  18.021  0.3095  0.0694  0.6023
 3671TIP3    H135208   2.480   0.371  17.978 -0.5869  0.4953 -1.2368
 3671TIP3    H235209   2.352   0.291  17.981 -0.3116  0.0646  1.2512
 3672TIP3   OH235210   6.353   3.386  18.351  0.2773 -0.1092  0.3935
 3672TIP3    H135211   6.340   3.325  18.423  0.0702 -1.2770 -0.5879
 3672TIP3    H235212   6.427   3.440  18.377  1.3787 -1.7148  0.7065
 3673TIP3   OH235213   4.020   0.946  18.336 -0.0150  0.1772  0.5407
 3673TIP3    H135214   3.993   0.857  18.359 -1.3254  0.4708  0.2435
 3673TIP3    H235215   4.102   0.959  18.383  0.8932 -1.6253 -0.3999
 3674TIP3   OH235216   0.201   4.450  16.746 -0.6832 -0.3215  0.4363
 3674TIP3    H135217   0.170   4.475  16.659  2.0557  1.8324 -0.0445
 3674TIP3    H235218   0.296   4.462  16.743 -0.2493 -2.0618  3.1703
 3675TIP3   OH235219   2.107   2.504  18.897  0.3251  0.1309 -0.2789
 3675TIP3    H135220   2.071   2.587  18.928  2.5619  1.4777 -1.0909
 3675TIP3    H235221   2.157   2.470  18.971  0.6722  0.3012 -0.4306
 3676TIP3   OH235222   5.307   7.366  19.029 -0.1092 -0.1467 -0.4793
 3676TIP3    H135223   5.375   7.419  18.989  0.0634  0.0307  0.0390
 3676TIP3    H235224   5.260   7.327  18.955  0.2724  0.0823 -0.8458
 3677TIP3   OH235225   2.711   1.424  19.444  0.2024  0.2740  0.2661
 3677TIP3    H135226   2.804   1.434  19.467  0.2872 -0.9545  0.5740
 3677TIP3    H235227   2.710   1.349  19.384 -0.6882 -0.3720  1.0574
 3678TIP3   OH235228   2.436   3.486  18.570 -0.2706 -0.0296 -0.2191
 3678TIP3    H135229   2.437   3.439  18.487  0.9735 -1.0290  0.3270
 3678TIP3    H235230   2.378   3.560  18.555  1.1512  0.7175 -2.4746
 3679TIP3   OH235231   0.999   2.120  18.386 -0.5624 -0.0728  0.2318
 3679TIP3    H135232   1.042   2.196  18.425  0.5332 -0.2041 -0.6704
 3679TIP3    H235233   0.942   2.086  18.455 -1.3282  1.7518  0.5368
 3680TIP3   OH235234   1.723   6.860  17.451  0.0478  0.5057  0.4215
 3680TIP3    H135235   1.648   6.905  17.412  0.0436  0.3770  0.2847
 3680TIP3    H235236   1.688   6.775  17.479  0.2857  0.2029 -0.1892
 3681TIP3   OH235237   7.534   3.423  18.433 -0.4405 -0.3774 -0.2327
 3681TIP3    H135238   7.456   3.382  18.468 -0.5480  0.2769  0.3119
 3681TIP3    H235239   7.556   3.492  18.496  0.3277 -0.2779 -0.5917
 3682TIP3   OH235240   0.513   4.520  17.544 -0.3248  0.2934 -0.2869
 3682TIP3    H135241   0.493   4.435  17.504  2.1089 -0.5706  0.1719
 3682TIP3    H235242   0.429   4.565  17.548 -1.6800 -2.0587 -0.6069
 3683TIP3   OH235243   4.878   3.235  17.132 -0.3512  0.2523  0.0542
 3683TIP3    H135244   4.949   3.171  17.141 -1.1850 -0.5311  1.5178
 3683TIP3    H235245   4.815   3.193  17.073 -0.6651 -0.0955  0.6216
 3684TIP3   OH235246   0.011   2.089  17.342  0.4153 -0.5639  0.3620
 3684TIP3    H135247  -0.025   2.069  17.429  1.4831 -2.0102  0.5073
 3684TIP3    H235248  -0.029   2.024  17.284 -2.3645  2.0201 -0.8254
 3685TIP3   OH235249   5.068   6.966  18.299 -0.0192  0.8395 -0.0409
 3685TIP3    H135250   5.160   6.947  18.285 -0.1485  0.1937 -0.0388
 3685TIP3    H235251   5.059   6.976  18.394  0.3912  2.7903 -0.1543
 3686TIP3   OH235252   3.986   0.895  16.976  0.3041 -0.4065  0.0514
 3686TIP3    H135253   3.916   0.849  16.930 -0.4538 -2.0260  2.6508
 3686TIP3    H235254   4.057   0.900  16.912 -2.1192  1.4378 -2.7527
 3687TIP3   OH235255   5.388   6.640  17.836  0.2623  0.0628  0.0859
 3687TIP3    H135256   5.320   6.654  17.770  0.9209  0.4008 -0.5274
 3687TIP3    H235257   5.451   6.710  17.821  0.2621  0.3522  1.2947
 3688TIP3   OH235258   2.018   2.785  17.428  0.1586 -0.0342  0.5303
 3688TIP3    H135259   2.003   2.691  17.415  1.2353 -0.2265  0.5617
 3688TIP3    H235260   2.037   2.819  17.341  2.0721 -0.3045  0.8065
 3689TIP3   OH235261   5.107   1.380  18.614 -0.0193 -0.1567  0.0736
 3689TIP3    H135262   5.157   1.299  18.625  1.4772  0.7061 -0.0243
 3689TIP3    H235263   5.172   1.450  18.626 -1.1598  1.0197 -0.3478
 3690TIP3   OH235264   7.150   4.714  17.107  0.1091  0.3967  0.1604
 3690TIP3    H135265   7.124   4.806  17.119  1.1003  0.5748  1.0689
 3690TIP3    H235266   7.213   4.716  17.035 -1.1718  0.1567 -1.0331
 3691TIP3   OH235267   6.171   5.894  19.120 -0.7058 -0.1266  0.0452
 3691TIP3    H135268   6.081   5.916  19.098 -0.6335  0.6308  0.4417
 3691TIP3    H235269   6.166   5.806  19.158 -1.0449 -0.7644 -1.4169
 3692TIP3   OH235270   5.381   4.690  18.248 -0.3728  0.0858  0.6501
 3692TIP3    H135271   5.434   4.625  18.203  0.2097  0.6030  0.5818
 3692TIP3    H235272   5.415   4.774  18.219 -1.7373  0.4452 -0.0048
 3693TIP3   OH235273   6.399   3.554  17.494 -0.0833 -0.2018  0.2551
 3693TIP3    H135274   6.385   3.648  17.505 -1.2090 -0.2177 -0.8596
 3693TIP3    H235275   6.482   3.537  17.539  0.0462  1.2840  0.6288
 3694TIP3   OH235276   2.799   5.577  16.826  0.2475  0.4529 -0.7110
 3694TIP3    H135277   2.749   5.618  16.897 -1.8023 -1.6226 -0.8267
 3694TIP3    H235278   2.732   5.551  16.762  1.8325  0.3699 -2.4332
 3695TIP3   OH235279   1.463   3.050  17.628  0.3424 -0.0634 -0.0918
 3695TIP3    H135280   1.545   3.012  17.599  0.0333 -0.0085 -1.0633
 3695TIP3    H235281   1.429   2.989  17.694 -0.0901 -1.4332 -1.5393
 3696TIP3   OH235282   7.410   4.258  18.416  0.3398  0.3614  0.3872
 3696TIP3    H135283   7.411   4.353  18.408 -2.2703  0.3499 -0.8361
 3696TIP3    H235284   7.348   4.240  18.487  0.8536 -0.4450  0.6496
 3697TIP3   OH235285   5.524   2.916  17.978 -0.0666  0.4219  0.1392
 3697TIP3    H135286   5.570   2.907  17.894  1.4303  1.2385  0.8379
 3697TIP3    H235287   5.432   2.899  17.956  0.3285  0.3012 -1.6051
 3698TIP3   OH235288   1.130   7.157  19.834 -0.0799 -0.3592 -0.6967
 3698TIP3    H135289   1.036   7.143  19.838  0.2027 -2.3804 -0.4897
 3698TIP3    H235290   1.168   7.070  19.829  1.8729  0.3285  0.8525
 3699TIP3   OH235291   5.417   5.412  17.608 -0.3143 -0.1930  0.1912
 3699TIP3    H135292   5.472   5.380  17.680 -0.0442 -0.4730 -0.1361
 3699TIP3    H235293   5.380   5.333  17.569 -3.2371  0.0576  2.1454
 3700TIP3   OH235294   6.419   4.282  18.555  0.4637 -0.4818  0.0687
 3700TIP3    H135295   6.405   4.376  18.561  0.5461 -0.5666  2.5446
 3700TIP3    H235296   6.483   4.271  18.485  0.0730  1.2329 -0.5931
 3701TIP3   OH235297   0.349   7.268  18.685 -0.1944  0.4423 -0.1722
 3701TIP3    H135298   0.434   7.224  18.693 -0.2492 -0.0206 -1.7890
 3701TIP3    H235299   0.369   7.348  18.636 -0.7082  0.2825 -0.6434
 3702TIP3   OH235300   7.091   6.956  19.313 -0.1282 -0.1113 -0.5387
 3702TIP3    H135301   7.070   6.866  19.289  0.7730 -0.1823 -1.1124
 3702TIP3    H235302   7.158   6.983  19.249 -1.1139  1.3025 -1.0140
 3703TIP3   OH235303   4.843   2.729  18.395 -0.2569 -0.0079 -0.4869
 3703TIP3    H135304   4.878   2.813  18.425 -0.7715 -0.6428  2.1835
 3703TIP3    H235305   4.888   2.663  18.448  0.0447 -1.4660 -2.4243
 3704TIP3   OH235306   0.070   1.351  18.626 -0.3085 -0.1001  0.4350
 3704TIP3    H135307   0.070   1.256  18.640 -1.7910 -0.0188  1.2505
 3704TIP3    H235308   0.017   1.364  18.547 -0.3995  0.0535  0.5194
 3705TIP3   OH235309   5.573   7.634  18.063  0.1899 -0.8366  0.0786
 3705TIP3    H135310   5.608   7.566  18.007 -0.3598 -2.2336  1.3728
 3705TIP3    H235311   5.515   7.589  18.124 -0.9015  0.9034  0.4137
 3706TIP3   OH235312   1.227   0.741  19.934 -0.3465  0.0491  0.1559
 3706TIP3    H135313   1.227   0.760  20.028 -1.0069 -0.4422  0.2594
 3706TIP3    H235314   1.139   0.765  19.904  0.4054  1.8837 -0.6968
 3707TIP3   OH235315   6.143   3.529  18.473 -0.0994 -0.3043 -0.3734
 3707TIP3    H135316   6.061   3.487  18.447 -0.9561  2.0411 -1.7693
 3707TIP3    H235317   6.209   3.486  18.419 -0.4058 -1.9875  0.5161
 3708TIP3   OH235318   4.122   3.922  19.126  0.5566 -0.1789  0.7508
 3708TIP3    H135319   4.110   4.009  19.088 -0.3331 -0.7691 -0.3844
 3708TIP3    H235320   4.208   3.893  19.094  0.5251 -0.0127  0.5186
 3709TIP3   OH235321   5.564   7.123  17.596  0.1759  0.1536 -0.3239
 3709TIP3    H135322   5.532   7.106  17.507 -0.0757  0.3268 -0.2674
 3709TIP3    H235323   5.650   7.081  17.599  0.1576  0.0906 -0.6284
 3710TIP3   OH235324   6.674   4.744  17.401  0.2712  0.2479 -0.7721
 3710TIP3    H135325   6.670   4.838  17.422  0.9344  0.0090  0.5628
 3710TIP3    H235326   6.768   4.725  17.394  0.1845 -0.5104 -0.0181
 3711TIP3   OH235327   6.089   3.983  18.646  0.3763  0.0219  0.3143
 3711TIP3    H135328   6.141   3.931  18.707  1.6616  1.8596  0.9010
 3711TIP3    H235329   6.052   3.920  18.584  0.0994 -1.7583  2.2033
 3712TIP3   OH235330   4.281   3.565  16.958 -0.2705  0.2996 -0.3840
 3712TIP3    H135331   4.234   3.576  16.876 -1.0223  1.0689  0.1343
 3712TIP3    H235332   4.217   3.529  17.019  0.1280  0.2419  0.0121
 3713TIP3   OH235333   4.600   1.456  18.160  0.0612 -0.0261  0.4884
 3713TIP3    H135334   4.580   1.527  18.099  0.1324  0.3108  0.8506
 3713TIP3    H235335   4.566   1.486  18.244 -2.2058 -1.4967  0.1959
 3714TIP3   OH235336   6.299   5.526  18.529  0.0514  0.2084 -0.5588
 3714TIP3    H135337   6.297   5.495  18.619 -0.5237  2.5286  0.2985
 3714TIP3    H235338   6.381   5.491  18.494  1.3767  0.9642  1.5631
 3715TIP3   OH235339   2.050   2.581  18.598  0.4951 -0.2336  0.3778
 3715TIP3    H135340   2.099   2.520  18.543 -0.2000 -1.0357  0.6185
 3715TIP3    H235341   2.046   2.538  18.684 -0.5870 -0.1859  0.3683
 3716TIP3   OH235342   2.162   3.496  19.010  0.1314  0.6601 -0.7066
 3716TIP3    H135343   2.164   3.573  19.066  1.8646 -0.5179  0.9998
 3716TIP3    H235344   2.193   3.526  18.925 -0.5946  2.0983 -0.4830
 3717TIP3   OH235345   3.631   1.308  17.373  0.0246 -0.1151  0.1131
 3717TIP3    H135346   3.555   1.354  17.337 -0.4061  0.8251  2.0753
 3717TIP3    H235347   3.595   1.226  17.407  0.6941 -1.7917 -2.8270
 3718TIP3   OH235348   6.993   3.732  18.992 -0.0769  0.4889  0.4685
 3718TIP3    H135349   7.065   3.776  18.947  0.0577  0.4565  0.6517
 3718TIP3    H235350   6.983   3.781  19.074  0.0176  0.2292  0.6339
 3719TIP3   OH235351   5.902   1.985  17.356  0.5049  0.0484 -0.6471
 3719TIP3    H135352   5.966   1.980  17.285  0.2869  0.9886 -0.9227
 3719TIP3    H235353   5.818   1.969  17.313  0.4469 -0.0700 -0.4853
 3720TIP3   OH235354   3.548   4.774  18.418 -0.2918 -0.1251 -0.3146
 3720TIP3    H135355   3.606   4.844  18.389  0.4306 -1.0704 -1.2027
 3720TIP3    H235356   3.599   4.727  18.484 -0.1246 -0.7934 -0.9043
 3721TIP3   OH235357   4.385   4.144  17.776 -0.2541  0.2303 -0.0278
 3721TIP3    H135358   4.441   4.155  17.700 -0.0823  0.2511  0.1020
 3721TIP3    H235359   4.418   4.067  17.821 -1.8362 -1.2363 -1.2596
 3722TIP3   OH235360   6.065   3.108  18.491  0.2926  0.2552 -0.9379
 3722TIP3    H135361   5.970   3.102  18.477  0.1861  1.2838 -0.7616
 3722TIP3    H235362   6.075   3.182  18.551  1.1159 -0.7185  0.1580
 3723TIP3   OH235363   3.314   6.026  16.808  0.1456 -0.3848 -0.9146
 3723TIP3    H135364   3.372   6.102  16.806 -0.8108  0.3472 -1.3387
 3723TIP3    H235365   3.369   5.953  16.777  1.0742  0.1106 -0.4760
 3724TIP3   OH235366   2.765   2.617  17.492 -0.1702 -0.2413  0.9598
 3724TIP3    H135367   2.826   2.595  17.562 -1.7138 -0.6356  2.2412
 3724TIP3    H235368   2.679   2.595  17.527 -0.9415 -1.3813 -1.4338
 3725TIP3   OH235369   6.742   0.901  17.999 -0.3528  0.4270  0.0530
 3725TIP3    H135370   6.654   0.920  18.029 -0.7771 -0.7439 -0.4164
 3725TIP3    H235371   6.749   0.806  18.001  0.0271  0.3269 -2.2663
 3726TIP3   OH235372   4.768   3.857  17.511 -0.0440 -0.2443  0.0749
 3726TIP3    H135373   4.748   3.910  17.589 -0.5258 -0.1552 -0.1129
 3726TIP3    H235374   4.711   3.780  17.518  0.2079 -0.4381  0.0212
 3727TIP3   OH235375   3.909   3.665  16.860 -0.3834 -0.1634  0.0756
 3727TIP3    H135376   3.984   3.661  16.802 -0.3807  1.4821 -0.0973
 3727TIP3    H235377   3.922   3.745  16.911 -1.2611 -0.6444  1.1089
 3728TIP3   OH235378   1.176   0.648  18.429 -0.6569  0.4416 -0.2071
 3728TIP3    H135379   1.161   0.689  18.344  1.3784 -1.7443 -1.7831
 3728TIP3    H235380   1.133   0.563  18.422 -0.4267  0.2178  0.9400
 3729TIP3   OH235381   3.036   7.491  18.938  0.3120 -0.0847 -0.5018
 3729TIP3    H135382   3.087   7.434  18.995 -0.9935  0.6762  1.5445
 3729TIP3    H235383   3.089   7.571  18.931  0.1706  0.0891  0.2775
 3730TIP3   OH235384   3.193   2.002  18.121 -0.1410  0.1149  0.0160
 3730TIP3    H135385   3.215   1.968  18.207  0.4933  0.7705  0.1285
 3730TIP3    H235386   3.114   1.955  18.095 -1.1382  0.8806  1.5474
 3731TIP3   OH235387   6.702   6.422  17.736 -0.3201 -0.0405  0.1053
 3731TIP3    H135388   6.737   6.339  17.705 -1.0853 -0.3327  0.0017
 3731TIP3    H235389   6.711   6.481  17.662  0.6417  0.1005  0.3236
 3732TIP3   OH235390   7.097   2.992  17.518 -0.0648  0.3826  0.4822
 3732TIP3    H135391   7.040   3.069  17.515  0.1720  0.5583  0.4960
 3732TIP3    H235392   7.066   2.937  17.445  0.5173  1.0248 -0.2627
 3733TIP3   OH235393   1.986   2.921  17.141 -0.0791  0.1817  0.0852
 3733TIP3    H135394   1.892   2.932  17.127  0.0624  0.9077 -0.3698
 3733TIP3    H235395   2.019   2.890  17.056  0.0587 -0.3363  0.3225
 3734TIP3   OH235396   6.545   2.925  18.015 -0.0248  0.1721  0.3945
 3734TIP3    H135397   6.513   3.010  17.987 -2.0373 -0.7359 -0.2174
 3734TIP3    H235398   6.517   2.918  18.106 -0.5259 -0.1280  0.2218
 3735TIP3   OH235399   0.382   4.255  17.553  0.1390  0.3848 -0.4473
 3735TIP3    H135400   0.288   4.263  17.536  0.3232  1.6742 -0.9543
 3735TIP3    H235401   0.387   4.199  17.631 -1.0408  0.3006 -0.4051
 3736TIP3   OH235402   0.290   7.444  17.019 -0.3523 -0.3386  0.4087
 3736TIP3    H135403   0.371   7.483  17.052 -0.8478  1.8092 -0.6994
 3736TIP3    H235404   0.226   7.460  17.089  0.3343 -3.0254  1.7735
 3737TIP3   OH235405   7.364   5.948  18.106  0.2360 -0.4427  0.0970
 3737TIP3    H135406   7.347   5.984  18.193 -2.6753  0.6457 -0.8120
 3737TIP3    H235407   7.326   5.861  18.108 -0.3520 -0.1956 -0.2502
 3738TIP3   OH235408   7.291   5.817  18.366 -0.7003  0.2185 -0.3488
 3738TIP3    H135409   7.248   5.732  18.362  0.2717 -0.2864 -0.3097
 3738TIP3    H235410   7.382   5.799  18.343 -0.5466  1.2939 -0.6287
 3739TIP3   OH235411   7.189   1.037  17.073 -0.3366 -0.2183 -0.2739
 3739TIP3    H135412   7.179   1.062  17.165 -2.1249 -0.9388 -0.2317
 3739TIP3    H235413   7.100   1.017  17.044  0.0459  0.9421 -2.4563
 3740TIP3   OH235414   0.963   0.922  18.156 -0.3079 -0.0890  0.3726
 3740TIP3    H135415   0.987   0.923  18.063 -1.3790 -0.0794  0.0813
 3740TIP3    H235416   1.046   0.907  18.202  0.2095 -0.2814 -0.5878
 3741TIP3   OH235417   4.201   3.337  18.624  0.0212 -0.6596  0.2838
 3741TIP3    H135418   4.188   3.330  18.718  1.8753  0.3687  0.6647
 3741TIP3    H235419   4.114   3.356  18.589 -0.3961  0.9439  2.0180
 3742TIP3   OH235420   1.124   6.043  19.098  0.3280  0.6737 -0.3815
 3742TIP3    H135421   1.179   6.119  19.077 -0.5577  1.5350  0.3102
 3742TIP3    H235422   1.078   6.068  19.178 -0.7973 -0.1737 -0.7305
 3743TIP3   OH235423   0.628   5.114  16.850  0.5143 -0.2631 -0.6966
 3743TIP3    H135424   0.546   5.102  16.802  1.5269 -1.8070 -2.1770
 3743TIP3    H235425   0.601   5.135  16.939 -1.5318 -2.0387 -0.8071
 3744TIP3   OH235426   4.112   3.582  17.605 -1.1394 -0.1527 -0.2730
 3744TIP3    H135427   4.060   3.618  17.533 -1.0974  1.3245  0.3931
 3744TIP3    H235428   4.071   3.616  17.684  0.2300  0.2522  0.3073
 3745TIP3   OH235429   1.173   5.100  19.370  0.5035  0.6427 -0.3401
 3745TIP3    H135430   1.115   5.176  19.369 -0.2794  0.1719  2.2236
 3745TIP3    H235431   1.258   5.136  19.395  0.0684  0.6880  1.1653
 3746TIP3   OH235432   4.274   6.023  19.169  0.6123  0.6031 -0.5498
 3746TIP3    H135433   4.196   6.046  19.220  1.9513 -0.1551  2.0266
 3746TIP3    H235434   4.303   6.106  19.130 -0.4485  1.2271 -0.0485
 3747TIP3   OH235435   2.414   7.178  18.815  0.3097 -0.2657  0.1087
 3747TIP3    H135436   2.360   7.190  18.737 -0.7925  2.0333  1.1296
 3747TIP3    H235437   2.504   7.191  18.785 -0.0273 -0.1973 -0.8991
 3748TIP3   OH235438   3.785   0.459  18.216  0.1299  0.7316 -0.1496
 3748TIP3    H135439   3.746   0.456  18.304 -0.9480  0.1694 -0.6289
 3748TIP3    H235440   3.879   0.450  18.231 -0.0210  0.8567  0.9619
 3749TIP3   OH235441   0.872   2.547  18.955 -0.1570  0.6442  0.1494
 3749TIP3    H135442   0.933   2.473  18.957 -0.8744  0.0568  0.6116
 3749TIP3    H235443   0.928   2.624  18.967  0.6394  0.2153 -0.7084
 3750TIP3   OH235444   6.582   6.376  18.173 -0.0282 -0.1843  0.2015
 3750TIP3    H135445   6.583   6.325  18.091  0.1708  1.3684 -0.8068
 3750TIP3    H235446   6.659   6.345  18.221  0.7381 -0.0605 -0.9000
 3751TIP3   OH235447   2.142   6.742  17.321  0.1306  0.4157 -0.4808
 3751TIP3    H135448   2.236   6.720  17.320 -0.4310 -3.1823  2.6191
 3751TIP3    H235449   2.100   6.673  17.270 -0.9701  1.1383 -0.5846
 3752TIP3   OH235450   6.471   6.181  17.442 -0.5344 -0.1986  0.2320
 3752TIP3    H135451   6.490   6.087  17.435 -2.8281 -0.6755 -0.4005
 3752TIP3    H235452   6.515   6.220  17.366 -1.8885 -1.2185 -1.1295
 3753TIP3   OH235453   6.525   1.457  18.278 -0.3559  0.6669 -0.4643
 3753TIP3    H135454   6.613   1.451  18.316 -0.0025  3.1236 -0.7330
 3753TIP3    H235455   6.507   1.369  18.245  2.2226  0.2369 -0.9186
 3754TIP3   OH235456   4.044   1.091  17.318  0.0881  0.2741 -0.0317
 3754TIP3    H135457   3.952   1.071  17.302  0.1731 -0.1019 -0.0566
 3754TIP3    H235458   4.046   1.127  17.406 -0.0441  0.0095  0.0789
 3755TIP3   OH235459   7.564   0.236  19.582  0.5392  0.5367  0.0673
 3755TIP3    H135460   7.643   0.247  19.530  0.4510 -1.0501 -0.4454
 3755TIP3    H235461   7.499   0.292  19.540  1.0789  1.0028 -0.1572
 3756TIP3   OH235462   6.644   1.050  19.222 -0.3353  0.1829  0.1181
 3756TIP3    H135463   6.664   1.025  19.312 -0.6010  0.6147  0.3034
 3756TIP3    H235464   6.550   1.071  19.224 -0.4182 -0.1295 -0.3343
 3757TIP3   OH235465   0.493   7.319  17.520 -0.2180 -0.0398 -0.4135
 3757TIP3    H135466   0.456   7.231  17.515  1.7370 -0.8832 -0.8579
 3757TIP3    H235467   0.466   7.352  17.605 -2.5459 -0.3063 -0.9845
 3758TIP3   OH235468   2.176   6.040  17.339 -0.2134 -0.9793  0.5826
 3758TIP3    H135469   2.185   6.105  17.270 -3.4254 -1.4070 -0.3861
 3758TIP3    H235470   2.237   5.971  17.315  1.4235  0.4976  0.2771
 3759TIP3   OH235471   1.497   5.500  17.063  0.5302  0.1641  0.3428
 3759TIP3    H135472   1.431   5.558  17.024  0.7702  0.0730 -0.2173
 3759TIP3    H235473   1.449   5.419  17.083  0.3536  0.2943  0.4510
 3760TIP3   OH235474   5.350   5.776  17.882  0.5885  0.5253  0.7741
 3760TIP3    H135475   5.370   5.686  17.907  2.6253  0.7645  0.1673
 3760TIP3    H235476   5.432   5.810  17.847 -0.5842  2.0813 -0.6304
 3761TIP3   OH235477   7.479   7.048  18.288  0.4880 -0.1232  0.2013
 3761TIP3    H135478   7.451   7.102  18.213  0.8067  1.1998  0.9944
 3761TIP3    H235479   7.414   7.065  18.356 -0.7513 -2.6078 -0.2527
 3762TIP3   OH235480   1.294   6.862  19.669 -0.3243  0.5544 -0.0141
 3762TIP3    H135481   1.276   6.950  19.636 -1.1425  0.5549  0.3949
 3762TIP3    H235482   1.227   6.807  19.628  1.0599 -0.1489 -1.3889
 3763TIP3   OH235483   4.139   5.009  17.919  0.1519 -0.3317 -0.4033
 3763TIP3    H135484   4.057   5.028  17.873  0.4394 -0.3131 -0.9191
 3763TIP3    H235485   4.195   4.970  17.853  1.2868  1.5366 -0.6244
 3764TIP3   OH235486   3.462   4.158  18.964 -0.5825  0.3207  0.3329
 3764TIP3    H135487   3.553   4.148  18.991 -0.5000 -0.5801 -0.2583
 3764TIP3    H235488   3.415   4.090  19.011 -0.9310  0.6625  0.4895
 3765TIP3   OH235489   6.750   6.116  18.728 -0.5549  0.5404  0.3171
 3765TIP3    H135490   6.788   6.064  18.799  0.5968  1.3896  0.3520
 3765TIP3    H235491   6.776   6.070  18.648  0.5417  1.1068  0.3430
 3766TIP3   OH235492   6.200   4.771  18.174 -0.4955  0.1329  0.1605
 3766TIP3    H135493   6.276   4.800  18.124  0.3154 -1.6224  0.3139
 3766TIP3    H235494   6.226   4.779  18.265 -0.8079  0.2873  0.2387
 3767TIP3   OH235495   3.307   2.295  18.198 -0.2703 -0.2874 -0.0085
 3767TIP3    H135496   3.253   2.233  18.150  0.7605 -1.3488  0.1748
 3767TIP3    H235497   3.390   2.250  18.212  0.8611  1.4667 -0.6969
 3768TIP3   OH235498   0.481   3.944  17.508 -0.3364 -0.5435  0.2863
 3768TIP3    H135499   0.570   3.966  17.479 -0.7054 -0.7706 -1.1062
 3768TIP3    H235500   0.473   3.984  17.595  1.0979 -0.4690  0.3977
 3769TIP3   OH235501   1.258   5.237  17.610 -0.1146 -0.2517  0.7181
 3769TIP3    H135502   1.232   5.145  17.614  1.8001 -0.8587  0.3113
 3769TIP3    H235503   1.352   5.236  17.631 -0.0930  1.6250  0.8276
 3770TIP3   OH235504   5.664   6.336  19.013  0.2101 -0.0962 -0.0983
 3770TIP3    H135505   5.705   6.313  19.096 -0.1054 -0.6653 -0.0988
 3770TIP3    H235506   5.620   6.256  18.985  0.9190 -0.1220 -1.1754
 3771TIP3   OH235507   7.415   4.172  18.162  0.3551 -0.2373 -0.8516
 3771TIP3    H135508   7.475   4.232  18.116 -0.8324  1.1057 -0.7195
 3771TIP3    H235509   7.420   4.199  18.254  0.5109 -0.9815 -0.6338
 3772TIP3   OH235510   3.807   1.979  16.946 -0.2567  0.3274 -0.5095
 3772TIP3    H135511   3.860   1.901  16.934 -0.3837  0.2674 -0.6842
 3772TIP3    H235512   3.763   1.992  16.862  0.4991  1.1410 -0.7942
 3773TIP3   OH235513   2.508   3.250  16.674 -0.1751  0.1641  0.2459
 3773TIP3    H135514   2.590   3.202  16.687 -0.9965 -1.0525  1.1817
 3773TIP3    H235515   2.440   3.182  16.677 -1.1907  1.0887 -0.9834
 3774TIP3   OH235516   7.641   2.373  19.025  0.0673 -0.1887  0.9042
 3774TIP3    H135517   7.546   2.385  19.014 -0.1600 -1.6464  1.0747
 3774TIP3    H235518   7.649   2.287  19.066  1.5173 -0.6453 -0.2522
 3775TIP3   OH235519   0.568   0.154  18.050  0.5101  0.1143 -0.3348
 3775TIP3    H135520   0.565   0.183  17.959  0.8744 -1.5323 -0.9103
 3775TIP3    H235521   0.564   0.059  18.045 -0.9052  0.0162  1.4623
 3776TIP3   OH235522   0.690   1.632  18.615 -0.4217 -0.6734  0.1167
 3776TIP3    H135523   0.709   1.662  18.526  0.8865 -0.5277  0.4216
 3776TIP3    H235524   0.776   1.612  18.652 -1.1119 -4.6297  0.0169
 3777TIP3   OH235525   2.114   6.627  16.966 -0.0249  0.1111 -0.3637
 3777TIP3    H135526   2.194   6.596  17.009  0.6460 -0.2711 -1.8106
 3777TIP3    H235527   2.060   6.548  16.957  0.1374  0.0493 -0.8270
 3778TIP3   OH235528   1.684   4.323  18.892 -0.5249  0.4248 -0.3788
 3778TIP3    H135529   1.741   4.328  18.969 -0.8411  0.3230 -0.1384
 3778TIP3    H235530   1.632   4.403  18.896 -0.6316  0.3573 -0.4190
 3779TIP3   OH235531   2.119   3.934  18.169  0.1565 -0.1618 -1.0577
 3779TIP3    H135532   2.185   3.999  18.193  0.8618 -1.3654  0.4478
 3779TIP3    H235533   2.168   3.869  18.119  0.4464 -1.6845  1.0927
 3780TIP3   OH235534   4.463   4.974  17.445  0.2809  0.0597  0.3634
 3780TIP3    H135535   4.536   4.994  17.386  1.1067 -0.4487  1.1747
 3780TIP3    H235536   4.402   4.924  17.392  0.4834  0.5529 -0.3544
 3781TIP3   OH235537   1.556   4.888  19.412  0.3849 -0.3686  0.3659
 3781TIP3    H135538   1.542   4.798  19.380 -0.0140 -0.4985  0.9002
 3781TIP3    H235539   1.490   4.900  19.480 -0.4128  0.7749 -0.5623
 3782TIP3   OH235540   6.291   7.353  19.312 -0.0297 -0.1184 -0.2589
 3782TIP3    H135541   6.385   7.345  19.328 -0.1296  0.9319  0.9817
 3782TIP3    H235542   6.276   7.301  19.233  1.7842  0.6279 -1.1452
 3783TIP3   OH235543   3.865   2.557  17.151 -0.7138 -0.2148 -0.2319
 3783TIP3    H135544   3.896   2.529  17.237  0.1853 -1.8528 -1.0397
 3783TIP3    H235545   3.784   2.507  17.138 -0.8894  0.0882 -0.3145
 3784TIP3   OH235546   5.134   4.428  19.334  0.2442  0.1269 -0.4459
 3784TIP3    H135547   5.091   4.347  19.363 -1.4324  1.2565  0.3615
 3784TIP3    H235548   5.202   4.444  19.400 -0.4661  0.2040  0.2826
 3785TIP3   OH235549   1.959   1.506  16.798 -1.0480  0.3656 -0.0896
 3785TIP3    H135550   1.918   1.459  16.726 -0.2523 -0.1352 -0.2259
 3785TIP3    H235551   2.053   1.488  16.788 -0.9542  0.0035  1.2576
 3786TIP3   OH235552   3.871   5.090  18.689  0.2493 -0.0252 -0.9806
 3786TIP3    H135553   3.926   5.164  18.715  0.5305 -0.4418 -0.3832
 3786TIP3    H235554   3.813   5.076  18.764  2.1685 -2.3061  0.2007
 3787TIP3   OH235555   2.500   3.395  18.309  0.0450  0.0085  0.2503
 3787TIP3    H135556   2.485   3.476  18.259  3.4650  0.7383  0.1814
 3787TIP3    H235557   2.595   3.392  18.321 -0.1406 -3.1715  1.7342
 3788TIP3   OH235558   1.878   7.148  19.098 -0.1849  0.0036 -0.1478
 3788TIP3    H135559   1.812   7.094  19.142  0.2552 -0.0006  0.5199
 3788TIP3    H235560   1.944   7.165  19.165  0.6493 -0.2379 -0.8804
 3789TIP3   OH235561   3.674   3.918  18.676  0.4118 -0.5720  0.2946
 3789TIP3    H135562   3.666   4.001  18.628 -1.7066 -0.7255  0.2997
 3789TIP3    H235563   3.683   3.852  18.607  0.9166 -0.4593  0.2492
 3790TIP3   OH235564   1.655   2.833  18.607  0.1490  0.7788 -0.0689
 3790TIP3    H135565   1.713   2.802  18.677  2.2935  2.3307 -1.0559
 3790TIP3    H235566   1.580   2.872  18.653  0.3942 -0.2634  1.2713
 3791TIP3   OH235567   1.711   6.369  17.733 -0.1658  0.3721  0.4872
 3791TIP3    H135568   1.777   6.325  17.787  0.9536 -2.7913 -3.0501
 3791TIP3    H235569   1.639   6.307  17.728 -1.3532  1.7223  0.3641
 3792TIP3   OH235570   5.529   7.400  17.672 -0.0633  0.7353 -0.2113
 3792TIP3    H135571   5.566   7.322  17.631  0.3803  0.8806 -0.0971
 3792TIP3    H235572   5.434   7.388  17.667 -0.0490 -0.9030  1.8355
 3793TIP3   OH235573   6.155   6.834  17.952 -0.7184  0.3235  0.9407
 3793TIP3    H135574   6.245   6.807  17.967 -0.7856 -0.6514 -0.2793
 3793TIP3    H235575   6.161   6.926  17.926  0.0700 -0.0863 -0.4292
 3794TIP3   OH235576   3.596   1.869  17.922  0.2935 -0.6843  0.1080
 3794TIP3    H135577   3.662   1.933  17.947  1.5133 -1.7829 -0.1686
 3794TIP3    H235578   3.615   1.793  17.978 -1.3134 -0.7128  0.6548
 3795TIP3   OH235579   7.350   6.192  17.147  0.3527 -0.5945 -0.0760
 3795TIP3    H135580   7.330   6.255  17.078 -1.0109 -2.0020 -1.0222
 3795TIP3    H235581   7.310   6.229  17.226  0.6356  0.3029 -0.3362
 3796TIP3   OH235582   6.773   0.591  18.314 -0.3513  0.7423 -0.2186
 3796TIP3    H135583   6.742   0.517  18.367 -0.8800  0.8958 -0.3113
 3796TIP3    H235584   6.747   0.669  18.362  1.0617  0.8821  0.3698
 3797TIP3   OH235585   1.128   4.681  18.016 -0.3812  0.0211 -0.1312
 3797TIP3    H135586   1.061   4.653  18.078 -0.9090 -1.1449 -1.1712
 3797TIP3    H235587   1.164   4.599  17.980 -0.4360  0.6374 -1.6944
 3798TIP3   OH235588   1.932   1.179  17.146 -0.7630  0.1996  0.8849
 3798TIP3    H135589   1.919   1.107  17.085  0.7047  0.7614 -0.1572
 3798TIP3    H235590   1.957   1.137  17.228 -0.9985 -0.5066  0.6018
 3799TIP3   OH235591   2.861   2.223  17.766 -0.0117 -0.2716  0.2836
 3799TIP3    H135592   2.895   2.254  17.851 -0.0665  0.6495 -0.0211
 3799TIP3    H235593   2.883   2.293  17.705  1.9454 -1.8573 -0.9189
 3800TIP3   OH235594   4.269   5.874  18.890  0.1481 -0.1396 -0.0158
 3800TIP3    H135595   4.331   5.933  18.845 -1.9823  0.7004 -2.0851
 3800TIP3    H235596   4.271   5.903  18.981  1.6966  0.8200 -0.3063
 3801TIP3   OH235597   0.412   0.159  16.999 -0.5020  0.2252 -0.2309
 3801TIP3    H135598   0.391   0.091  16.935 -0.2154  0.7246 -0.8733
 3801TIP3    H235599   0.482   0.210  16.957 -0.6438  0.8544  0.2772
 3802TIP3   OH235600   6.113   0.762  17.469  0.2939 -0.8568  0.8153
 3802TIP3    H135601   6.193   0.724  17.432  0.6452 -0.1840  0.8710
 3802TIP3    H235602   6.143   0.837  17.519 -0.3779 -0.5960  0.8373
 3803TIP3   OH235603   4.986   0.983  19.239  0.0451  0.1202  0.2859
 3803TIP3    H135604   4.910   1.013  19.190 -0.9339 -1.5154  0.7147
 3803TIP3    H235605   5.016   0.906  19.190  0.3564 -0.2669  1.0778
 3804TIP3   OH235606   0.086   4.573  17.240  1.0435  0.4033 -1.0949
 3804TIP3    H135607   0.091   4.559  17.145  0.6236 -2.5844 -0.7578
 3804TIP3    H235608  -0.007   4.561  17.261  1.3027 -0.0837 -0.1739
 3805TIP3   OH235609   1.881   6.433  18.161 -0.1198  0.0183 -0.2701
 3805TIP3    H135610   1.839   6.347  18.159 -1.6584  0.6790  1.0109
 3805TIP3    H235611   1.829   6.487  18.101  1.2407 -0.0720 -1.5878
 3806TIP3   OH235612   1.095   1.258  17.671 -0.1998  0.6769  0.0455
 3806TIP3    H135613   1.082   1.331  17.731 -0.8281  1.2617 -0.7855
 3806TIP3    H235614   1.181   1.223  17.694 -0.9797  0.0082  2.1892
 3807TIP3   OH235615   1.196   3.108  17.158  0.4117  0.2174  0.1661
 3807TIP3    H135616   1.189   3.132  17.065 -1.6060 -1.2750 -0.1373
 3807TIP3    H235617   1.117   3.144  17.198  1.4252  1.1357  1.4199
 3808TIP3   OH235618   0.926   7.624  17.802  0.2375 -0.0076 -0.3946
 3808TIP3    H135619   0.897   7.658  17.887  0.1308 -2.1147  0.4830
 3808TIP3    H235620   1.017   7.653  17.795  0.1057  0.5837  0.2208
 3809TIP3   OH235621   3.924   6.701  17.538 -0.3823 -0.1558 -0.2398
 3809TIP3    H135622   3.835   6.736  17.533 -0.1262  0.2815 -3.0518
 3809TIP3    H235623   3.980   6.779  17.540  0.0110 -0.4311 -0.5369
 3810TIP3   OH235624   7.666   6.280  19.461 -0.3387 -0.3829  0.4237
 3810TIP3    H135625   7.590   6.293  19.404  1.1247 -1.1275 -1.8269
 3810TIP3    H235626   7.703   6.368  19.472 -0.3431 -0.3022 -0.1998
 3811TIP3   OH235627   5.627   7.315  19.119  0.2092  0.0200  0.1701
 3811TIP3    H135628   5.593   7.398  19.151  0.3193 -0.0115  0.3696
 3811TIP3    H235629   5.590   7.249  19.178  0.5368 -0.0228  0.3267
 3812TIP3   OH235630   2.387   2.980  16.688  0.4205 -0.0646  0.2442
 3812TIP3    H135631   2.306   3.028  16.709  0.7172  0.4560  0.2135
 3812TIP3    H235632   2.389   2.909  16.752  0.5882  0.6710  1.0857
 3813TIP3   OH235633   4.125   1.031  20.016 -0.0554 -0.0073  0.0675
 3813TIP3    H135634   4.101   0.940  19.999  1.9289 -1.1880  2.8318
 3813TIP3    H235635   4.217   1.037  19.991  0.1497  0.8945  0.9561
 3814TIP3   OH235636   4.347   1.980  17.364 -0.0339  0.3259 -0.2126
 3814TIP3    H135637   4.335   2.006  17.273 -0.8045  0.2166 -0.1493
 3814TIP3    H235638   4.428   2.024  17.391  1.1957 -1.0213 -1.4547
 3815TIP3   OH235639   5.746   0.341  17.067 -0.3186  0.0575 -0.2533
 3815TIP3    H135640   5.777   0.431  17.057 -0.5230  0.1047 -0.4702
 3815TIP3    H235641   5.651   0.349  17.068 -0.3705 -0.2548 -1.2982
 3816TIP3   OH235642   2.408   5.273  17.852  0.4424 -0.2478  0.5246
 3816TIP3    H135643   2.429   5.237  17.765 -1.3215 -0.1343  0.0043
 3816TIP3    H235644   2.312   5.271  17.856  0.2034  3.6609  0.7596
 3817TIP3   OH235645   0.904   5.967  18.605  0.0320  0.2541  0.4862
 3817TIP3    H135646   0.810   5.981  18.610 -0.1265 -0.8943  1.0097
 3817TIP3    H235647   0.916   5.916  18.525  0.0962 -0.4380  0.9336
 3818TIP3   OH235648   6.325   0.652  17.996 -0.0326  0.4249  0.2870
 3818TIP3    H135649   6.350   0.619  18.082  0.2958 -1.4565 -0.4852
 3818TIP3    H235650   6.236   0.621  17.983 -0.2364  1.0643  0.1067
 3819TIP3   OH235651   7.160   7.356  18.621 -0.0715 -0.4352  0.6250
 3819TIP3    H135652   7.219   7.317  18.556 -1.9972 -1.0574 -0.8713
 3819TIP3    H235653   7.203   7.341  18.704  2.2238 -0.1607 -0.4435
 3820TIP3   OH235654   0.457   5.024  18.965  0.0377 -0.5738 -0.8808
 3820TIP3    H135655   0.425   5.076  18.891 -0.0297 -1.6927 -1.6710
 3820TIP3    H235656   0.538   5.067  18.992  0.3677 -0.4755 -1.9921
 3821TIP3   OH235657   1.864   2.170  17.450  0.4956  0.3512 -0.0425
 3821TIP3    H135658   1.940   2.193  17.503  0.2225 -0.5695  0.7757
 3821TIP3    H235659   1.899   2.114  17.380  0.4428 -1.1426  1.0650
 3822TIP3   OH235660   1.463   1.231  16.797  0.6864 -0.3531  0.2228
 3822TIP3    H135661   1.510   1.195  16.722  0.3782 -0.6864  0.1890
 3822TIP3    H235662   1.484   1.171  16.870 -1.1129 -1.5641 -0.1891
 3823TIP3   OH235663   0.769   5.077  19.324 -0.0680  0.2204 -0.2683
 3823TIP3    H135664   0.694   5.067  19.384 -0.5104  2.2591 -0.4260
 3823TIP3    H235665   0.804   5.163  19.344  1.5882 -0.2553 -0.9851
 3824TIP3   OH235666   0.444   7.512  19.718 -0.0760  0.1241 -0.2467
 3824TIP3    H135667   0.412   7.423  19.701  0.3793 -0.2209  0.6596
 3824TIP3    H235668   0.470   7.545  19.632 -2.9768  0.5028 -1.0996
 3825TIP3   OH235669   5.774   3.842  19.050 -0.0670  0.1438 -0.1935
 3825TIP3    H135670   5.862   3.879  19.046  0.2728 -0.7062 -1.1569
 3825TIP3    H235671   5.720   3.912  19.085  0.6555  1.3481 -1.3833
 3826TIP3   OH235672   7.173   5.528  18.552  0.1164  0.1410 -0.2870
 3826TIP3    H135673   7.156   5.555  18.462  0.7305  1.9179  0.0935
 3826TIP3    H235674   7.103   5.466  18.572  0.5082 -1.0287 -2.2656
 3827TIP3   OH235675   0.410   0.003  17.554  0.0052  0.4155 -0.7432
 3827TIP3    H135676   0.352   0.077  17.534  0.5535  1.4638  1.2590
 3827TIP3    H235677   0.386  -0.064  17.490 -3.6163  0.6709  0.1363
 3828TIP3   OH235678   0.563   5.941  18.998 -0.2252  0.4661  0.2482
 3828TIP3    H135679   0.636   5.945  19.059 -0.7801  0.8561  0.8957
 3828TIP3    H235680   0.560   6.028  18.958  0.2446  0.1635 -0.4867
 3829TIP3   OH235681   6.594   5.845  17.159  0.0407 -0.3329 -0.3449
 3829TIP3    H135682   6.585   5.905  17.085 -1.4005 -0.1078 -0.0171
 3829TIP3    H235683   6.540   5.770  17.136 -0.8840 -0.0217  0.6913
 3830TIP3   OH235684   6.309   2.820  16.658 -0.0220 -0.6356 -0.2569
 3830TIP3    H135685   6.229   2.818  16.711  0.6177  1.4008  0.9121
 3830TIP3    H235686   6.373   2.772  16.710 -0.0101 -0.6597 -0.2939
 3831TIP3   OH235687   2.285   0.992  19.472  0.2807  0.2821  0.3037
 3831TIP3    H135688   2.301   1.039  19.554 -1.8319  1.2678  0.2347
 3831TIP3    H235689   2.354   1.022  19.413 -0.5121  2.7958  0.5124
 3832TIP3   OH235690   3.823   7.532  16.939 -0.3098  0.1435 -0.6236
 3832TIP3    H135691   3.751   7.575  16.985 -0.1114 -2.1483  2.0457
 3832TIP3    H235692   3.898   7.590  16.951 -0.8749  0.8112 -0.2744
 3833TIP3   OH235693   7.042   6.247  18.011 -0.3842 -0.2619  0.0241
 3833TIP3    H135694   7.047   6.236  17.917  1.4332 -0.1329  0.0662
 3833TIP3    H235695   6.981   6.179  18.041  0.2099 -1.3047 -1.0690
 3834TIP3   OH235696   0.939   1.552  18.190 -0.8740 -0.3870 -0.2325
 3834TIP3    H135697   0.844   1.545  18.194 -0.9874  0.8411 -0.4958
 3834TIP3    H235698   0.970   1.500  18.265 -1.8804  1.5725  1.6514
 3835TIP3   OH235699   3.798   1.947  18.578 -0.1385 -0.0421 -0.5086
 3835TIP3    H135700   3.835   2.025  18.537 -1.2601  0.3852 -0.7468
 3835TIP3    H235701   3.852   1.932  18.655 -0.6685  1.7589  0.2665
 3836TIP3   OH235702   2.482   6.291  17.774  0.1232 -0.2594  0.1649
 3836TIP3    H135703   2.486   6.213  17.829 -1.4815 -0.4139  0.1048
 3836TIP3    H235704   2.572   6.303  17.742  0.6383 -1.3668  1.1335
 3837TIP3   OH235705   3.799   4.317  17.756  0.2098  0.5212  0.0424
 3837TIP3    H135706   3.738   4.277  17.818 -1.8696  0.4601 -1.9314
 3837TIP3    H235707   3.782   4.273  17.673  2.4756  1.0134 -0.7474
 3838TIP3   OH235708   3.319   2.169  16.836 -0.5277 -0.1278  0.3253
 3838TIP3    H135709   3.241   2.224  16.829 -1.3843 -1.2526  0.7064
 3838TIP3    H235710   3.307   2.120  16.917  1.7724  1.4422  1.7380
 3839TIP3   OH235711   6.220   3.272  19.087 -0.2918  0.1932  0.2229
 3839TIP3    H135712   6.249   3.251  18.998  0.1192 -2.4161  0.8823
 3839TIP3    H235713   6.300   3.268  19.140 -0.6056  1.2232  0.7980
 3840TIP3   OH235714   0.701   1.136  17.664  0.0629  0.2183  0.4260
 3840TIP3    H135715   0.792   1.114  17.646 -0.0835 -0.6201  0.6585
 3840TIP3    H235716   0.703   1.182  17.748  0.2956  0.3890  0.3262
 3841TIP3   OH235717   3.872   2.898  17.728 -0.1771 -0.3862  0.5904
 3841TIP3    H135718   3.904   2.828  17.671  1.4135 -1.3363  2.5302
 3841TIP3    H235719   3.919   2.976  17.698  1.6325 -1.1323  1.3532
 3842TIP3   OH235720   3.063   0.254  18.633  0.4142  0.4489  0.1519
 3842TIP3    H135721   3.058   0.269  18.539  1.9482  0.4040  0.0456
 3842TIP3    H235722   3.037   0.337  18.672  3.1219  1.6494 -0.3801
 3843TIP3   OH235723   7.599   1.533  18.017 -0.4691  0.4193  0.0186
 3843TIP3    H135724   7.673   1.502  17.966  0.0614 -0.6902  1.3996
 3843TIP3    H235725   7.638   1.571  18.096 -1.3398  0.2485  0.5523
 3844TIP3   OH235726   6.528   5.608  18.920 -0.4336 -0.0861  0.0863
 3844TIP3    H135727   6.446   5.632  18.878 -0.6108 -0.6133  0.1184
 3844TIP3    H235728   6.566   5.691  18.949 -0.9604  0.1616  0.0839
 3845TIP3   OH235729   7.245   5.112  17.827 -0.4327 -0.1711 -0.4950
 3845TIP3    H135730   7.290   5.157  17.898  1.5008 -0.4383 -1.4740
 3845TIP3    H235731   7.162   5.082  17.865 -0.1856  1.1205  1.1405
 3846TIP3   OH235732   4.954   2.659  18.890  0.3226  0.3028 -0.2468
 3846TIP3    H135733   5.039   2.664  18.933  1.1829  0.3799 -1.8769
 3846TIP3    H235734   4.919   2.748  18.896  0.6152  0.4057 -0.0631
 3847TIP3   OH235735   4.531   2.985  17.350 -0.2183 -0.1694  0.0263
 3847TIP3    H135736   4.590   2.951  17.283 -1.4831 -0.0675 -1.1772
 3847TIP3    H235737   4.510   3.073  17.321 -0.4987  0.0086  0.7513
 3848TIP3   OH235738   4.069   3.655  17.312 -0.2761 -0.1291 -0.3300
 3848TIP3    H135739   4.150   3.695  17.343  0.0395 -1.4526  0.6474
 3848TIP3    H235740   4.083   3.644  17.217  0.9870 -0.9370 -0.0831
 3849TIP3   OH235741   3.931   3.053  16.895 -0.1058 -0.1868  0.1056
 3849TIP3    H135742   3.968   2.968  16.917 -1.6101 -0.6571  0.9659
 3849TIP3    H235743   3.886   3.039  16.811 -0.5996 -0.3329  0.3886
 3850TIP3   OH235744   0.877   2.322  17.627 -0.2340  0.0725 -0.0933
 3850TIP3    H135745   0.797   2.327  17.679 -0.4718  0.5440 -0.4903
 3850TIP3    H235746   0.929   2.397  17.655 -0.4015  0.3803 -0.5877
 3851TIP3   OH235747   6.848   4.496  19.611 -0.5263  0.2157 -0.4801
 3851TIP3    H135748   6.870   4.589  19.606  0.2848 -0.0051 -1.2673
 3851TIP3    H235749   6.788   4.481  19.539 -1.1572  0.2506  0.0296
 3852TIP3   OH235750   0.565   1.509  17.377  0.0093 -0.6873 -0.1742
 3852TIP3    H135751   0.575   1.414  17.385  0.2970 -0.5100  2.3602
 3852TIP3    H235752   0.530   1.536  17.461 -0.5525  1.4281 -1.0367
 3853TIP3   OH235753   4.002   1.237  17.551 -0.3173  0.2858 -0.2173
 3853TIP3    H135754   3.996   1.315  17.497  0.2868  0.1499 -0.4848
 3853TIP3    H235755   3.980   1.268  17.639 -1.4729  0.4711 -0.5464
 3854TIP3   OH235756   3.420   2.774  17.095 -0.7750 -0.6391  0.0362
 3854TIP3    H135757   3.445   2.786  17.186  0.1655  0.6897 -0.3664
 3854TIP3    H235758   3.332   2.811  17.089  0.7904  3.5355 -0.4404
 3855TIP3   OH235759   4.976   7.068  18.026  0.3077 -0.1261  0.8025
 3855TIP3    H135760   5.009   7.047  18.113  1.8605  0.0098  0.2745
 3855TIP3    H235761   5.054   7.075  17.971 -0.2353  3.9377  0.2563
 3856TIP3   OH235762   3.877   1.416  17.329 -1.1298 -0.4506  0.1186
 3856TIP3    H135763   3.796   1.373  17.356 -1.3443 -0.0400  0.1401
 3856TIP3    H235764   3.850   1.504  17.305 -0.7247 -0.3902 -0.1184
 3857TIP3   OH235765   1.236   6.247  16.759  0.0026  0.3694 -0.0154
 3857TIP3    H135766   1.276   6.334  16.749 -0.5394  0.6174 -0.0647
 3857TIP3    H235767   1.268   6.216  16.844  0.4201  0.4991 -0.1231
 3858TIP3   OH235768   3.750   4.608  17.811 -0.3353 -0.0500 -0.2750
 3858TIP3    H135769   3.663   4.594  17.850 -1.0108 -0.0623 -1.7047
 3858TIP3    H235770   3.767   4.527  17.763  0.8510 -0.3642  0.6454
 3859TIP3   OH235771   1.901   2.681  19.261 -0.3753  0.5088 -0.1520
 3859TIP3    H135772   1.913   2.720  19.348 -1.7383  0.0923  0.2425
 3859TIP3    H235773   1.911   2.587  19.276  0.1414  0.4889 -0.5964
 3860TIP3   OH235774   0.151   7.056  17.730  0.0996 -0.1173 -0.1956
 3860TIP3    H135775   0.189   6.983  17.681 -0.1930 -0.0223 -0.5695
 3860TIP3    H235776   0.187   7.047  17.818 -0.5562 -1.1948 -0.0150
 3861TIP3   OH235777   1.163   1.007  18.367  0.1455 -0.3081  0.3308
 3861TIP3    H135778   1.243   1.052  18.395 -0.1039 -0.2173  0.9025
 3861TIP3    H235779   1.120   0.980  18.448 -0.3472 -0.4616  0.0252
 3862TIP3   OH235780   3.817   4.004  17.834  0.1727  0.4932  0.2940
 3862TIP3    H135781   3.801   3.911  17.823  2.3864 -0.3918  3.1408
 3862TIP3    H235782   3.872   4.029  17.760 -1.0046 -0.2703 -0.8546
 3863TIP3   OH235783   3.792   5.540  18.111  0.4621 -0.0870 -0.6270
 3863TIP3    H135784   3.817   5.608  18.048 -0.3742 -0.3413 -1.2487
 3863TIP3    H235785   3.809   5.579  18.196  0.3781  0.7577 -0.9871
 3864TIP3   OH235786   1.547   0.203  19.205  0.6404  0.0014  0.0584
 3864TIP3    H135787   1.619   0.263  19.226  1.5689 -1.2854  0.6622
 3864TIP3    H235788   1.563   0.127  19.260 -2.2320  0.3949  1.5867
 3865TIP3   OH235789   7.266   6.416  18.608  0.0318 -0.4564 -0.0519
 3865TIP3    H135790   7.352   6.457  18.595  0.5878 -1.9408 -1.3656
 3865TIP3    H235791   7.274   6.330  18.566 -1.5028 -1.3894  1.4300
 3866TIP3   OH235792   5.812   0.854  17.121  0.3532  0.4907 -0.1992
 3866TIP3    H135793   5.879   0.911  17.083  2.8320 -1.7951  0.4020
 3866TIP3    H235794   5.803   0.885  17.212  1.6526  0.0321  0.1135
 3867TIP3   OH235795   1.645   3.272  17.117 -0.2538  0.5967 -0.0078
 3867TIP3    H135796   1.561   3.241  17.082 -0.9272 -0.5648  2.4046
 3867TIP3    H235797   1.624   3.301  17.205  1.6103  1.9075  0.0487
 3868TIP3   OH235798   2.168   2.505  17.641  0.0532 -0.1481  0.3134
 3868TIP3    H135799   2.206   2.544  17.720  1.6420 -0.1898 -0.3964
 3868TIP3    H235800   2.087   2.554  17.626  0.6428  1.0641  0.9591
 3869TIP3   OH235801   6.341   1.748  17.683  0.2110 -0.1107 -0.4101
 3869TIP3    H135802   6.333   1.836  17.720 -1.7401  0.4124 -1.8677
 3869TIP3    H235803   6.290   1.692  17.742  1.5960 -0.3410  0.6145
 3870TIP3   OH235804   7.479   0.320  18.662  0.2982  0.0321 -0.0230
 3870TIP3    H135805   7.492   0.225  18.671 -2.9576 -0.6057 -0.5162
 3870TIP3    H235806   7.455   0.332  18.570 -0.2328  1.1866  0.2457
 3871TIP3   OH235807   0.735   4.222  17.838  0.6808  0.3656  0.0208
 3871TIP3    H135808   0.667   4.289  17.833  0.7597  0.4077 -0.4514
 3871TIP3    H235809   0.811   4.260  17.795  0.0401 -0.8662 -2.3385
 3872TIP3   OH235810   1.303   2.372  16.853 -0.1575  0.3135  0.9263
 3872TIP3    H135811   1.235   2.379  16.787  1.4592 -1.6936 -1.1336
 3872TIP3    H235812   1.347   2.457  16.852 -1.5783  1.0741  1.1248
 3873TIP3   OH235813   6.632   6.050  19.419 -0.6308  0.1128  0.1354
 3873TIP3    H135814   6.622   6.145  19.424 -0.0806  0.2849 -1.4142
 3873TIP3    H235815   6.561   6.015  19.472  0.4459  1.3706  2.5846
 3874TIP3   OH235816   4.309   0.443  17.456  0.4789 -0.3763  0.2435
 3874TIP3    H135817   4.349   0.461  17.371 -1.1622  0.2519 -0.4349
 3874TIP3    H235818   4.309   0.348  17.464  1.5970 -0.4106  0.0485
 3875TIP3   OH235819   4.670   7.530  19.198  0.2996 -0.1160 -0.5529
 3875TIP3    H135820   4.725   7.582  19.256 -0.3575  0.5890 -0.5435
 3875TIP3    H235821   4.681   7.440  19.228 -0.9841  0.3533  1.4948
 3876TIP3   OH235822   3.743   5.046  17.252  0.0085  0.2560  0.2981
 3876TIP3    H135823   3.832   5.009  17.249  0.0441  0.3762 -0.3494
 3876TIP3    H235824   3.695   4.998  17.185 -0.3791  0.2937  0.5490
 3877TIP3   OH235825   0.347   2.609  17.914 -0.2997 -0.3497  0.3788
 3877TIP3    H135826   0.290   2.660  17.972 -0.9736  0.9466 -1.3568
 3877TIP3    H235827   0.432   2.610  17.959 -1.1800 -0.8940  2.1797
 3878TIP3   OH235828   7.621   6.269  17.180 -0.0529 -0.5060 -0.5017
 3878TIP3    H135829   7.605   6.335  17.248  0.4280 -0.5317 -0.3534
 3878TIP3    H235830   7.535   6.235  17.158 -0.2776 -0.0325 -0.3670
 3879TIP3   OH235831   1.871   4.594  18.675  0.0083  0.2655 -0.0380
 3879TIP3    H135832   1.878   4.512  18.626  0.0925 -0.6814  1.5001
 3879TIP3    H235833   1.813   4.573  18.748  0.3525  1.4626  0.5956
 3880TIP3   OH235834   5.189   3.738  18.516 -0.3666  0.0276  0.1359
 3880TIP3    H135835   5.276   3.776  18.517 -0.2919  0.0044 -1.8265
 3880TIP3    H235836   5.134   3.803  18.559  0.6646 -0.1502  1.7823
 3881TIP3   OH235837   3.369   5.595  17.469 -0.1688  0.3277  0.5859
 3881TIP3    H135838   3.327   5.673  17.433 -2.1665 -0.5425  0.8862
 3881TIP3    H235839   3.340   5.592  17.560  0.5039 -0.3707  0.7843
 3882TIP3   OH235840   6.131   7.613  17.545  0.1443 -0.2324 -0.0583
 3882TIP3    H135841   6.087   7.651  17.621 -0.8261 -0.0142 -0.6991
 3882TIP3    H235842   6.068   7.625  17.473  1.2706  0.0746 -1.0127
 3883TIP3   OH235843   7.114   1.257  17.918 -0.0104  0.0858  0.0128
 3883TIP3    H135844   7.021   1.255  17.893 -0.0470  1.5992 -0.0664
 3883TIP3    H235845   7.159   1.285  17.839  0.5550 -0.9047 -0.0202
 3884TIP3   OH235846   1.704   0.734  18.131  0.5984  0.2941  0.3420
 3884TIP3    H135847   1.655   0.757  18.052  0.9585  0.5648  0.1931
 3884TIP3    H235848   1.641   0.746  18.203  0.4699  0.7123  0.1607
 3885TIP3   OH235849   2.278   1.607  17.551 -0.1165  0.3110  0.1968
 3885TIP3    H135850   2.247   1.685  17.505 -1.7329 -0.5012 -0.1471
 3885TIP3    H235851   2.362   1.633  17.588  0.4025  1.5423 -1.7285
 3886TIP3   OH235852   5.545   7.543  16.967 -0.2494  0.3325 -0.3287
 3886TIP3    H135853   5.629   7.538  17.013  0.0704  1.6224 -0.7300
 3886TIP3    H235854   5.529   7.454  16.937  0.5081 -0.1243  0.5803
 3887TIP3   OH235855   3.895   0.642  19.357  0.1450  0.2174  0.2044
 3887TIP3    H135856   3.887   0.623  19.264  0.0868 -0.8209  0.4110
 3887TIP3    H235857   3.865   0.733  19.365  0.7528  0.5274 -0.8698
 3888TIP3   OH235858   2.811   4.426  19.006  0.5601  0.1499  0.6269
 3888TIP3    H135859   2.718   4.404  19.000  0.7501 -0.4308 -0.4229
 3888TIP3    H235860   2.848   4.398  18.922  0.9460  4.1606 -0.7733
 3889TIP3   OH235861   0.661   5.724  16.786 -0.4304  0.3963  0.0205
 3889TIP3    H135862   0.709   5.804  16.765 -0.7394  0.4615 -0.4435
 3889TIP3    H235863   0.569   5.748  16.779 -0.5247  0.0514  0.0689
 3890TIP3   OH235864   7.075   0.028  19.022 -0.2322 -0.4536  0.3029
 3890TIP3    H135865   7.095  -0.016  18.939 -0.2109  1.1702 -0.5904
 3890TIP3    H235866   6.981   0.045  19.019  0.1055  1.6351 -0.4858
 3891TIP3   OH235867   5.874   6.985  19.089 -0.4678  0.4655  0.1705
 3891TIP3    H135868   5.793   6.940  19.111  0.3947 -1.1548  0.1908
 3891TIP3    H235869   5.920   6.996  19.172 -0.4671  1.0009  0.1067
 3892TIP3   OH235870   5.087   3.725  17.890 -0.5711 -0.1295 -0.2006
 3892TIP3    H135871   5.066   3.727  17.796 -0.4309  1.1822 -0.2292
 3892TIP3    H235872   5.002   3.734  17.933 -0.5906 -0.2380 -0.2184
 3893TIP3   OH235873   4.087   5.865  17.250  0.5345  0.2513 -0.5721
 3893TIP3    H135874   4.085   5.802  17.322 -0.2771  1.3416  0.4023
 3893TIP3    H235875   4.021   5.833  17.189  1.9934 -1.3028 -1.4454
 3894TIP3   OH235876   6.360   0.881  18.388 -0.2046 -0.6249  0.2310
 3894TIP3    H135877   6.432   0.944  18.392 -0.2377 -0.6155  0.7263
 3894TIP3    H235878   6.403   0.795  18.385 -0.1680 -0.6065  0.2291
 3895TIP3   OH235879   6.241   2.219  18.213  0.1071 -0.4942 -0.2623
 3895TIP3    H135880   6.312   2.155  18.217  0.2637 -0.3681 -0.9742
 3895TIP3    H235881   6.175   2.179  18.157 -0.4017 -0.6173  0.4065
 3896TIP3   OH235882   4.368   1.912  18.295 -0.4198 -0.1761 -0.4268
 3896TIP3    H135883   4.300   1.948  18.352 -1.0582  1.8159 -2.2950
 3896TIP3    H235884   4.409   1.988  18.255  3.3813 -1.2568  0.9980
 3897TIP3   OH235885   0.162   5.756  18.520  0.0297  0.2297 -0.3514
 3897TIP3    H135886   0.079   5.763  18.473 -0.9418  0.3357  1.3093
 3897TIP3    H235887   0.167   5.836  18.573  1.1557  0.1874 -0.3679
 3898TIP3   OH235888   3.373   0.464  19.052  0.0001  0.2451  0.3055
 3898TIP3    H135889   3.406   0.480  18.964 -0.4123  0.8928  0.2593
 3898TIP3    H235890   3.422   0.525  19.108  0.5253 -0.4237  0.5854
 3899TIP3   OH235891   3.160   6.293  19.026  0.1437  0.5094 -0.5974
 3899TIP3    H135892   3.130   6.364  19.083 -1.1834 -0.6927  0.2516
 3899TIP3    H235893   3.083   6.271  18.973 -0.8962 -2.9945  1.9937
 3900TIP3   OH235894   3.758   6.426  19.401 -0.7142 -0.1730  0.0719
 3900TIP3    H135895   3.731   6.374  19.325  0.9770 -1.8294  0.5422
 3900TIP3    H235896   3.784   6.511  19.364 -2.9390  0.1965 -0.7828
 3901TIP3   OH235897   2.174   3.163  18.990  0.6704 -0.4177 -0.2223
 3901TIP3    H135898   2.258   3.120  18.976  0.6393 -0.5600  0.0387
 3901TIP3    H235899   2.193   3.256  18.981  1.3539 -0.2607  2.3438
 3902TIP3   OH235900   7.071   6.863  17.433  0.2815  0.7475 -0.4896
 3902TIP3    H135901   7.020   6.944  17.432 -0.4507  0.3974  2.0669
 3902TIP3    H235902   7.131   6.873  17.507 -0.5108 -1.3715  0.5369
 3903TIP3   OH235903   1.691   0.119  17.854 -0.4049 -0.1467  0.6911
 3903TIP3    H135904   1.646   0.034  17.854  0.0253 -0.4159  2.3646
 3903TIP3    H235905   1.702   0.141  17.761 -1.2195 -1.5465  0.2395
 3904TIP3   OH235906   4.201   4.215  17.497 -0.1517 -0.1611 -0.2370
 3904TIP3    H135907   4.289   4.250  17.513 -0.3006 -0.1286  0.5978
 3904TIP3    H235908   4.143   4.275  17.544 -0.5335 -0.7084 -0.0045
 3905TIP3   OH235909   0.195   7.043  18.997 -0.2221  0.1527 -0.0270
 3905TIP3    H135910   0.134   7.043  19.071  1.7324 -0.2597  1.6986
 3905TIP3    H235911   0.254   6.969  19.014  0.6442  0.4014 -1.7070
 3906TIP3   OH235912   2.678   7.291  17.807  0.7163  0.1532 -0.0022
 3906TIP3    H135913   2.586   7.274  17.824  0.4653  0.5841 -0.8403
 3906TIP3    H235914   2.718   7.204  17.799  0.2047 -0.0363 -0.5183
 3907TIP3   OH235915   4.099   1.600  17.467 -0.3199 -0.4611 -0.3985
 3907TIP3    H135916   4.067   1.669  17.524  2.0590 -0.5288  1.2011
 3907TIP3    H235917   4.105   1.640  17.381  0.1843  1.0947  0.3260
 3908TIP3   OH235918   4.899   7.597  17.215 -0.0349  0.8851  0.1663
 3908TIP3    H135919   4.948   7.625  17.137 -0.3480 -0.2193 -0.4477
 3908TIP3    H235920   4.879   7.505  17.198 -2.7898  1.4082  0.1346
 3909TIP3   OH235921   2.846   3.247  19.208 -0.5423 -0.3105 -0.3971
 3909TIP3    H135922   2.793   3.213  19.280  2.2830 -0.3953  1.7803
 3909TIP3    H235923   2.833   3.342  19.212 -0.4379 -0.3166  0.2120
 3910TIP3   OH235924   3.198   3.528  19.219 -0.3814  0.0123 -0.3522
 3910TIP3    H135925   3.123   3.472  19.240 -0.1379  0.1971  1.0600
 3910TIP3    H235926   3.257   3.519  19.294 -0.4831  2.3923  0.0832
 3911TIP3   OH235927   5.039   5.629  17.446 -0.0019  0.1045 -0.4200
 3911TIP3    H135928   5.086   5.652  17.526 -0.3969 -0.6896  0.0554
 3911TIP3    H235929   5.063   5.538  17.429 -0.2339  0.1429 -0.9892
 3912TIP3   OH235930   0.847   5.778  18.896 -0.2958 -0.0411  0.3618
 3912TIP3    H135931   0.770   5.792  18.839  0.4875 -1.2791 -1.0840
 3912TIP3    H235932   0.902   5.855  18.881 -1.1886  0.8147  1.3411
 3913TIP3   OH235933   6.026   6.883  17.222 -0.7621  0.1497  0.1647
 3913TIP3    H135934   5.967   6.958  17.209 -1.1225  0.4331  2.9696
 3913TIP3    H235935   5.967   6.807  17.226 -0.6581  0.0712  0.2097
 3914TIP3   OH235936   4.106   5.705  17.921 -0.4391  0.1427 -0.6008
 3914TIP3    H135937   4.022   5.716  17.876 -1.4636 -1.7566  0.6876
 3914TIP3    H235938   4.104   5.770  17.991 -0.8543  0.0556 -0.5317
 3915TIP3   OH235939   5.807   5.715  16.072 -0.1374 -0.2233  0.2121
 3915TIP3    H135940   5.731   5.772  16.081 -1.1555 -1.7413  2.1593
 3915TIP3    H235941   5.826   5.715  15.979 -1.1846  1.8769 -0.0572
 3916TIP3   OH235942   0.363   7.387  17.789 -0.1370  0.2127 -0.4100
 3916TIP3    H135943   0.314   7.432  17.858  0.9678  0.9522 -0.0783
 3916TIP3    H235944   0.425   7.331  17.837  1.7396  1.9241 -0.7243
 3917TIP3   OH235945   6.555   5.469  17.491 -0.0542 -0.3970  0.1815
 3917TIP3    H135946   6.557   5.375  17.507 -0.8508 -0.6687 -1.2278
 3917TIP3    H235947   6.640   5.489  17.452  0.7315 -0.2321  1.8837
 3918TIP3   OH235948   2.711   6.463  18.416  0.3280 -0.5312 -0.0888
 3918TIP3    H135949   2.649   6.469  18.343 -0.4524 -1.2597  0.4953
 3918TIP3    H235950   2.796   6.447  18.374  0.2265  0.9099 -0.9251
 3919TIP3   OH235951   2.233   7.189  18.608 -1.0967  1.2201  0.2960
 3919TIP3    H135952   2.212   7.133  18.533 -1.0801 -0.8345  1.7432
 3919TIP3    H235953   2.195   7.274  18.586 -0.8939  0.7556 -2.1148
 3920TIP3   OH235954   1.630   2.309  17.493 -0.0033  0.3581 -0.0218
 3920TIP3    H135955   1.688   2.233  17.496 -0.0241  0.3838  1.3787
 3920TIP3    H235956   1.587   2.303  17.407  0.8551 -0.5580 -0.4007
 3921TIP3   OH235957   4.579   0.675  17.889 -0.6520 -0.3235 -0.4233
 3921TIP3    H135958   4.548   0.666  17.799 -0.4639  0.8254 -0.6151
 3921TIP3    H235959   4.667   0.711  17.880 -0.1989 -1.2368  0.1948
 3922TIP3   OH235960   0.770   4.369  19.390  0.5970 -0.2053 -0.4318
 3922TIP3    H135961   0.743   4.385  19.480 -1.3438 -0.9670 -0.8433
 3922TIP3    H235962   0.694   4.329  19.348  1.4352  0.1622 -2.4262
 3923TIP3   OH235963   4.517   5.331  18.002 -0.0489 -0.3621 -0.5198
 3923TIP3    H135964   4.602   5.364  17.974 -0.7376 -0.2433 -2.6075
 3923TIP3    H235965   4.523   5.236  17.994 -0.4421 -0.2965 -1.7475
 3924TIP3   OH235966   6.562   3.402  19.361 -0.4743 -0.1031  0.4552
 3924TIP3    H135967   6.534   3.469  19.423 -0.7035 -1.2565  1.6530
 3924TIP3    H235968   6.653   3.424  19.340 -0.3976  0.3094  1.2034
 3925TIP3   OH235969   7.542   4.110  17.589 -0.4199  0.8040  0.0195
 3925TIP3    H135970   7.634   4.091  17.572 -0.5755 -0.1842  0.2357
 3925TIP3    H235971   7.542   4.160  17.670 -0.2948 -2.5988  2.3122
 3926TIP3   OH235972   3.110   5.705  19.487 -0.1807 -0.1254 -0.2222
 3926TIP3    H135973   3.145   5.616  19.492 -1.1234 -0.4834  0.2173
 3926TIP3    H235974   3.186   5.760  19.468  0.4491 -0.9975 -0.2536
 3927TIP3   OH235975   5.702   1.042  18.434  0.1213 -0.0624 -0.3196
 3927TIP3    H135976   5.689   0.955  18.471  3.4927 -0.7061 -0.3511
 3927TIP3    H235977   5.792   1.065  18.457 -0.4215  3.1655 -0.9006
 3928TIP3   OH235978   0.004   6.332  18.164  0.1682  0.0632  0.2604
 3928TIP3    H135979   0.048   6.248  18.174 -0.9113 -0.6998 -0.9520
 3928TIP3    H235980  -0.089   6.312  18.178 -0.0086  1.2462  0.8947
 3929TIP3   OH235981   4.561   3.065  16.787 -0.5696 -0.0675  0.6033
 3929TIP3    H135982   4.508   3.125  16.735  0.1689  1.5276  1.6164
 3929TIP3    H235983   4.554   2.981  16.741  1.4076  1.5306 -3.1452
 3930TIP3   OH235984   0.633   4.256  17.436  0.2816 -0.9251 -0.4717
 3930TIP3    H135985   0.627   4.212  17.352  1.3948 -0.7101 -0.6792
 3930TIP3    H235986   0.552   4.231  17.482 -1.4536  0.7462 -2.4168
 3931TIP3   OH235987   6.477   3.232  19.164 -0.2326 -0.1886 -0.1263
 3931TIP3    H135988   6.510   3.291  19.232 -0.9237  0.9932 -0.7928
 3931TIP3    H235989   6.555   3.205  19.116  0.2115 -0.6693  0.8252
 3932TIP3   OH235990   1.995   0.816  18.933 -0.2132 -0.3082 -0.0183
 3932TIP3    H135991   1.907   0.782  18.946 -0.7682  0.7229 -0.9891
 3932TIP3    H235992   2.018   0.792  18.843 -0.4389  1.4403 -0.5637
 3933TIP3   OH235993   7.007   7.229  16.887  0.1900 -0.0229  1.1389
 3933TIP3    H135994   6.976   7.203  16.800 -3.1631  0.8603  1.9587
 3933TIP3    H235995   7.070   7.299  16.870 -0.8421  0.5373 -0.5824
 3934TIP3   OH235996   6.373   1.901  18.416 -0.1847 -0.5206 -0.3626
 3934TIP3    H135997   6.442   1.929  18.477 -0.5334 -1.9674  0.7650
 3934TIP3    H235998   6.292   1.928  18.458 -0.4807 -2.3273  0.3293
 3935TIP3   OH235999   5.139   5.936  17.873  0.1900 -0.2958 -0.0785
 3935TIP3    H136000   5.217   5.881  17.869  0.7125  0.5235 -3.3489
 3935TIP3    H236001   5.123   5.947  17.967  1.5979 -3.7635  0.7229
 3936TIP3   OH236002   2.254   1.910  18.170 -0.0748 -0.1672 -0.0662
 3936TIP3    H136003   2.205   1.948  18.097  0.9450  0.5662 -0.3866
 3936TIP3    H236004   2.203   1.933  18.247 -0.9129 -0.5393 -0.4923
 3937TIP3   OH236005   3.076   2.619  19.003  0.0446  0.1910  0.2192
 3937TIP3    H136006   3.121   2.703  19.015  1.3794 -0.3221 -0.9062
 3937TIP3    H236007   3.111   2.563  19.072  0.7731 -0.0504 -0.3318
 3938TIP3   OH236008   6.363   2.031  17.741 -0.1179  0.6555  0.3749
 3938TIP3    H136009   6.459   2.025  17.736 -0.2534 -0.8682 -2.2728
 3938TIP3    H236010   6.346   2.123  17.762  1.9162  1.2632 -0.3488
 3939TIP3   OH236011   1.329   4.896  18.393 -0.3450 -0.0515  0.3636
 3939TIP3    H136012   1.345   4.914  18.486 -1.0994  2.1971  0.1167
 3939TIP3    H236013   1.237   4.870  18.390 -0.9341  1.9356  0.0479
 3940TIP3   OH236014   4.004   6.956  17.934 -0.1936 -0.3461  0.2795
 3940TIP3    H136015   4.025   6.890  17.868 -1.4565 -0.7627  0.2731
 3940TIP3    H236016   3.970   6.906  18.008  1.4538  0.0893  1.3791
 3941TIP3   OH236017   5.827   7.651  16.712 -0.0091 -0.2527  0.6431
 3941TIP3    H136018   5.747   7.642  16.660 -0.6583 -0.1137  1.5930
 3941TIP3    H236019   5.898   7.635  16.650 -0.6361  2.2656 -0.8643
 3942TIP3   OH236020   5.462   5.454  18.239  0.8511 -0.2812  0.2991
 3942TIP3    H136021   5.440   5.517  18.308  0.2223 -1.3300  1.0896
 3942TIP3    H236022   5.439   5.369  18.276 -2.8274 -0.7159 -2.4198
 3943TIP3   OH236023   5.512   5.978  17.565  0.1650  0.4620  0.0410
 3943TIP3    H136024   5.448   6.031  17.517  2.1412  1.4196 -1.6970
 3943TIP3    H236025   5.504   6.007  17.656 -1.9272  0.4377 -0.0831
 3944TIP3   OH236026   3.252   7.665  18.969  0.8623 -0.2163  1.0574
 3944TIP3    H136027   3.273   7.709  18.886  1.8952 -1.8287  0.4193
 3944TIP3    H236028   3.254   7.735  19.034 -0.1805  1.1259 -0.2966
 3945TIP3   OH236029   7.581   6.961  18.900 -0.3159  0.5172  0.2531
 3945TIP3    H136030   7.636   6.911  18.840 -1.1727  2.1587 -2.0340
 3945TIP3    H236031   7.633   6.967  18.980  0.8206 -1.8814 -0.1966
 3946TIP3   OH236032   1.285   3.742  17.270  0.1222 -0.4239 -0.3015
 3946TIP3    H136033   1.315   3.690  17.345  4.4375 -0.1610 -1.5631
 3946TIP3    H236034   1.280   3.679  17.198  0.5460  0.0381 -0.7469
 3947TIP3   OH236035   3.404   1.421  18.284 -0.0454 -0.1183  0.2524
 3947TIP3    H136036   3.489   1.417  18.328 -0.0686  1.3754  0.4796
 3947TIP3    H236037   3.416   1.374  18.202  1.4121  1.2000 -0.3355
 3948TIP3   OH236038   1.210   0.066  19.440 -0.2741  0.0813 -0.0926
 3948TIP3    H136039   1.233   0.139  19.383 -1.7141  1.1089  0.5777
 3948TIP3    H236040   1.201  -0.009  19.381 -3.1749  1.4079 -1.5192
 3949TIP3   OH236041   7.511   0.733  16.837  0.0345  0.1336  0.0609
 3949TIP3    H136042   7.528   0.771  16.751  0.2976 -0.1542 -0.0125
 3949TIP3    H236043   7.478   0.645  16.819 -0.4899  0.2887  0.2382
 3950TIP3   OH236044   7.352   4.035  18.741  1.0942 -0.6149 -0.4292
 3950TIP3    H136045   7.303   4.111  18.712  0.4164  0.3511  2.9158
 3950TIP3    H236046   7.427   4.071  18.788  0.2993 -1.8988  1.9811
 3951TIP3   OH236047   0.594   0.758  19.470 -0.1100 -0.1561 -0.0182
 3951TIP3    H136048   0.647   0.687  19.435 -0.3287 -1.0405  1.3415
 3951TIP3    H236049   0.504   0.725  19.468  0.0358 -1.0561  3.0139
 3952TIP3   OH236050   4.880   2.043  18.600  0.7260  0.4698 -0.3684
 3952TIP3    H136051   4.865   2.133  18.571 -0.0385 -0.1510 -2.0430
 3952TIP3    H236052   4.899   2.050  18.693 -3.4867  2.0659  0.6049
 3953TIP3   OH236053   2.497   1.871  17.624  0.4656 -0.0788 -0.4874
 3953TIP3    H136054   2.591   1.881  17.634  0.4080  1.1598 -0.9550
 3953TIP3    H236055   2.459   1.938  17.682 -0.1069 -0.2802 -0.6180
 3954TIP3   OH236056   0.930   2.883  18.772 -0.4558 -0.1299  0.1475
 3954TIP3    H136057   0.961   2.814  18.714  1.1118 -0.4380  1.2915
 3954TIP3    H236058   0.995   2.953  18.765 -1.2408  0.6187  0.1183
 3955TIP3   OH236059   0.589   0.880  17.685 -0.0900  0.6048 -0.1334
 3955TIP3    H136060   0.622   0.872  17.595 -1.7254  1.5087 -0.8544
 3955TIP3    H236061   0.611   0.970  17.710 -2.2308  1.3758 -0.7862
 3956TIP3   OH236062   7.136   0.295  17.426 -0.0810  0.0897 -0.5281
 3956TIP3    H136063   7.192   0.312  17.350  0.7375 -0.4788 -0.0521
 3956TIP3    H236064   7.196   0.274  17.497 -0.8702  0.0685  0.1484
 3957TIP3   OH236065   5.635   5.523  17.759  0.2656 -0.2377 -0.1177
 3957TIP3    H136066   5.598   5.606  17.728  1.4146  0.1344 -0.5228
 3957TIP3    H236067   5.575   5.495  17.829  0.7456  1.7399  1.1633
 3958TIP3   OH236068   7.253   0.326  17.899  0.4715  0.0012  0.2461
 3958TIP3    H136069   7.209   0.246  17.928 -0.1034  0.4010  0.4846
 3958TIP3    H236070   7.183   0.391  17.893  0.9181  0.4583 -0.0599
 3959TIP3   OH236071   5.416   0.243  17.047 -0.6266 -0.4461 -0.3096
 3959TIP3    H136072   5.418   0.249  16.952  0.4358  1.6542 -0.2097
 3959TIP3    H236073   5.405   0.333  17.077 -0.7421 -1.0334  1.5787
 3960TIP3   OH236074   3.623   7.043  17.392  0.6196 -0.3547  0.2958
 3960TIP3    H136075   3.594   7.096  17.467  1.2990  1.1387 -0.4531
 3960TIP3    H236076   3.703   7.000  17.423  0.4081 -0.4649  0.7097
 3961TIP3   OH236077   0.734   0.848  16.518 -0.4136 -0.4146  0.0696
 3961TIP3    H136078   0.825   0.854  16.549 -0.4661 -0.9756  0.3482
 3961TIP3    H236079   0.697   0.934  16.534  0.2122 -0.0333 -0.4940
 3962TIP3   OH236080   0.818   1.857  18.205 -0.6330  0.8129  0.4529
 3962TIP3    H136081   0.803   1.765  18.184  0.5630  0.7198 -0.0293
 3962TIP3    H236082   0.899   1.857  18.256  0.5133  1.8016 -1.3068
 3963TIP3   OH236083   5.421   1.521  18.920 -0.1813  0.4856  0.0659
 3963TIP3    H136084   5.346   1.512  18.860 -0.7508  2.3344  0.4567
 3963TIP3    H236085   5.408   1.451  18.984 -1.2882  0.4433 -0.1783
 3964TIP3   OH236086   0.224   0.523  19.677  0.3979 -0.4554 -0.3035
 3964TIP3    H136087   0.298   0.487  19.726  1.1799  2.4496  0.8738
 3964TIP3    H236088   0.149   0.511  19.735  0.5288 -0.7895 -0.2025
 3965TIP3   OH236089   4.054   7.352  17.436 -0.4114  0.8478 -0.7330
 3965TIP3    H136090   4.130   7.295  17.426 -1.2137 -0.1030 -1.6854
 3965TIP3    H236091   4.030   7.375  17.346 -0.7456  1.8387 -0.4014
 3966TIP3   OH236092   5.834   4.149  19.151  0.1794  0.1530  0.1848
 3966TIP3    H136093   5.770   4.210  19.189 -0.8383 -0.7508 -0.0124
 3966TIP3    H236094   5.914   4.164  19.200 -1.2499 -1.4829  3.3185
 3967TIP3   OH236095   0.015   3.551  18.657  0.2032  0.1603 -0.5870
 3967TIP3    H136096   0.106   3.582  18.651  0.1276  1.5575  3.0713
 3967TIP3    H236097   0.023   3.459  18.686  0.3442 -1.0953 -4.1500
 3968TIP3   OH236098   1.111   3.947  18.109  0.1862  0.1953  0.2778
 3968TIP3    H136099   1.122   3.876  18.046  1.1377  0.3071  0.2956
 3968TIP3    H236100   1.187   4.003  18.094  0.9099 -0.2404  2.1089
 3969TIP3   OH236101   2.423   0.475  19.117  0.2487  0.5575 -0.3025
 3969TIP3    H136102   2.424   0.379  19.121  0.1651  0.5049 -1.4410
 3969TIP3    H236103   2.480   0.502  19.189  0.9592 -0.3681 -0.4956
 3970TIP3   OH236104   6.759   4.961  18.035  0.1753  0.0084 -0.2407
 3970TIP3    H136105   6.751   5.049  17.998 -2.2393 -0.3885 -0.8474
 3970TIP3    H236106   6.679   4.916  18.007  0.6188 -1.9019  1.3500
 3971TIP3   OH236107   7.408   0.290  18.379 -0.2098 -0.0044 -0.3741
 3971TIP3    H136108   7.335   0.345  18.407 -0.1933  1.0782 -2.2688
 3971TIP3    H236109   7.395   0.279  18.285  2.0465  0.2099 -0.7672
 3972TIP3   OH236110   2.299   1.335  18.496 -0.1194 -0.6977  0.2581
 3972TIP3    H136111   2.266   1.276  18.428 -0.2229  0.9254 -1.1774
 3972TIP3    H236112   2.271   1.295  18.578 -2.5701 -1.2345 -0.7597
 3973TIP3   OH236113   5.236   3.693  18.113 -0.0384  0.2579  0.1407
 3973TIP3    H136114   5.182   3.734  18.045 -1.2007  0.2351  1.0045
 3973TIP3    H236115   5.227   3.599  18.096 -2.4242  0.1026  1.7567
 3974TIP3   OH236116   6.881   5.871  18.592  0.0131  0.8327 -0.2703
 3974TIP3    H136117   6.882   5.841  18.501  2.0141 -0.6998  0.1766
 3974TIP3    H236118   6.960   5.925  18.599  1.2279 -1.0035  1.0701
 3975TIP3   OH236119   3.799   0.992  18.189  0.2960  0.5178 -0.2194
 3975TIP3    H136120   3.893   0.992  18.207  0.5413  0.1672 -1.4328
 3975TIP3    H236121   3.770   0.905  18.215  0.0562  1.0268  1.3034
 3976TIP3   OH236122   7.658   5.294  17.451 -0.8645  0.0629 -0.0676
 3976TIP3    H136123   7.576   5.291  17.403 -1.9545 -0.0761  1.7053
 3976TIP3    H236124   7.674   5.387  17.468  0.2328  0.2321 -1.7693
 3977TIP3   OH236125   4.924   4.258  18.215 -0.0737 -0.2225 -0.4780
 3977TIP3    H136126   4.881   4.175  18.235  1.3767 -0.7615  0.6118
 3977TIP3    H236127   4.876   4.323  18.267  1.1110 -1.0116  1.7748
 3978TIP3   OH236128   4.760   5.710  17.753  0.1972  0.0988 -0.0299
 3978TIP3    H136129   4.675   5.750  17.773 -2.4282 -4.7797 -0.1093
 3978TIP3    H236130   4.771   5.723  17.659 -0.3707  0.8642 -0.0049
 3979TIP3   OH236131   1.255   3.874  17.810  0.3962 -0.0682  0.3311
 3979TIP3    H136132   1.318   3.851  17.878 -0.2898 -0.2141  0.9256
 3979TIP3    H236133   1.306   3.873  17.729  1.4806  1.2616  0.9673
 3980TIP3   OH236134   4.980   0.178  18.950  0.6616  0.5991 -0.5053
 3980TIP3    H136135   4.932   0.099  18.974  1.3151  0.1816 -0.5501
 3980TIP3    H236136   5.063   0.171  18.997  0.5985  1.4195 -0.2500
 3981TIP3   OH236137   6.518   0.191  18.084  0.6217 -0.3287  0.4191
 3981TIP3    H136138   6.496   0.219  18.173 -0.9139  1.7898 -0.5163
 3981TIP3    H236139   6.613   0.182  18.085  0.8081  1.1331  1.9308
 3982TIP3   OH236140   1.783   4.496  17.408 -0.5877 -0.2366  0.3024
 3982TIP3    H136141   1.704   4.473  17.359  0.6126 -0.3851 -1.7162
 3982TIP3    H236142   1.854   4.486  17.344  0.8442  1.8663  1.4320
 3983TIP3   OH236143   6.073   1.008  18.846  0.0990 -0.5030 -0.5292
 3983TIP3    H136144   6.016   1.085  18.840 -1.9038 -1.9937 -2.7499
 3983TIP3    H236145   6.036   0.957  18.918  0.3723 -0.1724 -0.1543
 3984TIP3   OH236146   5.541   3.077  19.192  0.2679  0.4987 -0.7484
 3984TIP3    H136147   5.611   3.142  19.195  2.1288 -1.3878  1.9163
 3984TIP3    H236148   5.576   3.007  19.136 -0.9574  0.9723 -2.1466
 3985TIP3   OH236149   6.398   3.325  16.641 -0.6114 -0.6298 -0.2563
 3985TIP3    H136150   6.395   3.417  16.670  3.8849 -0.4113  0.2802
 3985TIP3    H236151   6.422   3.330  16.549  0.6897 -1.1851  0.0272
 3986TIP3   OH236152   4.483   1.756  17.632 -0.5797  0.1838  0.4003
 3986TIP3    H136153   4.488   1.669  17.671 -0.4088  0.1425  0.2881
 3986TIP3    H236154   4.517   1.745  17.544  0.2889  0.5396  0.6811
 3987TIP3   OH236155   6.837   4.784  19.548  0.6085  0.2203  0.2039
 3987TIP3    H136156   6.850   4.867  19.592  1.8873 -0.2758  0.8036
 3987TIP3    H236157   6.911   4.776  19.488  2.0446 -1.6416  2.0599
 3988TIP3   OH236158   6.612   0.685  19.324  0.3029 -0.1714 -0.2997
 3988TIP3    H136159   6.665   0.626  19.271 -0.0462  0.3594 -1.2651
 3988TIP3    H236160   6.539   0.709  19.267 -0.9396 -0.8203  0.9577
 3989TIP3   OH236161   6.537   4.812  18.142 -0.4964 -0.0253  0.2140
 3989TIP3    H136162   6.497   4.884  18.190  0.6802  1.2145 -0.5579
 3989TIP3    H236163   6.584   4.761  18.208  1.1402  1.6732  0.4503
 3990TIP3   OH236164   1.232   2.119  19.091 -0.1714 -0.3447  0.1417
 3990TIP3    H136165   1.238   2.140  18.998 -2.1917  0.1154  0.0678
 3990TIP3    H236166   1.243   2.024  19.094  2.9197 -0.1197 -0.1654
 3991TIP3   OH236167   0.745   5.560  18.371 -0.7122  0.0528 -0.0391
 3991TIP3    H136168   0.658   5.587  18.342 -0.5187  1.0373  0.2539
 3991TIP3    H236169   0.731   5.519  18.457 -0.5779  3.2824  1.6806
 3992TIP3   OH236170   2.725   3.287  16.454  0.5986  0.7205  0.0045
 3992TIP3    H136171   2.802   3.239  16.484  1.6843  3.2711  1.6670
 3992TIP3    H236172   2.721   3.364  16.512 -2.4971  1.3203 -0.8361
 3993TIP3   OH236173   1.921   0.594  19.251 -0.0365 -0.0527 -0.2681
 3993TIP3    H136174   1.961   0.542  19.320 -1.2151 -0.5851  0.0461
 3993TIP3    H236175   1.994   0.621  19.195  0.8137 -0.4490  0.6213
 3994TIP3   OH236176   5.084   4.797  17.642 -0.0017  0.0489  0.6536
 3994TIP3    H136177   5.165   4.832  17.605 -0.8339  1.7009  0.2971
 3994TIP3    H236178   5.015   4.842  17.594 -1.1346  0.4565  2.5771
 3995TIP3   OH236179   0.447   4.780  18.833  0.6156  0.7052  0.2265
 3995TIP3    H136180   0.470   4.866  18.869  2.8092 -0.3581  1.5690
 3995TIP3    H236181   0.408   4.733  18.907 -1.2326  0.7231 -0.6784
 3996TIP3   OH236182   2.799   3.253  18.876 -0.0846  0.0173  0.6177
 3996TIP3    H136183   2.736   3.251  18.949 -4.1879 -0.0937 -2.5863
 3996TIP3    H236184   2.812   3.346  18.859  0.9230  0.0441  1.4600
 3997TIP3   OH236185   5.533   0.307  18.613 -0.6609  0.1917  0.2508
 3997TIP3    H136186   5.589   0.264  18.678  2.3311  0.3058 -2.0628
 3997TIP3    H236187   5.457   0.249  18.605  1.4607 -2.7367 -0.0512
 3998TIP3   OH236188   4.044   2.563  18.082 -0.5325 -0.0951 -0.4173
 3998TIP3    H136189   4.120   2.504  18.074 -0.5887  0.0390 -2.4560
 3998TIP3    H236190   4.052   2.621  18.006 -0.8497  2.1282  1.1787
 3999TIP3   OH236191   6.967   5.544  16.863  0.8784 -0.4809 -0.3042
 3999TIP3    H136192   7.031   5.483  16.897 -0.1443 -0.7965  1.1943
 3999TIP3    H236193   6.977   5.541  16.768  0.7605 -3.0897 -0.2961
 4000TIP3   OH236194   0.216   7.440  18.040  0.0129 -0.3889  0.0086
 4000TIP3    H136195   0.258   7.358  18.064  0.0383 -0.1485  0.7939
 4000TIP3    H236196   0.215   7.492  18.120 -1.2745 -0.1594 -0.1386
 4001TIP3   OH236197   5.096   2.580  18.107  0.0023 -0.4340  0.5111
 4001TIP3    H136198   5.065   2.634  18.034  2.1256  1.4329  0.8535
 4001TIP3    H236199   5.186   2.557  18.083 -0.0936 -1.8988  1.4408
 4002TIP3   OH236200   3.227   5.858  18.525  0.3638 -0.2116  0.2050
 4002TIP3    H136201   3.162   5.902  18.579 -0.3728  0.4749 -1.1838
 4002TIP3    H236202   3.211   5.765  18.539 -0.9953 -0.0603 -0.1853
 4003TIP3   OH236203   4.034   6.177  17.315 -0.3117 -0.0984  0.0688
 4003TIP3    H136204   3.939   6.174  17.305 -0.3946 -0.7220  0.9906
 4003TIP3    H236205   4.068   6.156  17.228 -1.0038  0.8058 -0.4430
 4004TIP3   OH236206   0.580   7.390  19.231 -0.7979 -0.4695 -0.0959
 4004TIP3    H136207   0.516   7.331  19.191 -1.0279 -0.0175 -0.4017
 4004TIP3    H236208   0.603   7.451  19.161 -2.7966  1.6807  0.9815
 4005TIP3   OH236209   1.458   4.346  19.213 -0.1708 -0.0108 -0.0766
 4005TIP3    H136210   1.363   4.346  19.207 -0.1431 -0.2352 -0.5371
 4005TIP3    H236211   1.485   4.267  19.167  0.3245  0.9005 -1.4020
 4006TIP3   OH236212   0.073   1.727  18.893  0.2394  0.0334  0.3080
 4006TIP3    H136213   0.098   1.753  18.805  1.4063  0.2375  0.6815
 4006TIP3    H236214   0.059   1.633  18.887 -0.0728  0.1052 -0.1719
 4007TIP3   OH236215   0.695   3.308  19.606  0.0707  0.0792  0.2358
 4007TIP3    H136216   0.648   3.354  19.676  0.7147  2.2466 -0.6703
 4007TIP3    H236217   0.629   3.252  19.566 -0.8836  0.5381  1.1104
 4008TIP3   OH236218   3.576   1.454  18.727 -0.4126  0.5822  0.1028
 4008TIP3    H136219   3.653   1.423  18.775 -0.0408 -0.1202 -0.9275
 4008TIP3    H236220   3.601   1.541  18.696 -0.0431  0.3778 -0.1810
 4009TIP3   OH236221   4.480   6.017  18.181  0.1425 -0.6829 -0.2448
 4009TIP3    H136222   4.442   5.931  18.199  0.8843 -1.3429 -1.7026
 4009TIP3    H236223   4.547   6.001  18.115  0.5249  0.9709 -0.3075
 4010TIP3   OH236224   5.803   1.581  18.124  0.4537 -0.0164  0.4804
 4010TIP3    H136225   5.754   1.499  18.123 -0.1821  0.3599  0.5980
 4010TIP3    H236226   5.764   1.633  18.054 -1.4961  1.5501  2.6277
 4011TIP3   OH236227   5.946   3.683  17.358  0.4760  0.2858 -0.6285
 4011TIP3    H136228   5.882   3.714  17.293 -0.6947 -0.6669  0.0318
 4011TIP3    H236229   5.996   3.616  17.312 -1.4229 -1.5761 -0.1737
 4012TIP3   OH236230   0.392   4.165  19.168  0.1133 -0.3080  0.0827
 4012TIP3    H136231   0.360   4.092  19.115 -0.2024 -0.6975  0.7879
 4012TIP3    H236232   0.314   4.199  19.212  0.3255  0.1796  0.0852
 4013TIP3   OH236233   0.593   3.143  18.586 -0.2298  0.4882 -0.1968
 4013TIP3    H136234   0.561   3.183  18.667 -0.0633  1.0705 -0.4118
 4013TIP3    H236235   0.526   3.080  18.562 -1.5022  2.0647 -0.9241
 4014TIP3   OH236236   1.549   3.056  18.162 -0.6178  0.5709 -0.1291
 4014TIP3    H136237   1.571   2.975  18.207 -1.1840 -0.1735 -1.1643
 4014TIP3    H236238   1.634   3.093  18.137 -0.3807 -0.7520 -1.4260
 4015TIP3   OH236239   6.156   0.173  17.315  0.0818  0.4327 -0.0991
 4015TIP3    H136240   6.084   0.219  17.360 -0.4434 -0.9927  0.5642
 4015TIP3    H236241   6.234   0.225  17.336 -0.3025  0.3506  1.6796
 4016TIP3   OH236242   6.120   2.281  17.942  0.0318 -0.4525 -0.0286
 4016TIP3    H136243   6.097   2.345  18.010 -0.0538  0.0900 -0.5563
 4016TIP3    H236244   6.037   2.257  17.902  0.1970  0.3005 -0.8682
 4017TIP3   OH236245   1.563   0.797  17.897 -1.2537 -0.1750 -0.1144
 4017TIP3    H136246   1.496   0.730  17.910 -0.2898 -0.7636  2.6838
 4017TIP3    H236247   1.525   0.876  17.935 -0.7703 -0.2795  0.6176
 4018TIP3   OH236248   0.329   0.691  17.539  0.6246  0.2169  0.2786
 4018TIP3    H136249   0.295   0.769  17.582  0.6986 -0.7891  2.2401
 4018TIP3    H236250   0.311   0.706  17.446 -0.7008  1.8943  0.7497
 4019TIP3   OH236251   2.107   1.828  19.321 -0.1857 -0.1869 -0.3370
 4019TIP3    H136252   2.105   1.732  19.321 -2.2576 -0.1831 -1.0759
 4019TIP3    H236253   2.021   1.854  19.289  0.2318  1.9461  0.1326
 4020TIP3   OH236254   7.610   7.211  17.858  0.3339 -0.1160 -0.4556
 4020TIP3    H136255   7.548   7.187  17.789 -0.2099 -2.3355  0.7371
 4020TIP3    H236256   7.694   7.176  17.827  0.2569 -0.3706 -0.3777
 4021TIP3   OH236257   1.104   4.762  19.547 -0.4042  0.4259 -0.0058
 4021TIP3    H136258   1.070   4.787  19.633 -1.3246  0.0972 -0.2539
 4021TIP3    H236259   1.029   4.719  19.504  0.4946 -0.8187 -0.3797
 4022TIP3   OH236260   5.566   3.579  18.195 -0.6740 -0.0388  0.1536
 4022TIP3    H136261   5.509   3.656  18.205 -0.4152  0.1171  0.4363
 4022TIP3    H236262   5.654   3.615  18.192 -0.3240 -0.4691  2.8735
 4023TIP3   OH236263   3.783   5.265  18.122 -0.0571  0.8783  0.2532
 4023TIP3    H136264   3.782   5.360  18.134 -0.4385  0.7962  0.9081
 4023TIP3    H236265   3.788   5.254  18.027 -0.9608  1.5638  0.1074
 4024TIP3   OH236266   2.713   5.653  18.015  0.2289 -0.0032 -0.3666
 4024TIP3    H136267   2.749   5.582  18.067 -1.3331 -0.5040  0.0868
 4024TIP3    H236268   2.721   5.730  18.071  0.6094 -0.0985 -0.2881
 4025TIP3   OH236269   1.595   3.090  18.861  0.1456  0.1318  0.4141
 4025TIP3    H136270   1.517   3.131  18.900 -0.3058  0.3086 -0.6605
 4025TIP3    H236271   1.662   3.158  18.865 -0.2938  0.6283 -0.3623
 4026TIP3   OH236272   0.938   7.624  18.690 -0.0079  0.2873  0.1356
 4026TIP3    H136273   1.012   7.597  18.743  0.4093  0.7447 -0.2034
 4026TIP3    H236274   0.967   7.704  18.647 -1.0479  1.0137  0.7480
 4027TIP3   OH236275   1.572   4.108  19.050 -0.7126 -0.6408 -0.1456
 4027TIP3    H136276   1.627   4.154  18.987  0.5535 -1.2577  0.4609
 4027TIP3    H236277   1.633   4.074  19.115 -1.8696 -0.9877  0.8046
 4028TIP3   OH236278   7.608   1.773  19.173 -0.1075 -0.1955 -0.2288
 4028TIP3    H136279   7.665   1.772  19.096  1.7036  0.3793  1.0382
 4028TIP3    H236280   7.601   1.680  19.198  1.4537 -0.1778  0.3862
 4029TIP3   OH236281   6.266   5.468  19.414  0.1586 -0.1461 -0.0140
 4029TIP3    H136282   6.261   5.380  19.452 -2.0964 -1.1692 -2.4436
 4029TIP3    H236283   6.228   5.460  19.327 -2.0006  3.6371  0.3368
 4030TIP3   OH236284   7.095   0.237  18.670 -0.0936  0.1686 -0.1425
 4030TIP3    H136285   7.012   0.202  18.703  0.2401 -0.3413  0.1608
 4030TIP3    H236286   7.155   0.163  18.673  0.6970  0.8250  0.7378
 4031TIP3   OH236287   1.754   6.134  18.424 -0.5942 -0.2249 -0.0833
 4031TIP3    H136288   1.665   6.111  18.450 -0.6291  0.4479  0.4501
 4031TIP3    H236289   1.800   6.051  18.417 -0.9337 -0.5099  0.9146
 4032TIP3   OH236290   5.301   5.198  18.074  0.1476 -0.2795  0.4163
 4032TIP3    H136291   5.334   5.167  18.158  0.7149  0.3946  0.4508
 4032TIP3    H236292   5.265   5.284  18.092  2.2653  0.8622 -0.4008
 4033TIP3   OH236293   1.716   3.325  18.924 -0.3569 -0.2675  0.0253
 4033TIP3    H136294   1.687   3.414  18.906  2.4045  0.5705 -0.7558
 4033TIP3    H236295   1.738   3.325  19.017  0.2432  0.0619 -0.1152
 4034TIP3   OH236296   7.156   5.863  19.099  0.0229 -0.1630 -0.4179
 4034TIP3    H136297   7.226   5.868  19.164 -0.4032 -1.9288  0.2457
 4034TIP3    H236298   7.200   5.874  19.015  0.9659 -0.4230  0.0290
 4035TIP3   OH236299   0.069   1.622  18.356  0.4547  0.4971  0.3417
 4035TIP3    H136300   0.108   1.709  18.343  2.2961 -0.2147  0.7175
 4035TIP3    H236301   0.042   1.622  18.448  0.5796  0.6269  0.3790
 4036TIP3   OH236302   3.932   6.498  17.194  0.5289  0.5277 -0.0913
 4036TIP3    H136303   3.897   6.453  17.271 -0.0463 -0.7984 -1.0873
 4036TIP3    H236304   3.902   6.446  17.120  2.0103  1.1291 -1.1679
 4037TIP3   OH236305   1.524   4.402  17.302 -0.3078  0.0698 -0.6661
 4037TIP3    H136306   1.485   4.464  17.240  0.0449 -0.0742 -1.0398
 4037TIP3    H236307   1.462   4.398  17.374 -1.1961 -0.4781 -1.4344
 4038TIP3   OH236308   3.251   1.845  19.163 -0.5955 -0.3632 -0.1072
 4038TIP3    H136309   3.260   1.761  19.208 -1.0724 -0.8500 -0.9076
 4038TIP3    H236310   3.162   1.846  19.129 -0.0664 -0.2829 -1.5705
 4039TIP3   OH236311   6.323   5.592  17.396  1.0271 -0.6479  0.1911
 4039TIP3    H136312   6.371   5.606  17.315 -0.5275  1.5479 -0.4472
 4039TIP3    H236313   6.386   5.550  17.455  2.4236 -1.5770 -1.8521
 4040TIP3   OH236314   5.383   1.360  16.981 -0.4147 -0.0903  0.3424
 4040TIP3    H136315   5.463   1.412  16.978  0.0678 -0.7744  0.9008
 4040TIP3    H236316   5.413   1.271  16.997 -1.2763 -0.4021  0.2791
 4041TIP3   OH236317   4.779   7.020  18.796 -0.0087 -0.1446 -0.0169
 4041TIP3    H136318   4.847   6.992  18.857  1.6574  1.2161 -1.1181
 4041TIP3    H236319   4.740   7.097  18.836 -1.0042 -0.9741  0.6538
 4042TIP3   OH236320   3.288   7.606  19.398  0.2138 -0.0222 -0.4117
 4042TIP3    H136321   3.195   7.592  19.378 -0.0845 -0.5653  1.1941
 4042TIP3    H236322   3.291   7.696  19.432  0.7020  0.8616 -2.6033
 4043TIP3   OH236323   7.411   1.467  18.584  0.0141 -0.7502  0.6747
 4043TIP3    H136324   7.493   1.515  18.597 -0.6025  0.9124 -0.9364
 4043TIP3    H236325   7.416   1.393  18.644  2.3074 -0.2324  1.2314
 4044TIP3   OH236326   2.113   6.884  18.604  0.4497 -0.1617 -0.6500
 4044TIP3    H136327   2.054   6.891  18.529 -0.3648  1.5886  0.1124
 4044TIP3    H236328   2.201   6.894  18.567  0.0957  0.0679 -1.4397
 4045TIP3   OH236329   2.599   1.559  18.841 -0.1784  0.4383 -0.5545
 4045TIP3    H136330   2.672   1.618  18.857  0.1997 -0.4523  1.3043
 4045TIP3    H236331   2.524   1.600  18.885  0.2153 -0.6617  1.2530
 4046TIP3   OH236332   3.664   3.752  18.281 -0.4622 -0.2644 -0.5058
 4046TIP3    H136333   3.664   3.763  18.376 -1.8263  1.8393 -0.6789
 4046TIP3    H236334   3.681   3.659  18.267 -0.4853 -0.6588  1.7888
 4047TIP3   OH236335   0.211   2.245  17.406  0.5169 -0.1710 -0.0967
 4047TIP3    H136336   0.216   2.327  17.357  0.4390 -0.6198 -0.8700
 4047TIP3    H236337   0.132   2.203  17.372 -0.0781 -0.0511  1.1079
 4048TIP3   OH236338   3.483   0.991  18.514 -0.0191 -0.1047  1.1060
 4048TIP3    H136339   3.504   0.899  18.498  0.6599  0.1426  0.5550
 4048TIP3    H236340   3.565   1.037  18.502 -0.4597  0.6436  0.8928
 4049TIP3   OH236341   2.716   2.551  18.472 -0.0568  0.2811 -0.0899
 4049TIP3    H136342   2.703   2.523  18.563  0.6766 -1.0094 -0.3618
 4049TIP3    H236343   2.741   2.643  18.479  0.0054  0.1968  1.0202
 4050TIP3   OH236344   4.183   0.119  17.744 -0.4718 -0.9038 -0.7761
 4050TIP3    H136345   4.160   0.045  17.687  0.6520 -0.4998 -1.7878
 4050TIP3    H236346   4.133   0.193  17.707  0.2686 -0.6391 -1.2674
 4051TIP3   OH236347   3.459   4.182  18.676  0.1901  0.1191 -0.0698
 4051TIP3    H136348   3.514   4.259  18.693  1.7092 -0.6870 -1.1627
 4051TIP3    H236349   3.459   4.135  18.760 -0.7563  1.2630  0.6139
 4052TIP3   OH236350   3.753   3.281  17.256 -0.3315  0.1742 -0.5496
 4052TIP3    H136351   3.816   3.336  17.303 -0.8525  1.3164 -1.1456
 4052TIP3    H236352   3.796   3.262  17.172  0.5467 -1.7597  0.2787
 4053TIP3   OH236353   6.809   3.501  19.232  0.7139  0.5085 -0.6188
 4053TIP3    H136354   6.893   3.523  19.191 -0.1249  1.9479 -1.6725
 4053TIP3    H236355   6.780   3.583  19.273 -0.6017  0.2943 -1.0667
 4054TIP3   OH236356   3.360   2.564  18.425  0.3031  0.3995 -0.5930
 4054TIP3    H136357   3.279   2.596  18.386  0.5319  0.4917 -1.0073
 4054TIP3    H236358   3.401   2.512  18.356  0.3350 -0.0948 -0.2012
 4055TIP3   OH236359   3.570   3.531  16.521  0.2271 -0.0962  0.1990
 4055TIP3    H136360   3.662   3.552  16.535  0.7711 -0.7924 -2.0107
 4055TIP3    H236361   3.570   3.442  16.488 -1.4376 -0.7857  1.8589
 4056TIP3   OH236362   2.259   0.330  19.827 -0.0469 -0.2888 -0.3017
 4056TIP3    H136363   2.296   0.346  19.914 -0.2245 -0.4039 -0.2038
 4056TIP3    H236364   2.245   0.417  19.790  3.0413 -0.2096 -1.5254
 4057TIP3   OH236365   3.500   0.747  18.432 -0.3335 -0.3755 -0.3113
 4057TIP3    H136366   3.506   0.704  18.347 -2.4970  1.0522 -1.2715
 4057TIP3    H236367   3.429   0.701  18.477  1.5401 -1.9015  1.3041
 4058TIP3   OH236368   2.648   2.914  18.894  0.0223 -0.3571  0.5454
 4058TIP3    H136369   2.704   2.984  18.860  0.3197 -0.2478  1.2405
 4058TIP3    H236370   2.705   2.837  18.894 -0.1341 -0.4741  0.3152
 4059TIP3   OH236371   1.990   0.127  19.784  0.0491  0.3123  0.2218
 4059TIP3    H136372   2.032   0.126  19.870  0.8868  0.0351 -0.1733
 4059TIP3    H236373   2.044   0.069  19.731  1.6042  3.0194 -1.4206
 4060TIP3   OH236374   2.976   6.820  18.309 -0.3006  0.4190 -0.2519
 4060TIP3    H136375   3.007   6.850  18.395  0.5146 -0.2642 -0.2823
 4060TIP3    H236376   3.000   6.727  18.307 -0.1497  0.4663 -1.2868
 4061TIP3   OH236377   3.444   6.529  18.368  0.0878  0.1862 -0.0266
 4061TIP3    H136378   3.502   6.474  18.314 -1.6644 -0.9046 -0.9020
 4061TIP3    H236379   3.376   6.559  18.307 -1.1411  0.1180  1.2641
 4062TIP3   OH236380   0.521   0.384  19.397 -0.4011 -0.2023 -0.6709
 4062TIP3    H136381   0.558   0.359  19.312  0.3489 -0.2263 -0.3420
 4062TIP3    H236382   0.431   0.411  19.376 -0.8789 -2.0516 -1.1957
 4063TIP3   OH236383   3.173   5.466  19.292  0.9431  0.2883 -0.1129
 4063TIP3    H136384   3.177   5.441  19.384 -0.2690 -0.1681 -0.1537
 4063TIP3    H236385   3.216   5.394  19.246 -0.0508 -0.3883 -0.0192
 4064TIP3   OH236386   2.442   3.295  16.995 -0.7361  0.3117 -0.1467
 4064TIP3    H136387   2.389   3.296  16.916 -2.1986 -1.5954  0.7039
 4064TIP3    H236388   2.495   3.215  16.987  0.3140  0.9736  0.0708
 4065TIP3   OH236389   6.375   0.937  19.291  0.1649 -0.0159 -0.3417
 4065TIP3    H136390   6.380   1.017  19.344 -0.0756  0.2086 -0.6575
 4065TIP3    H236391   6.366   0.866  19.355  0.7662  0.1719 -0.0454
 4066TIP3   OH236392   0.551   5.569  17.663  0.2975  0.0571  0.5937
 4066TIP3    H136393   0.509   5.584  17.579  0.1489  0.1856  0.6899
 4066TIP3    H236394   0.584   5.479  17.658 -1.6163 -0.7295  1.1912
 4067TIP3   OH236395   6.542   5.495  19.405  0.0010 -0.8069 -0.6477
 4067TIP3    H136396   6.447   5.493  19.396 -0.1098  0.4012 -0.0049
 4067TIP3    H236397   6.568   5.403  19.410 -1.0903 -1.1594 -1.1599
 4068TIP3   OH236398   0.374   6.672  17.203 -0.1550  0.1618  0.0325
 4068TIP3    H136399   0.301   6.612  17.214 -0.6763  1.1318  2.5026
 4068TIP3    H236400   0.361   6.710  17.116 -2.2218 -0.1734  0.1529
 4069TIP3   OH236401   7.401   6.196  18.521 -0.6426 -0.1483 -1.1418
 4069TIP3    H136402   7.418   6.119  18.575 -1.4089  1.2328  1.2289
 4069TIP3    H236403   7.477   6.203  18.464  0.8489 -1.0136  0.6446
 4070TIP3   OH236404   3.974   6.851  16.879 -0.8320 -0.2883 -0.1728
 4070TIP3    H136405   3.917   6.810  16.814 -1.2884 -2.7017  1.5770
 4070TIP3    H236406   3.917   6.912  16.925 -1.3581 -0.8187 -0.0976
 4071TIP3   OH236407   7.482   2.477  18.813 -0.1064  0.4866 -0.5376
 4071TIP3    H136408   7.443   2.511  18.732  1.5061 -0.0247 -1.5863
 4071TIP3    H236409   7.576   2.485  18.799  0.3012  3.2409  2.5557
 4072TIP3   OH236410   4.785   1.893  17.547 -0.0137 -0.1195 -0.1813
 4072TIP3    H136411   4.806   1.834  17.475  0.0344  1.0289 -1.1539
 4072TIP3    H236412   4.721   1.954  17.510 -0.1888  0.3327  0.8264
 4073TIP3   OH236413   3.612   2.331  16.938  0.5777  0.5435 -0.0793
 4073TIP3    H136414   3.568   2.292  16.863  1.9831 -1.1659 -0.0750
 4073TIP3    H236415   3.606   2.425  16.923 -1.6473  0.3367 -0.8558
 4074TIP3   OH236416   3.181   6.537  17.158 -0.3056  0.0073  0.6322
 4074TIP3    H136417   3.128   6.606  17.118 -2.5196 -0.9866  1.6768
 4074TIP3    H236418   3.221   6.491  17.084 -0.7000  0.9421 -0.1750
 4075TIP3   OH236419   5.531   7.287  16.885 -0.0063  0.5221 -0.1856
 4075TIP3    H136420   5.604   7.282  16.823  0.9426  1.3504  0.8381
 4075TIP3    H236421   5.499   7.197  16.890  1.6159 -0.0754  0.1312
 4076TIP3   OH236422   5.175   2.079  16.564 -0.0893  0.2494 -0.1179
 4076TIP3    H136423   5.094   2.087  16.512  0.1888  1.0057 -0.4608
 4076TIP3    H236424   5.147   2.036  16.645 -0.9865  1.1231  0.0669
 4077TIP3   OH236425   4.359   2.427  18.408 -0.4017  0.6090  0.1547
 4077TIP3    H136426   4.421   2.460  18.344  0.7677 -0.0583  0.9078
 4077TIP3    H236427   4.388   2.338  18.427 -2.2167 -0.1091 -0.2418
 4078TIP3   OH236428   3.144   5.411  17.115 -0.2050 -0.0418  0.6991
 4078TIP3    H136429   3.079   5.480  17.101 -0.3992 -0.6015 -1.4903
 4078TIP3    H236430   3.226   5.448  17.084  0.7659  0.8485  3.9173
 4079TIP3   OH236431   5.655   7.216  18.862 -0.1000  0.1305  0.1745
 4079TIP3    H136432   5.739   7.213  18.908 -0.4338 -0.1251  0.7767
 4079TIP3    H236433   5.593   7.248  18.928 -0.4739  0.3110 -0.2650
 4080TIP3   OH236434   6.838   5.778  17.903 -0.3716  0.0281 -0.9697
 4080TIP3    H136435   6.798   5.726  17.833 -1.0088  0.7369 -1.1445
 4080TIP3    H236436   6.773   5.776  17.973 -1.2083  2.0286 -1.6288
 4081TIP3   OH236437   3.945   2.808  18.187  1.1507 -0.1348 -0.2128
 4081TIP3    H136438   3.986   2.734  18.142  0.3955 -0.7820  0.1484
 4081TIP3    H236439   4.011   2.878  18.182  1.2160 -0.2562 -2.0788
 4082TIP3   OH236440   5.688   1.506  18.445 -0.3645  0.0513 -0.0616
 4082TIP3    H136441   5.711   1.465  18.362 -0.0471  1.0884 -0.5030
 4082TIP3    H236442   5.721   1.596  18.437 -2.6082  0.9510  0.1729
 4083TIP3   OH236443   1.015   0.948  19.267 -0.4398  0.4276 -0.4385
 4083TIP3    H136444   0.996   0.977  19.178  1.0988 -2.0760 -1.7178
 4083TIP3    H236445   1.079   0.877  19.256 -0.1844  0.0211  2.6741
 4084TIP3   OH236446   0.670   6.392  17.347 -0.3319 -0.1617  0.2918
 4084TIP3    H136447   0.721   6.344  17.282  0.0231  0.4918  0.0783
 4084TIP3    H236448   0.707   6.480  17.345 -1.5476  0.3597  0.0465
 4085TIP3   OH236449   0.406   5.022  17.402 -0.4699  0.2204  0.0243
 4085TIP3    H136450   0.498   5.041  17.382 -0.4638 -0.8794 -1.1380
 4085TIP3    H236451   0.360   5.103  17.380  0.3147  1.1168  1.5341
 4086TIP3   OH236452   6.968   7.098  18.668 -0.4831 -0.6364 -0.5883
 4086TIP3    H136453   7.024   7.078  18.593  0.6038 -1.2615  0.3528
 4086TIP3    H236454   6.943   7.012  18.702 -1.8089 -0.3606 -0.8176
 4087TIP3   OH236455   1.268   6.117  19.643  0.1482 -0.2542 -0.2382
 4087TIP3    H136456   1.307   6.201  19.617 -1.6311  0.6552 -0.1561
 4087TIP3    H236457   1.250   6.128  19.737  2.2934 -1.7679  0.4242
 4088TIP3   OH236458   5.558   5.417  18.685  0.0954 -0.0356 -0.0977
 4088TIP3    H136459   5.603   5.338  18.654  1.8233  1.1413 -0.7816
 4088TIP3    H236460   5.501   5.386  18.755 -1.3277 -2.2903 -2.0714
 4089TIP3   OH236461   4.965   4.282  16.984  0.2696 -0.3503  0.0392
 4089TIP3    H136462   4.897   4.225  17.020 -0.1483  0.5375  0.7048
 4089TIP3    H236463   4.922   4.368  16.978  0.7739 -0.1781 -1.2693
 4090TIP3   OH236464   0.177   6.183  17.863 -0.2076  0.4879 -0.1966
 4090TIP3    H136465   0.157   6.093  17.890 -2.2037  0.8402 -0.3084
 4090TIP3    H236466   0.228   6.219  17.935 -2.4458  0.3260  1.5745
 4091TIP3   OH236467   4.115   4.963  18.342 -0.3169 -0.5674  0.5430
 4091TIP3    H136468   4.154   4.882  18.374 -0.3157 -0.9433 -0.3785
 4091TIP3    H236469   4.189   5.016  18.314 -0.3990 -1.0706 -0.7171
 4092TIP3   OH236470   0.639   2.361  18.811  0.0392 -0.6049 -0.2579
 4092TIP3    H136471   0.704   2.407  18.759  0.2641 -2.6529 -1.9460
 4092TIP3    H236472   0.641   2.404  18.896  1.6113  1.1477 -1.1125
 4093TIP3   OH236473   4.082   2.149  19.160 -0.1963 -0.9304  0.1171
 4093TIP3    H136474   4.082   2.092  19.084  0.4635 -0.9907  0.1630
 4093TIP3    H236475   4.082   2.090  19.235  0.1639 -0.8656  0.1659
 4094TIP3   OH236476   2.215   5.332  18.578 -0.2714 -0.4587  0.4391
 4094TIP3    H136477   2.121   5.317  18.589 -0.9925  2.2912 -0.9713
 4094TIP3    H236478   2.233   5.305  18.488  0.9761 -3.4899  1.4931
 4095TIP3   OH236479   5.675   2.338  18.872  0.2135  0.1148  0.7010
 4095TIP3    H136480   5.676   2.243  18.860  0.4584  0.1270  0.6320
 4095TIP3    H236481   5.616   2.370  18.804  1.0888  0.1228 -0.0653
 4096TIP3   OH236482   3.989   7.424  18.632 -0.8001  0.2435 -0.1996
 4096TIP3    H136483   4.075   7.440  18.670  0.6733  1.2714 -3.6094
 4096TIP3    H236484   3.976   7.329  18.639  1.7269 -0.3007 -1.5896
 4097TIP3   OH236485   3.257   0.888  18.028  0.0077  0.2224  0.3986
 4097TIP3    H136486   3.296   0.925  18.107 -1.8365  0.9047  1.0404
 4097TIP3    H236487   3.212   0.809  18.058 -0.2151  0.1605 -0.0888
 4098TIP3   OH236488   4.522   1.605  18.399 -0.0925 -0.2136  0.2309
 4098TIP3    H136489   4.485   1.558  18.474  0.8471 -1.8322 -0.2761
 4098TIP3    H236490   4.609   1.631  18.427  0.3573 -1.0381 -0.3373
 4099TIP3   OH236491   1.896   2.676  18.309 -0.4074 -0.1127 -0.7849
 4099TIP3    H136492   1.951   2.704  18.382 -0.9391 -0.4068 -0.2677
 4099TIP3    H236493   1.958   2.638  18.246  0.2933  1.7584 -1.3185
 4100TIP3   OH236494   2.929   2.141  17.293 -0.0672  0.0300  0.5225
 4100TIP3    H136495   2.860   2.207  17.304 -1.2550 -1.1421  0.3944
 4100TIP3    H236496   2.978   2.171  17.216 -1.7295 -0.1370 -0.6839
 4101TIP3   OH236497   0.565   5.280  19.454  0.3326 -0.8127 -0.5824
 4101TIP3    H136498   0.495   5.335  19.489  1.4425 -1.6031  3.4330
 4101TIP3    H236499   0.637   5.340  19.438  0.5687 -0.6333  0.9550
 4102TIP3   OH236500   3.240   6.111  19.992  0.8330 -0.0559  0.4287
 4102TIP3    H136501   3.293   6.183  19.958 -1.2734  0.7201 -1.5272
 4102TIP3    H236502   3.192   6.149  20.066 -0.0795  0.5201 -0.4362
 4103TIP3   OH236503   2.760   3.868  16.446  0.0476  0.5450 -0.1087
 4103TIP3    H136504   2.797   3.937  16.391 -0.5009  0.5005 -0.5489
 4103TIP3    H236505   2.835   3.823  16.483  0.5545 -1.1253 -2.9149
 4104TIP3   OH236506   2.489   6.401  17.319 -0.3547 -0.0093 -0.0433
 4104TIP3    H136507   2.556   6.382  17.253  1.0758 -1.0425  1.6121
 4104TIP3    H236508   2.436   6.322  17.323  0.1489 -0.3225  0.6769
 4105TIP3   OH236509   2.562   5.458  17.605  0.1563  0.1374  0.2965
 4105TIP3    H136510   2.531   5.368  17.606  0.0991  0.1392 -0.5912
 4105TIP3    H236511   2.526   5.497  17.685 -0.6233 -0.3618  0.1994
 4106TIP3   OH236512   7.427   0.575  17.608  0.5563 -0.0123  0.5124
 4106TIP3    H136513   7.488   0.502  17.619  1.0802  0.4545  0.7908
 4106TIP3    H236514   7.480   0.652  17.628  0.6583  0.6353 -1.9103
 4107TIP3   OH236515   7.140   6.866  17.701 -0.3008 -0.0186  0.3646
 4107TIP3    H136516   7.207   6.927  17.733  0.1465 -0.6664  0.6923
 4107TIP3    H236517   7.058   6.898  17.738 -0.4418  1.6851 -1.2780
 4108TIP3   OH236518   0.458   3.686  17.410  0.5256  0.4584  0.1934
 4108TIP3    H136519   0.471   3.773  17.447  0.9482 -0.0003  1.1834
 4108TIP3    H236520   0.536   3.670  17.357  1.0016  0.2476  0.9351
 4109TIP3   OH236521   0.672   0.615  19.046 -0.6638  0.6628 -0.3519
 4109TIP3    H136522   0.581   0.612  19.073 -0.5624  1.7280  0.1556
 4109TIP3    H236523   0.672   0.669  18.967 -0.6765 -0.6898 -1.3067
 4110TIP3   OH236524   0.609   1.938  17.717  0.3089  0.3371  0.2375
 4110TIP3    H136525   0.681   1.883  17.748 -0.1558 -0.6041 -0.3175
 4110TIP3    H236526   0.540   1.927  17.782  0.8599  1.7306  1.1055
 4111TIP3   OH236527   5.787   3.647  19.263 -0.0303  0.3713  0.1940
 4111TIP3    H136528   5.795   3.685  19.176  2.4102 -0.1724  0.1224
 4111TIP3    H236529   5.800   3.721  19.323  2.0177  0.1999  0.0439
 4112TIP3   OH236530   4.453   1.907  19.521 -0.2770  0.0991  0.2966
 4112TIP3    H136531   4.362   1.934  19.509 -0.2760 -0.7361 -2.2244
 4112TIP3    H236532   4.504   1.975  19.477  0.0473 -1.1334 -1.3168
 4113TIP3   OH236533   5.035   6.967  18.915 -0.3265 -0.3337  0.1548
 4113TIP3    H136534   5.020   6.872  18.922 -1.2651 -0.2372 -0.3211
 4113TIP3    H236535   5.130   6.977  18.920 -0.2736 -1.2137  1.1515
 4114TIP3   OH236536   0.847   5.168  17.544 -0.4483 -0.3652 -0.0029
 4114TIP3    H136537   0.882   5.193  17.630  1.4211  0.5804 -0.9713
 4114TIP3    H236538   0.875   5.077  17.534  1.6625  0.3007 -0.6497
 4115TIP3   OH236539   1.020   5.947  18.175 -0.3885  0.5089 -0.0814
 4115TIP3    H136540   0.956   5.880  18.197 -0.2024  0.5453  0.5946
 4115TIP3    H236541   1.102   5.899  18.161  0.2244  0.7138  2.3146
 4116TIP3   OH236542   0.938   7.492  17.187 -0.4987 -0.0598  0.4788
 4116TIP3    H136543   0.984   7.493  17.271 -0.7879 -0.2250  0.6412
 4116TIP3    H236544   0.997   7.444  17.128 -0.6491 -0.6430  0.7985
 4117TIP3   OH236545   6.543   1.769  17.492 -0.1495 -0.2123 -0.5461
 4117TIP3    H136546   6.540   1.679  17.460  0.8790 -0.7923  0.8682
 4117TIP3    H236547   6.476   1.771  17.561  0.1565 -0.0282 -0.2560
 4118TIP3   OH236548   3.683   0.448  17.945  0.1966 -0.0113 -0.3034
 4118TIP3    H136549   3.734   0.415  18.018  0.2677  0.7333 -0.0028
 4118TIP3    H236550   3.708   0.541  17.938 -3.3127  1.3006  1.8508
 4119TIP3   OH236551   4.661   2.104  17.429  0.2999 -0.1053 -0.1912
 4119TIP3    H136552   4.669   2.108  17.333  1.4662 -1.8491 -0.2146
 4119TIP3    H236553   4.743   2.142  17.461 -0.1038  0.5076  0.1214
 4120TIP3   OH236554   6.151   6.638  19.066  0.2936  0.0807  0.0201
 4120TIP3    H136555   6.069   6.632  19.115 -0.3607  1.6178 -0.8111
 4120TIP3    H236556   6.161   6.552  19.024  0.7652 -1.2001  2.5855
 4121TIP3   OH236557   2.103   1.172  19.302  0.2323  0.0562 -0.7126
 4121TIP3    H136558   2.134   1.139  19.387  1.1988  1.0581 -0.6641
 4121TIP3    H236559   2.182   1.198  19.255 -0.4448  2.0816 -0.8409
 4122TIP3   OH236560   0.333   7.243  19.776  0.5730  0.3005 -0.1950
 4122TIP3    H136561   0.328   7.225  19.682 -0.1882  0.8052 -0.2605
 4122TIP3    H236562   0.251   7.208  19.811  0.3650  1.0757  0.1136
 4123TIP3   OH236563   2.472   7.503  18.019 -0.4124 -0.2517  0.6058
 4123TIP3    H136564   2.547   7.557  17.994 -0.3949 -1.0604 -1.2564
 4123TIP3    H236565   2.461   7.518  18.113  0.2285  2.1651  0.3531
 4124TIP3   OH236566   7.629   6.118  16.724 -0.1400  0.1601 -0.5914
 4124TIP3    H136567   7.645   6.211  16.708 -1.5605  0.4013 -0.7867
 4124TIP3    H236568   7.635   6.077  16.638  3.2260 -0.4468 -0.1809
 4125TIP3   OH236569   2.920   6.724  16.780  0.0080  0.1963 -0.0493
 4125TIP3    H136570   2.938   6.817  16.770 -0.0360  0.0744 -1.3420
 4125TIP3    H236571   2.846   6.707  16.722  1.0236 -0.9522 -1.0562
 4126TIP3   OH236572   3.995   1.639  19.794 -0.3960  0.3353 -0.1634
 4126TIP3    H136573   4.008   1.613  19.885 -2.4126  0.6190  0.2542
 4126TIP3    H236574   4.055   1.711  19.781 -0.7071  0.8820  1.2449
 4127TIP3   OH236575   2.497   5.568  17.858 -0.0478 -0.2129 -0.1658
 4127TIP3    H136576   2.470   5.480  17.885  0.3199 -0.5510 -0.8707
 4127TIP3    H236577   2.575   5.586  17.911  0.3354 -0.6364 -0.5801
 4128TIP3   OH236578   1.040   5.463  19.096 -0.0156 -0.0140 -0.4465
 4128TIP3    H136579   1.112   5.524  19.082 -1.0314  1.1946 -0.5548
 4128TIP3    H236580   0.965   5.518  19.119 -0.8189 -1.2636  0.0710
 4129TIP3   OH236581   7.292   1.320  18.341 -0.3786 -0.2497  0.2047
 4129TIP3    H136582   7.354   1.344  18.410  0.3874 -0.6828 -0.3122
 4129TIP3    H236583   7.346   1.312  18.263 -1.2272  0.1709 -0.4361
 4130TIP3   OH236584   6.651   6.940  18.260  0.2834  0.4143 -0.0167
 4130TIP3    H136585   6.653   6.910  18.351  0.9901  0.5910  0.0337
 4130TIP3    H236586   6.736   6.983  18.247  0.5395 -0.3504 -1.0057
 4131TIP3   OH236587   3.998   4.785  17.646  0.5987  0.2011  0.1997
 4131TIP3    H136588   4.010   4.761  17.738 -0.3620 -1.8204 -0.1482
 4131TIP3    H236589   4.042   4.715  17.598  3.9734  2.8217 -0.9977
 4132TIP3   OH236590   3.280   5.213  19.294  0.3460 -0.0691  0.0970
 4132TIP3    H136591   3.374   5.209  19.277  0.7417  2.3021  1.2481
 4132TIP3    H236592   3.272   5.189  19.386 -0.2611 -0.7689 -0.1291
 4133TIP3   OH236593   1.744   4.681  18.029  0.3063 -0.5559 -0.1482
 4133TIP3    H136594   1.829   4.693  17.986  1.6347 -1.8084  1.9222
 4133TIP3    H236595   1.740   4.750  18.095  0.6894 -1.6933  1.1099
 4134TIP3   OH236596   1.557   6.546  18.261  0.1732  0.1363 -0.1036
 4134TIP3    H136597   1.491   6.611  18.234  1.0881  0.4670 -1.7163
 4134TIP3    H236598   1.531   6.465  18.218 -0.3593 -0.3011  1.0194
 4135TIP3   OH236599   2.867   0.446  18.187 -0.4010 -0.3654 -0.3894
 4135TIP3    H136600   2.849   0.538  18.206 -0.3195 -0.3765 -0.2526
 4135TIP3    H236601   2.959   0.434  18.213 -0.7188 -0.7479  0.6139
 4136TIP3   OH236602   2.309   3.898  16.729 -0.2300  0.0278 -0.1648
 4136TIP3    H136603   2.360   3.935  16.800  0.2781  1.7927 -1.3957
 4136TIP3    H236604   2.224   3.878  16.769  1.1235 -2.5138  1.7880
 4137TIP3   OH236605   2.030   7.027  17.153 -0.5144  0.2110  0.0384
 4137TIP3    H136606   1.984   6.986  17.227 -2.7339  0.4856 -1.1073
 4137TIP3    H236607   2.085   6.957  17.118  0.1187 -0.1013  1.5395
 4138TIP3   OH236608   1.471   3.033  17.203 -0.1229  0.6436  0.4539
 4138TIP3    H136609   1.396   3.058  17.148  0.8990  0.9991 -0.8288
 4138TIP3    H236610   1.480   3.106  17.264 -1.7481 -0.1040  1.6770
 4139TIP3   OH236611   7.518   2.321  17.743  0.3869 -0.0999  0.2164
 4139TIP3    H136612   7.477   2.385  17.685 -0.2965  0.4193  1.2384
 4139TIP3    H236613   7.445   2.266  17.772  0.7511 -0.4635  0.4364
 4140TIP3   OH236614   3.263   1.143  19.618 -0.1979 -0.3792 -0.2817
 4140TIP3    H136615   3.358   1.138  19.612 -0.2172 -0.8678 -0.2579
 4140TIP3    H236616   3.244   1.119  19.709 -0.2767  0.8745  0.0530
 4141TIP3   OH236617   3.092   2.470  18.717  0.1816  0.4442 -0.5493
 4141TIP3    H136618   3.060   2.448  18.805  1.4821  1.9346  0.3398
 4141TIP3    H236619   3.119   2.386  18.680  0.5785 -0.0958  0.8860
 4142TIP3   OH236620   4.858   1.534  19.214 -0.3756 -0.1813 -0.5091
 4142TIP3    H136621   4.767   1.552  19.190 -0.7669 -1.5932 -0.1612
 4142TIP3    H236622   4.909   1.590  19.155 -1.4648  1.3200 -0.1045
 4143TIP3   OH236623   1.999   5.350  17.613 -0.3690  0.5676 -0.3757
 4143TIP3    H136624   1.965   5.425  17.661 -1.1911  0.5035 -0.8262
 4143TIP3    H236625   1.922   5.313  17.569 -0.1773 -1.1259  0.6151
 4144TIP3   OH236626   6.437   7.131  18.582  0.1598 -0.4631  0.1502
 4144TIP3    H136627   6.378   7.160  18.652 -0.7853 -0.9293 -0.4240
 4144TIP3    H236628   6.475   7.211  18.546 -0.3584 -0.1338  0.3361
 4145TIP3   OH236629   1.030   2.091  17.730  0.1944  0.6222  0.1902
 4145TIP3    H136630   0.970   2.138  17.671 -1.0769  0.1772  1.0838
 4145TIP3    H236631   1.074   2.161  17.778  0.6823  0.9689 -0.7246
 4146TIP3   OH236632   6.789   4.940  17.732 -0.1601 -0.1174  0.3348
 4146TIP3    H136633   6.705   4.946  17.778 -0.8534  4.4422 -1.0115
 4146TIP3    H236634   6.765   4.939  17.639  1.2589  0.2877 -0.0586
 4147TIP3   OH236635   4.272   6.282  17.945  0.1947  0.0351 -0.1979
 4147TIP3    H136636   4.256   6.202  17.894 -1.4233 -0.6208  1.2480
 4147TIP3    H236637   4.217   6.348  17.904 -1.3930 -0.5843  0.8320
 4148TIP3   OH236638   6.173   3.559  17.873 -0.4130  0.7111  0.2650
 4148TIP3    H136639   6.108   3.593  17.811 -0.7714 -2.1771 -1.0542
 4148TIP3    H236640   6.126   3.491  17.922  1.9778 -3.0336 -2.1817
 4149TIP3   OH236641   3.009   7.631  19.364 -0.5480 -0.3031  0.3237
 4149TIP3    H136642   2.966   7.695  19.420  0.0421 -0.0295  0.4786
 4149TIP3    H236643   2.942   7.604  19.302 -0.6744  0.8226 -0.0488
 4150TIP3   OH236644   6.475   5.690  18.142 -0.3578 -0.4154 -0.3806
 4150TIP3    H136645   6.439   5.696  18.054  0.1823 -0.8916 -0.6416
 4150TIP3    H236646   6.544   5.757  18.145 -0.7110 -0.0588 -0.1512
 4151TIP3   OH236647   3.671   7.538  18.290 -0.4126 -0.0413 -0.1472
 4151TIP3    H136648   3.680   7.457  18.340 -0.8586 -0.9150 -1.4307
 4151TIP3    H236649   3.644   7.509  18.203 -0.9826  1.5253 -0.5141
 4152TIP3   OH236650   0.706   2.772  19.470  0.6901  0.2125  0.0608
 4152TIP3    H136651   0.674   2.692  19.427  2.2399 -0.1202 -0.5237
 4152TIP3    H236652   0.626   2.821  19.490 -0.1933  0.6308 -3.6483
 4153TIP3   OH236653   4.591   0.086  17.033 -0.3074  0.1571 -0.4249
 4153TIP3    H136654   4.596   0.176  16.999  0.9697  0.1158 -0.4227
 4153TIP3    H236655   4.635   0.033  16.967  1.6764 -0.0055  0.9344
 4154TIP3   OH236656   3.030   6.315  18.529 -0.3417  0.2971 -0.2522
 4154TIP3    H136657   2.964   6.303  18.597  0.1556  0.4839  0.2737
 4154TIP3    H236658   3.019   6.239  18.472  2.3659 -2.6253  2.6771
 4155TIP3   OH236659   0.534   2.531  16.948 -0.1208 -0.3787  0.1995
 4155TIP3    H136660   0.457   2.562  16.996  0.6351  0.8192  0.6791
 4155TIP3    H236661   0.498   2.473  16.881 -1.5413  0.9824 -0.2834
 4156TIP3   OH236662   3.438   4.257  16.939 -0.5722 -0.4042  0.1049
 4156TIP3    H136663   3.407   4.170  16.912 -0.3888 -0.4474  0.0307
 4156TIP3    H236664   3.429   4.311  16.861 -2.3583  0.1081  0.6235
 4157TIP3   OH236665   2.400   0.926  17.801 -0.0489  0.1596  0.2933
 4157TIP3    H136666   2.332   0.898  17.862  0.9314  1.1145  1.9238
 4157TIP3    H236667   2.397   1.022  17.803  0.9583  0.2183 -0.0300
 4158TIP3   OH236668   0.441   7.386  16.666 -0.7844 -0.4519 -0.0652
 4158TIP3    H136669   0.478   7.456  16.612  2.8479 -1.5517  0.7670
 4158TIP3    H236670   0.400   7.327  16.603 -0.7442  0.6175 -1.1327
 4159TIP3   OH236671   5.587   0.313  17.614  0.3048  0.3303 -0.3004
 4159TIP3    H136672   5.645   0.369  17.665  0.0171  0.3510  0.0057
 4159TIP3    H236673   5.548   0.254  17.679  1.3408 -0.8882 -0.7317
 4160TIP3   OH236674   3.224   5.473  18.608 -0.0196  0.1878 -0.2669
 4160TIP3    H136675   3.165   5.540  18.641  1.7073  2.1321 -0.8681
 4160TIP3    H236676   3.294   5.469  18.673 -0.0968 -1.0782 -0.2367
 4161TIP3   OH236677   2.618   6.661  16.779 -0.3646  0.2641 -0.0661
 4161TIP3    H136678   2.658   6.633  16.696  1.9827 -0.2235  1.1310
 4161TIP3    H236679   2.540   6.709  16.753 -1.3311 -2.3244 -2.4496
 4162TIP3   OH236680   7.306   7.550  18.005  0.6316 -0.1063 -0.9564
 4162TIP3    H136681   7.273   7.461  18.019 -2.3033  0.7068 -2.0124
 4162TIP3    H236682   7.348   7.547  17.919 -0.0537 -0.3240 -1.2863
 4163TIP3   OH236683   0.438   1.856  18.573 -0.1270 -0.4856 -0.1177
 4163TIP3    H136684   0.512   1.835  18.516  0.3980 -1.2258  0.8172
 4163TIP3    H236685   0.477   1.880  18.657 -0.9295 -0.3091  0.2163
 4164TIP3   OH236686   1.438   1.795  18.442  0.1470 -0.1787 -0.1352
 4164TIP3    H136687   1.461   1.702  18.448  1.6657  0.1703 -0.1106
 4164TIP3    H236688   1.435   1.824  18.533  2.4015  0.3813 -0.1839
 4165TIP3   OH236689   3.890   7.096  19.510  0.1206 -0.3899  0.0437
 4165TIP3    H136690   3.960   7.044  19.549 -0.0365 -2.0905 -1.8232
 4165TIP3    H236691   3.932   7.143  19.438 -0.3725 -0.2340 -0.1434
 4166TIP3   OH236692   0.776   5.950  16.710  0.2608 -0.1751  0.4821
 4166TIP3    H136693   0.864   5.987  16.704 -0.0873  0.7647  0.9537
 4166TIP3    H236694   0.718   6.026  16.700 -0.5053 -0.8518 -0.3576
 4167TIP3   OH236695   6.625   0.257  18.840 -0.8254 -0.1788 -0.0490
 4167TIP3    H136696   6.584   0.249  18.926 -1.3889 -0.6809 -0.3504
 4167TIP3    H236697   6.551   0.268  18.779 -0.3842  1.3407 -0.3503
 4168TIP3   OH236698   0.120   6.068  17.154  0.3366 -0.3094  0.0420
 4168TIP3    H136699   0.080   6.155  17.153 -0.2421 -0.5589  0.8457
 4168TIP3    H236700   0.070   6.019  17.219 -1.0120 -2.0414 -2.1718
 4169TIP3   OH236701   5.474   2.695  17.645 -0.4570  0.2990  0.2879
 4169TIP3    H136702   5.515   2.771  17.605 -0.3712  0.9288  1.5137
 4169TIP3    H236703   5.546   2.633  17.658 -0.0917  0.8991  1.2744
 4170TIP3   OH236704   3.047   5.487  17.423 -0.0835  0.7124  0.3620
 4170TIP3    H136705   3.025   5.525  17.508 -0.4462  2.8827 -0.6449
 4170TIP3    H236706   3.028   5.556  17.360  0.8794 -0.5833 -1.4346
 4171TIP3   OH236707   6.982   7.362  18.286 -0.2136 -0.2809 -0.3466
 4171TIP3    H136708   6.951   7.396  18.201  1.1463 -0.3019 -0.8768
 4171TIP3    H236709   7.076   7.378  18.285 -0.3025  0.5593  1.5745
 4172TIP3   OH236710   0.650   6.936  19.427 -1.0571 -0.0164 -0.1922
 4172TIP3    H136711   0.740   6.913  19.450 -1.3905  0.4850  1.7496
 4172TIP3    H236712   0.655   7.028  19.400 -0.7950 -0.3819 -1.4679
 4173TIP3   OH236713   2.716   5.958  18.160 -0.2359  0.0785 -0.0671
 4173TIP3    H136714   2.653   5.979  18.229 -0.0898  1.6459 -0.3893
 4173TIP3    H236715   2.679   5.996  18.081 -1.9313 -4.1500 -1.6488
 4174TIP3   OH236716   3.333   5.224  18.911 -0.4424 -0.6424  0.2859
 4174TIP3    H136717   3.392   5.184  18.975  1.4177 -0.6398 -1.3257
 4174TIP3    H236718   3.323   5.315  18.942  0.4495 -0.6261  0.5726
 4175TIP3   OH236719   2.133   0.025  17.468 -0.5037 -0.2227 -0.6803
 4175TIP3    H136720   2.093   0.006  17.553 -0.6458 -1.2518 -0.9613
 4175TIP3    H236721   2.064   0.070  17.418 -0.1633  1.0993  0.0024
 4176TIP3   OH236722   0.107   1.523  17.320 -0.2156  0.2749 -0.1217
 4176TIP3    H136723   0.086   1.609  17.357 -0.4755  1.0433 -1.9689
 4176TIP3    H236724   0.111   1.537  17.226 -1.3213 -1.9543 -0.5745
 4177TIP3   OH236725   4.587   6.532  17.792 -0.7735  0.0475 -0.4035
 4177TIP3    H136726   4.611   6.582  17.870 -0.4286 -0.0466 -0.4474
 4177TIP3    H236727   4.502   6.568  17.765 -0.4150  0.7782 -0.5779
 4178TIP3   OH236728   1.348   0.875  18.694  0.3570 -0.0569 -0.1806
 4178TIP3    H136729   1.292   0.814  18.647 -0.2865 -1.7752  2.6301
 4178TIP3    H236730   1.296   0.955  18.701  0.3609  0.1539 -2.0207
 4179TIP3   OH236731   1.283   3.544  17.073  0.1325  0.2490  0.1953
 4179TIP3    H136732   1.368   3.570  17.036  0.6019 -1.3567  0.0375
 4179TIP3    H236733   1.239   3.499  17.000 -0.4840  0.2894  0.5401
 4180TIP3   OH236734   6.615   6.560  19.247 -0.1339  0.0610  0.2334
 4180TIP3    H136735   6.587   6.519  19.165  1.0866 -0.1696 -0.0975
 4180TIP3    H236736   6.566   6.642  19.252 -0.7464 -0.2608 -0.3655
 4181TIP3   OH236737   2.736   1.309  19.134 -0.2550  0.4136 -0.2333
 4181TIP3    H136738   2.669   1.300  19.066  0.5279  0.6237 -1.0397
 4181TIP3    H236739   2.818   1.320  19.087  0.4247 -0.2408  0.7489
 4182TIP3   OH236740   3.192   5.103  17.661 -0.0322  0.5522  0.0277
 4182TIP3    H136741   3.163   5.053  17.737 -1.2749  1.5892  0.2703
 4182TIP3    H236742   3.281   5.131  17.682  0.1038 -0.2567  0.5343
 4183TIP3   OH236743   2.689   3.694  17.198  0.3631  0.2902  0.3094
 4183TIP3    H136744   2.642   3.625  17.151 -1.0292  0.3589  1.5312
 4183TIP3    H236745   2.726   3.749  17.128  0.6834 -1.1343 -0.6721
 4184TIP3   OH236746   5.447   3.808  17.177 -0.0583  0.1964  0.2481
 4184TIP3    H136747   5.410   3.893  17.154 -1.4322 -0.4537 -0.0344
 4184TIP3    H236748   5.426   3.798  17.270  0.9791  0.5791  0.5402
 4185TIP3   OH236749   1.857   4.877  19.078  0.3383  0.5674  0.5238
 4185TIP3    H136750   1.899   4.817  19.016  0.3424  0.0100  1.0552
 4185TIP3    H236751   1.868   4.964  19.039  0.6692  0.2624 -0.0690
 4186TIP3   OH236752   3.403   1.738  18.533  0.1522 -0.2639  0.3722
 4186TIP3    H136753   3.354   1.777  18.460  1.0508 -1.5767 -1.0031
 4186TIP3    H236754   3.348   1.665  18.563 -0.2115  0.2683  1.0275
 4187TIP3   OH236755   2.071   5.420  18.884  0.1131  0.1432  0.0414
 4187TIP3    H136756   2.083   5.325  18.879 -0.8524  0.0540 -1.2668
 4187TIP3    H236757   2.040   5.444  18.797  0.3025  1.6656  0.3679
 4188TIP3   OH236758   6.731   6.741  19.026  0.5334 -0.3313 -0.6059
 4188TIP3    H136759   6.805   6.753  19.085 -1.0265  1.7499  1.0797
 4188TIP3    H236760   6.749   6.798  18.952  0.6175  0.1405 -0.2222
 4189TIP3   OH236761   0.264   4.786  18.252  0.3689 -0.0064  0.0933
 4189TIP3    H136762   0.326   4.858  18.242  2.0494 -0.7777  3.5715
 4189TIP3    H236763   0.211   4.810  18.327 -1.6787 -0.7415 -1.0238
 4190TIP3   OH236764   4.273   7.568  17.136 -0.4743  0.3079 -0.4253
 4190TIP3    H136765   4.345   7.557  17.198  1.0594  1.5716 -1.8668
 4190TIP3    H236766   4.310   7.540  17.052 -1.6434  1.1141 -1.2393
 4191TIP3   OH236767   0.442   4.990  19.277 -0.2056  0.1732 -0.4754
 4191TIP3    H136768   0.432   5.013  19.185  0.3478 -0.7255 -0.7742
 4191TIP3    H236769   0.379   4.920  19.292 -0.2124  0.2371 -0.1977
 4192TIP3   OH236770   2.228   3.327  17.832 -0.2497  0.5703 -0.7386
 4192TIP3    H136771   2.237   3.379  17.912 -0.7955  0.0231 -0.3092
 4192TIP3    H236772   2.311   3.340  17.786  0.1313  0.7833 -0.0139
 4193TIP3   OH236773   2.298   1.022  17.343  0.1233 -0.0632 -0.7098
 4193TIP3    H136774   2.387   1.056  17.341 -0.7533  2.5794  0.4367
 4193TIP3    H236775   2.281   0.993  17.254  1.9584 -0.2572 -1.0382
 4194TIP3   OH236776   6.841   7.101  19.204  0.6408 -0.6631  0.1801
 4194TIP3    H136777   6.836   7.155  19.283 -1.4676  0.2520 -0.5162
 4194TIP3    H236778   6.897   7.028  19.229  0.0546 -0.3965  2.5389
 4195TIP3   OH236779   5.413   7.440  18.201 -0.0516 -0.6086 -0.0385
 4195TIP3    H136780   5.392   7.352  18.168 -0.5543 -1.7944  3.1115
 4195TIP3    H236781   5.378   7.441  18.290  1.4724  2.2093  0.6442
 4196TIP3   OH236782   1.333   4.928  19.544  0.4450  0.4939 -0.1143
 4196TIP3    H136783   1.299   5.015  19.566 -2.0206 -0.3663 -0.2464
 4196TIP3    H236784   1.255   4.876  19.524  1.8652 -1.7050 -0.2575
 4197TIP3   OH236785   4.779   6.305  17.179  0.0821  0.4554  0.5011
 4197TIP3    H136786   4.755   6.342  17.095  2.1080 -0.0910 -0.3815
 4197TIP3    H236787   4.729   6.355  17.243 -2.1690  0.3070 -1.0450
 4198TIP3   OH236788   1.846   7.419  19.039  0.1123  0.6079 -0.0479
 4198TIP3    H136789   1.810   7.451  19.122  0.2411  1.0493 -0.1625
 4198TIP3    H236790   1.866   7.327  19.056 -1.0152  0.3633  0.0372
 4199TIP3   OH236791   6.052   4.478  18.035  0.3523  0.7335  0.0800
 4199TIP3    H136792   6.081   4.393  18.002  1.2573  0.2528  2.0003
 4199TIP3    H236793   6.093   4.542  17.976  1.4479 -0.0925 -0.0732
 4200TIP3   OH236794   0.378   6.285  18.022  0.1598  0.7611 -0.5452
 4200TIP3    H136795   0.411   6.364  17.980  0.8954  0.8094  0.0844
 4200TIP3    H236796   0.440   6.269  18.094  0.2453 -0.5965 -0.8906
 4201TIP3   OH236797   7.496   4.908  18.809  0.2618  0.4503  0.5893
 4201TIP3    H136798   7.552   4.851  18.862  1.4495  1.0840  0.0590
 4201TIP3    H236799   7.493   4.991  18.857 -0.9759  0.1540  1.0617
 4202TIP3   OH236800   2.636   0.113  19.681  0.0184 -0.0578 -0.6584
 4202TIP3    H136801   2.710   0.168  19.707  0.1744 -1.1324  1.3396
 4202TIP3    H236802   2.676   0.032  19.651 -0.2704  0.4155 -2.4598
 4203TIP3   OH236803   0.377   5.739  18.257  0.6323  0.0881 -0.5927
 4203TIP3    H136804   0.426   5.695  18.188  0.4318 -0.3496 -0.4630
 4203TIP3    H236805   0.287   5.710  18.244  0.0940  2.1300 -1.8155
 4204TIP3   OH236806   1.868   5.518  19.083  0.3130 -0.1346  0.4165
 4204TIP3    H136807   1.929   5.512  19.009  1.2358  2.3056  0.8824
 4204TIP3    H236808   1.850   5.427  19.107  1.0585 -0.9601 -1.9226
 4205TIP3   OH236809   2.849   1.276  18.500 -0.5586 -0.0807  0.4801
 4205TIP3    H136810   2.763   1.316  18.513 -1.0471 -0.7286 -0.6049
 4205TIP3    H236811   2.830   1.186  18.475  0.5182 -1.0448  2.8355
 4206TIP3   OH236812   2.069   2.875  18.113 -0.3410  0.0552  0.1326
 4206TIP3    H136813   2.141   2.852  18.172  1.0190 -0.2099 -1.5629
 4206TIP3    H236814   2.000   2.907  18.171  0.9111 -0.2506  1.8626
 4207TIP3   OH236815   5.150   5.330  16.972 -0.1485 -0.2237  0.5171
 4207TIP3    H136816   5.236   5.332  17.014 -0.0631  1.7527  0.3626
 4207TIP3    H236817   5.089   5.357  17.042 -0.4553 -0.2228  0.2523
 4208TIP3   OH236818   3.880   0.078  18.505  0.0795  0.4400  0.2482
 4208TIP3    H136819   3.863   0.002  18.561  0.7764  1.2000  1.5299
 4208TIP3    H236820   3.931   0.138  18.559  0.9915  1.1267 -1.2768
 4209TIP3   OH236821   1.648   4.003  18.397 -0.1771  0.3048  0.0630
 4209TIP3    H136822   1.570   4.051  18.425 -0.6130 -0.9895  1.1590
 4209TIP3    H236823   1.615   3.933  18.341  0.5373  1.7418 -2.3507
 4210TIP3   OH236824   1.511   5.384  17.980 -0.0849  0.0796 -0.0671
 4210TIP3    H136825   1.557   5.340  18.052  0.7255  1.0633  0.0257
 4210TIP3    H236826   1.423   5.400  18.015  0.3865  0.8138  0.8200
 4211TIP3   OH236827   3.402   2.513  18.724  0.1163  0.0874 -0.2313
 4211TIP3    H136828   3.344   2.463  18.783  0.2020  0.6678  0.3544
 4211TIP3    H236829   3.359   2.508  18.639  0.4297 -1.5017 -0.3328
 4212TIP3   OH236830   5.874   7.476  17.699 -0.6677  0.2788 -0.0043
 4212TIP3    H136831   5.855   7.464  17.605 -0.8949  0.3999  0.0255
 4212TIP3    H236832   5.918   7.561  17.704 -1.4340  0.6736  0.1014
 4213TIP3   OH236833   7.598   5.141  16.750 -0.4023  0.4779  0.2284
 4213TIP3    H136834   7.594   5.234  16.773  0.9504  0.4481  0.6420
 4213TIP3    H236835   7.585   5.095  16.833  0.3006  0.3230  0.2602
 4214TIP3   OH236836   1.696   2.685  17.311  0.2766  0.3542  0.6424
 4214TIP3    H136837   1.750   2.606  17.316 -0.8136 -0.5494 -0.8865
 4214TIP3    H236838   1.669   2.690  17.219 -3.9377 -0.4782  1.6063
 4215TIP3   OH236839   3.154   6.503  19.194  0.0351  0.3933  0.1779
 4215TIP3    H136840   3.082   6.492  19.257  0.7389 -2.1275  0.6347
 4215TIP3    H236841   3.233   6.496  19.247  0.6649  1.6406 -0.5494
 4216TIP3   OH236842   4.296   6.517  17.618  0.4869  0.0393  0.1628
 4216TIP3    H136843   4.253   6.514  17.703  0.6908  2.4602  0.4138
 4216TIP3    H236844   4.237   6.470  17.559 -0.5943 -0.0179  1.2557
 4217TIP3   OH236845   0.310   2.610  17.110 -0.1873 -0.4130 -0.1017
 4217TIP3    H136846   0.374   2.614  17.181 -1.4394  0.0506  1.0227
 4217TIP3    H236847   0.321   2.692  17.063  0.4930 -0.6298 -0.3417
 4218TIP3   OH236848   1.668   4.156  19.367  0.2738 -0.2335  0.5128
 4218TIP3    H136849   1.723   4.083  19.395  1.4055  0.5112  0.3146
 4218TIP3    H236850   1.586   4.146  19.416  0.6420 -1.2848  0.9265
 4219TIP3   OH236851   1.998   7.361  17.635  0.2206  0.2551 -0.4825
 4219TIP3    H136852   1.937   7.293  17.606  0.8727  0.4053 -2.3676
 4219TIP3    H236853   2.077   7.313  17.659  0.7351  0.3287 -1.9643
 4220TIP3   OH236854   2.452   3.795  17.361  0.0167  0.4785 -0.1899
 4220TIP3    H136855   2.480   3.886  17.362  0.6110  0.3162  1.4852
 4220TIP3    H236856   2.533   3.745  17.361 -0.2434 -0.0083  1.3395
 4221TIP3   OH236857   2.423   3.108  18.042  0.2085  0.4619 -0.4208
 4221TIP3    H136858   2.457   3.149  17.962  2.1417 -0.1590  0.0259
 4221TIP3    H236859   2.376   3.031  18.011  0.9343  0.2252 -0.9603
 4222TIP3   OH236860   7.443   7.653  17.577 -0.0650 -0.3429 -0.1028
 4222TIP3    H136861   7.452   7.610  17.662 -2.2078 -0.4742  0.1141
 4222TIP3    H236862   7.413   7.584  17.518  0.4779 -0.0354 -0.7573
 4223TIP3   OH236863   0.492   2.548  17.678  0.1659  0.4145 -0.2386
 4223TIP3    H136864   0.475   2.455  17.670 -0.7497  0.4562  0.8681
 4223TIP3    H236865   0.427   2.579  17.741  0.7733  1.7054 -0.2010
 4224TIP3   OH236866   6.585   0.003  17.286 -0.4563 -0.3055 -0.2475
 4224TIP3    H136867   6.583  -0.083  17.328  0.9954 -0.2531 -0.0201
 4224TIP3    H236868   6.568   0.065  17.357 -1.3271 -0.3704 -0.3806
 4225TIP3   OH236869   0.661   3.628  18.868 -0.0427 -0.0595 -0.2085
 4225TIP3    H136870   0.667   3.724  18.865 -1.0046  0.0811  1.1226
 4225TIP3    H236871   0.642   3.603  18.777 -1.8216  1.2159 -0.2625
 4226TIP3   OH236872   0.723   4.821  19.137 -0.8393 -0.2070 -0.1653
 4226TIP3    H136873   0.747   4.887  19.202  0.0705 -0.5974 -0.0872
 4226TIP3    H236874   0.629   4.835  19.122 -0.8903  0.3995  0.6432
 4227TIP3   OH236875   6.365   0.450  18.915  0.1979  0.0429 -0.1688
 4227TIP3    H136876   6.322   0.530  18.882 -1.2730 -1.0813 -1.1306
 4227TIP3    H236877   6.292   0.392  18.937  1.1674 -1.9999 -1.9421
 4228TIP3   OH236878   1.040   3.460  17.183  0.0308  0.1683  0.5586
 4228TIP3    H136879   1.125   3.488  17.149  1.0501 -0.5751  2.3748
 4228TIP3    H236880   0.998   3.541  17.213 -0.2367  0.6258 -0.9599
 4229TIP3   OH236881   2.411   2.284  17.048 -0.1800  0.4129  0.0639
 4229TIP3    H136882   2.403   2.276  17.143 -0.4300  0.4873  0.0481
 4229TIP3    H236883   2.366   2.366  17.026  0.7739  0.9307  0.0019
 4230TIP3   OH236884   1.421   1.530  18.667 -0.0529 -0.3672 -0.1289
 4230TIP3    H136885   1.391   1.463  18.728 -2.2631  0.8437  0.2039
 4230TIP3    H236886   1.458   1.599  18.723  0.5517 -0.4983 -0.3568
 4231TIP3   OH236887   5.648   5.174  18.570 -0.1534  0.2272  0.0854
 4231TIP3    H136888   5.621   5.090  18.607 -0.6027 -0.2673 -1.3009
 4231TIP3    H236889   5.730   5.155  18.524  0.0417  0.6826  0.2373
 4232TIP3   OH236890   3.835   5.772  18.310 -0.4014 -0.0581  0.4795
 4232TIP3    H136891   3.754   5.797  18.266 -0.2845 -2.8795 -1.6371
 4232TIP3    H236892   3.807   5.728  18.390 -0.8769  0.3257  0.5300
 4233TIP3   OH236893   3.823   6.800  18.885  0.6378  0.0729 -0.3322
 4233TIP3    H136894   3.787   6.837  18.966  0.5771  0.5185 -0.5600
 4233TIP3    H236895   3.774   6.719  18.872  0.9315 -0.2107  0.2958
 4234TIP3   OH236896   0.141   1.084  18.405  0.1884  0.8497  0.6316
 4234TIP3    H136897   0.134   0.995  18.372  0.8031  0.5272  1.3158
 4234TIP3    H236898   0.231   1.110  18.385  0.2553  1.0181  1.1186
 4235TIP3   OH236899   5.877   4.400  18.430  0.2374  0.0392  0.2521
 4235TIP3    H136900   5.796   4.386  18.479 -0.5378  1.4653 -0.5388
 4235TIP3    H236901   5.848   4.416  18.341  1.5656 -1.5342 -0.5071
 4236TIP3   OH236902   2.886   6.243  19.659 -0.6370  0.2179 -0.1719
 4236TIP3    H136903   2.883   6.181  19.586  0.0052 -1.2995  1.0394
 4236TIP3    H236904   2.979   6.258  19.675 -0.7612  2.1229 -0.8933
 4237TIP3   OH236905   2.328   1.993  17.307  0.1292 -0.4739 -0.2919
 4237TIP3    H136906   2.395   1.936  17.347 -0.0802 -0.6480 -0.1897
 4237TIP3    H236907   2.252   1.983  17.363  0.4230  0.7425  0.3597
 4238TIP3   OH236908   6.573   7.228  18.935  0.5389  0.1045 -0.0938
 4238TIP3    H136909   6.520   7.249  18.857 -0.9556  0.5279  0.9861
 4238TIP3    H236910   6.623   7.151  18.909  0.3927  0.4746 -1.6148
 4239TIP3   OH236911   1.821   5.259  19.580 -0.7356  0.5107 -1.2821
 4239TIP3    H136912   1.889   5.216  19.527  0.2165  1.8711 -1.1963
 4239TIP3    H236913   1.801   5.196  19.649 -0.5453 -0.4637 -2.0930
 4240TIP3   OH236914   1.020   3.315  19.316 -0.3971  0.4525  0.2773
 4240TIP3    H136915   1.105   3.301  19.358 -0.5477  0.8754  0.7271
 4240TIP3    H236916   1.041   3.354  19.231 -0.2197  3.4664  1.5819
 4241TIP3   OH236917   1.328   2.895  17.819 -0.0465 -0.1459 -0.2660
 4241TIP3    H136918   1.263   2.920  17.884 -2.0260 -1.8297 -1.4648
 4241TIP3    H236919   1.360   2.810  17.849  0.4119 -0.0584 -0.5096
 4242TIP3   OH236920   2.553   3.498  18.806 -0.3358 -0.9284  0.0150
 4242TIP3    H136921   2.500   3.496  18.726 -0.8770  0.1803  0.3233
 4242TIP3    H236922   2.552   3.590  18.832 -1.1712 -1.4401  1.9507
 4243TIP3   OH236923   5.628   4.827  19.382 -0.3642 -0.5339  0.5799
 4243TIP3    H136924   5.693   4.843  19.449 -1.8343 -1.2337  2.2415
 4243TIP3    H236925   5.569   4.902  19.386 -0.2582 -0.3962 -0.1951
 4244TIP3   OH236926   4.871   3.360  19.370 -0.1601  0.8410  0.2897
 4244TIP3    H136927   4.948   3.364  19.426  0.0317  0.9954  0.0164
 4244TIP3    H236928   4.869   3.445  19.325  0.2060  0.3808 -0.6161
 4245TIP3   OH236929   7.150   5.746  18.066 -0.0773 -0.2455 -0.1709
 4245TIP3    H136930   7.199   5.698  17.999 -3.9520 -1.2993 -2.5507
 4245TIP3    H236931   7.103   5.813  18.017 -0.7208  0.9778  2.0185
 4246TIP3   OH236932   5.979   3.119  17.655  0.3205  0.3569 -0.1856
 4246TIP3    H136933   5.943   3.109  17.743  0.6560 -1.1231 -0.1966
 4246TIP3    H236934   5.945   3.204  17.625 -1.0943  0.1618  0.7634
 4247TIP3   OH236935   7.612   1.636  18.630 -0.0880 -0.0279  0.5725
 4247TIP3    H136936   7.560   1.715  18.646  0.3250  0.7480 -1.6493
 4247TIP3    H236937   7.702   1.663  18.646 -0.1199 -0.8145  2.3642
 4248TIP3   OH236938   5.219   6.660  17.624 -0.2230  0.3120  0.2711
 4248TIP3    H136939   5.144   6.719  17.620 -0.7129 -0.2061  1.2075
 4248TIP3    H236940   5.249   6.651  17.534 -0.9815  0.9236 -0.0439
 4249TIP3   OH236941   3.362   3.292  17.867 -0.4259 -1.0899 -0.3910
 4249TIP3    H136942   3.396   3.303  17.956 -1.0106 -0.4455 -0.2401
 4249TIP3    H236943   3.439   3.268  17.815  0.5205  1.3484 -0.2664
 4250TIP3   OH236944   5.388   1.815  19.025  0.4261 -0.3297 -0.3678
 4250TIP3    H136945   5.381   1.749  19.094  0.1405 -0.8879 -0.9242
 4250TIP3    H236946   5.412   1.766  18.947  0.2961  0.2404 -0.7730
 4251TIP3   OH236947   1.562   1.828  19.018 -0.1094  0.7175  0.1175
 4251TIP3    H136948   1.496   1.790  18.960  0.2195  0.2989  0.0113
 4251TIP3    H236949   1.635   1.766  19.016  0.2777  1.1568  0.2584
 4252TIP3   OH236950   1.634   3.738  17.269  0.1454 -0.2609  0.5105
 4252TIP3    H136951   1.627   3.698  17.183 -0.2799  0.3405  0.2543
 4252TIP3    H236952   1.680   3.673  17.323  1.9400  0.0043 -0.5947
 4253TIP3   OH236953   1.547   4.947  18.064 -0.3707  0.1335 -0.4017
 4253TIP3    H136954   1.509   5.020  18.015  0.0526  0.0048 -0.9457
 4253TIP3    H236955   1.475   4.885  18.075 -0.9173  0.9377  0.7025
 4254TIP3   OH236956   4.711   4.703  18.617 -0.0566  0.1932 -0.2459
 4254TIP3    H136957   4.741   4.652  18.541  0.7327  1.7067 -0.9849
 4254TIP3    H236958   4.714   4.794  18.588  1.4669  0.9452  1.9836
 4255TIP3   OH236959   5.993   6.700  17.741  0.4092 -0.0497 -0.2696
 4255TIP3    H136960   6.009   6.606  17.741 -1.5158 -0.4456  1.2649
 4255TIP3    H236961   6.051   6.734  17.809  0.9581 -0.1443 -0.6859
 4256TIP3   OH236962   0.271   7.525  16.350  0.2314 -0.3912 -0.4974
 4256TIP3    H136963   0.355   7.565  16.370  0.1689 -0.8014  0.6353
 4256TIP3    H236964   0.283   7.432  16.371  0.0502 -0.8075 -2.0797
 4257TIP3   OH236965   0.008   1.459  18.865 -0.1990 -0.5363 -0.7670
 4257TIP3    H136966   0.008   1.431  18.774 -1.0879  0.3099 -1.0544
 4257TIP3    H236967  -0.041   1.391  18.911 -0.2095 -0.6998 -1.0217
 4258TIP3   OH236968   1.408   7.277  18.969 -0.6471  0.3817  0.1898
 4258TIP3    H136969   1.376   7.365  18.948 -0.7362  0.3342  0.1279
 4258TIP3    H236970   1.489   7.268  18.918 -0.7560  0.3435  0.0225
 4259TIP3   OH236971   7.330   2.946  18.878  0.1408 -0.1455  0.1221
 4259TIP3    H136972   7.307   2.899  18.799  0.8501 -0.4890  0.1104
 4259TIP3    H236973   7.261   2.925  18.940 -0.5741  0.3556 -0.4844
 4260TIP3   OH236974   2.882   0.466  18.705  0.0351 -0.2183  0.5680
 4260TIP3    H136975   2.803   0.444  18.657 -0.3389  0.5662  0.8179
 4260TIP3    H236976   2.851   0.490  18.793  0.5826 -0.2590  0.7770
 4261TIP3   OH236977   7.500   3.419  17.756 -0.0304 -0.2598 -0.2073
 4261TIP3    H136978   7.589   3.454  17.760  0.7424 -1.9723 -1.2841
 4261TIP3    H236979   7.501   3.346  17.818 -0.6668 -0.3769 -0.3318
 4262TIP3   OH236980   0.621   1.297  19.387 -0.6557 -0.8207  0.2831
 4262TIP3    H136981   0.582   1.222  19.342  1.1503 -1.8265  0.3127
 4262TIP3    H236982   0.711   1.271  19.405 -0.8129  0.1841  3.0104
 4263TIP3   OH236983   6.783   2.512  17.147  0.2041 -0.0321 -0.4168
 4263TIP3    H136984   6.728   2.434  17.158  0.2480  0.0152  0.2111
 4263TIP3    H236985   6.735   2.568  17.086 -0.7055  0.2320  0.5114
 4264TIP3   OH236986   3.481   0.600  18.827  0.2967  0.3013 -0.7432
 4264TIP3    H136987   3.503   0.691  18.845 -0.2503 -0.0034  1.7957
 4264TIP3    H236988   3.566   0.558  18.812  0.7715  0.7798  0.5016
 4265TIP3   OH236989   6.725   0.784  18.890  0.4523  0.6137 -0.4489
 4265TIP3    H136990   6.633   0.767  18.909  0.4664  0.0683 -0.8576
 4265TIP3    H236991   6.762   0.809  18.975 -0.0151  0.6077 -0.2353
 4266TIP3   OH236992   2.547   3.757  17.800  0.6009 -0.6218 -0.5880
 4266TIP3    H136993   2.586   3.705  17.730  1.0269  0.7966 -1.4495
 4266TIP3    H236994   2.463   3.787  17.764  1.0985  0.6230 -0.7567
 4267TIP3   OH236995   0.771   3.154  16.736  0.6333  0.3571  0.0005
 4267TIP3    H136996   0.841   3.197  16.687  0.1050  0.4055 -0.7364
 4267TIP3    H236997   0.703   3.137  16.670 -0.9492  2.1674  1.0493
 4268TIP3   OH236998   3.639   6.760  17.455 -0.2338  0.2161  0.2836
 4268TIP3    H136999   3.554   6.803  17.452  0.3995  1.4670 -1.2332
 4268TIP3    H237000   3.619   6.668  17.470 -1.6937  0.8065  2.4591
 4269TIP3   OH237001   2.865   2.565  17.062 -0.0266  0.2490  0.2695
 4269TIP3    H137002   2.884   2.632  17.127 -1.4013 -0.5605  1.5717
 4269TIP3    H237003   2.929   2.579  16.993  1.3327  1.2880  1.6878
 4270TIP3   OH237004   3.756   3.797  17.183  0.2869 -0.0372  0.0397
 4270TIP3    H137005   3.765   3.702  17.173 -0.5713 -0.0131 -1.1393
 4270TIP3    H237006   3.840   3.826  17.218  0.5575 -1.2291  0.4131
 4271TIP3   OH237007   0.014   7.624  16.745 -0.0363 -0.3055  0.1436
 4271TIP3    H137008   0.030   7.680  16.821  2.2855 -0.4759 -0.1452
 4271TIP3    H237009   0.044   7.676  16.670 -2.2111 -0.1730 -0.7043
 4272TIP3   OH237010   4.246   3.797  18.510  0.6538 -0.3892  0.0901
 4272TIP3    H137011   4.206   3.719  18.471  2.3706 -1.3530  0.1859
 4272TIP3    H237012   4.307   3.763  18.575  2.3179  0.9578 -0.6862
 4273TIP3   OH237013   4.566   1.546  16.901  0.2042 -0.4463  0.2064
 4273TIP3    H137014   4.574   1.484  16.829 -0.9850 -0.8367  0.3909
 4273TIP3    H237015   4.567   1.632  16.858  0.0577 -0.6518 -0.2143
 4274TIP3   OH237016   4.474   6.144  16.950 -0.1341 -0.1382  0.0827
 4274TIP3    H137017   4.421   6.109  16.878  1.3979 -0.0197 -1.1615
 4274TIP3    H237018   4.555   6.092  16.947  0.8365  1.3004  0.3119
 4275TIP3   OH237019   6.430   6.303  19.137 -0.5073 -0.0076  0.5601
 4275TIP3    H137020   6.383   6.220  19.134 -2.2072  0.9297 -0.2968
 4275TIP3    H237021   6.432   6.333  19.046  1.5159  0.1459  0.6163
 4276TIP3   OH237022   5.486   1.177  18.268 -0.5576  0.0059  0.3017
 4276TIP3    H137023   5.541   1.118  18.321 -0.0448  0.7602  0.6282
 4276TIP3    H237024   5.459   1.124  18.193  1.3462 -0.1366 -0.3350
 4277TIP3   OH237025   1.904   7.061  18.582  0.4757 -0.2999 -0.3048
 4277TIP3    H137026   1.871   7.150  18.596  2.4404  0.8050 -2.0866
 4277TIP3    H237027   1.954   7.041  18.661 -0.7730 -0.2605  0.5289
 4278TIP3   OH237028   4.121   2.153  17.978  0.2172  0.1896  0.2574
 4278TIP3    H137029   4.120   2.148  17.883 -0.1490  1.1832  0.1913
 4278TIP3    H237030   4.172   2.231  17.998 -0.1767  0.3092  0.8511
 4279TIP3   OH237031   2.866   3.854  16.957  0.3038 -0.3062  0.9986
 4279TIP3    H137032   2.813   3.916  17.007 -0.7708  0.2530 -0.7336
 4279TIP3    H237033   2.951   3.897  16.949 -0.5210  1.1630 -0.4562
 4280TIP3   OH237034   4.390   3.658  16.680  0.5021  0.4916  0.1338
 4280TIP3    H137035   4.457   3.593  16.658  1.8081  1.8171  0.0136
 4280TIP3    H237036   4.437   3.741  16.680 -0.6571  1.2205  2.3706
 4281TIP3   OH237037   2.540   6.248  19.570 -0.1270 -0.1463 -0.3806
 4281TIP3    H137038   2.631   6.249  19.599 -0.0114 -1.4036 -0.6140
 4281TIP3    H237039   2.507   6.335  19.590  1.3335  0.5823 -0.9686
 4282TIP3   OH237040   7.442   1.725  17.958  0.1633 -0.5023 -0.1607
 4282TIP3    H137041   7.497   1.648  17.977  0.0832 -0.2287  1.2709
 4282TIP3    H237042   7.487   1.770  17.887  0.1525 -1.9276 -1.1133
 4283TIP3   OH237043   6.528   2.494  17.905  0.0740 -0.5204 -0.1417
 4283TIP3    H137044   6.609   2.445  17.895 -0.1521 -0.8538 -0.3703
 4283TIP3    H237045   6.545   2.578  17.862  0.0679 -0.8524 -0.8015
 4284TIP3   OH237046   6.613   7.297  17.153  0.5539  0.1963 -0.2984
 4284TIP3    H137047   6.542   7.345  17.109  0.3073  0.9244  0.8528
 4284TIP3    H237048   6.569   7.223  17.194  0.7885 -0.4991 -1.2765
 4285TIP3   OH237049   4.853   2.422  19.188 -0.4695 -0.3409 -0.3471
 4285TIP3    H137050   4.813   2.492  19.138 -0.8182  0.4657  0.9946
 4285TIP3    H237051   4.944   2.450  19.201 -0.6929  0.0481  0.4667
 4286TIP3   OH237052   5.704   5.906  17.366 -0.0713  0.6606  0.0963
 4286TIP3    H137053   5.641   5.940  17.429 -0.4807 -0.1151  0.1201
 4286TIP3    H237054   5.652   5.890  17.286 -0.2257 -1.2189  0.5176
 4287TIP3   OH237055   5.426   3.180  18.919  0.3924  0.4538  0.0556
 4287TIP3    H137056   5.415   3.191  19.013  0.7190  0.9205  0.0424
 4287TIP3    H237057   5.432   3.085  18.907 -0.7339  0.3365  0.3700
 4288TIP3   OH237058   5.353   1.589  17.619 -0.0293 -0.7467  0.1968
 4288TIP3    H137059   5.354   1.504  17.663 -0.5248 -0.1058  1.4698
 4288TIP3    H237060   5.266   1.624  17.637 -0.1947 -0.3944 -1.1815
 4289TIP3   OH237061   4.903   4.896  17.399 -0.0512  0.5137 -0.2370
 4289TIP3    H137062   4.955   4.870  17.322 -1.3854  1.3458 -1.4820
 4289TIP3    H237063   4.828   4.942  17.362 -0.2373  1.8362  1.6388
 4290TIP3   OH237064   1.281   2.512  17.607 -0.1470 -0.3009  0.4203
 4290TIP3    H137065   1.252   2.468  17.527 -1.5950  1.9982 -0.4123
 4290TIP3    H237066   1.361   2.466  17.632  1.1554 -0.2887 -3.1311
 4291TIP3   OH237067   5.203   3.151  18.411 -0.1097 -0.0801  0.2149
 4291TIP3    H137068   5.252   3.224  18.375  0.9061 -0.0081  1.6683
 4291TIP3    H237069   5.128   3.141  18.353  2.1156 -0.8911 -2.7340
 4292TIP3   OH237070   1.595   1.457  17.275  0.1426 -0.6586 -0.1188
 4292TIP3    H137071   1.612   1.443  17.182  0.4630  0.2771 -0.2170
 4292TIP3    H237072   1.550   1.542  17.278 -0.4148 -0.9692  0.5298
 4293TIP3   OH237073   5.919   0.009  17.270 -0.3494 -0.2680 -0.0826
 4293TIP3    H137074   5.998   0.063  17.265 -0.0908 -0.4917  1.2139
 4293TIP3    H237075   5.894  -0.004  17.179  1.7039 -1.0681 -0.6016
 4294TIP3   OH237076   7.585   7.655  19.657 -0.1436  0.0163  0.1296
 4294TIP3    H137077   7.655   7.634  19.719 -0.8511  2.1596  1.8144
 4294TIP3    H237078   7.581   7.751  19.658 -2.6772 -0.0153 -0.3607
 4295TIP3   OH237079   7.557   1.872  18.362  0.8393  0.0317  0.7151
 4295TIP3    H137080   7.541   1.779  18.346 -0.1593  0.2788  0.2031
 4295TIP3    H237081   7.502   1.894  18.437  0.4219  0.3922  0.3097
 4296TIP3   OH237082   3.252   0.217  19.122 -0.7005 -0.6267  0.5054
 4296TIP3    H137083   3.312   0.287  19.096 -0.2739 -0.3443  2.1285
 4296TIP3    H237084   3.171   0.235  19.074 -0.9996  1.6804  1.7423
 4297TIP3   OH237085   0.118   5.033  16.345 -0.5015  0.7095  0.0369
 4297TIP3    H137086   0.209   5.012  16.325 -0.9171 -0.2669 -0.9086
 4297TIP3    H237087   0.122   5.120  16.386  0.9716  0.1119  1.2612
 4298TIP3   OH237088   5.254   6.715  18.806 -0.3056  0.0321  0.0856
 4298TIP3    H137089   5.248   6.622  18.824 -0.7458 -0.1785 -1.1042
 4298TIP3    H237090   5.345   6.737  18.825  0.1111 -0.8945 -0.7581
 4299TIP3   OH237091   1.840   2.402  18.362  0.0835  0.6666 -0.5113
 4299TIP3    H137092   1.825   2.496  18.354  2.4348  0.9647 -2.2932
 4299TIP3    H237093   1.764   2.363  18.319 -1.9125  1.5864  1.9122
 4300TIP3   OH237094   7.677   5.265  17.031 -0.1160 -0.0168 -0.1751
 4300TIP3    H137095   7.662   5.320  16.953  0.9455 -1.1995 -1.2540
 4300TIP3    H237096   7.760   5.296  17.066 -0.4576  0.3263  0.3425
 4301TIP3   OH237097   6.845   2.804  17.702 -0.2123 -0.4739  0.5727
 4301TIP3    H137098   6.904   2.735  17.671  0.7568  0.2275  0.7857
 4301TIP3    H237099   6.863   2.810  17.796 -1.9683 -1.4882  1.0236
 4302TIP3   OH237100   4.337   7.408  18.984 -0.3220 -0.4213  0.3939
 4302TIP3    H137101   4.313   7.326  18.942 -1.2615 -0.2734  0.6106
 4302TIP3    H237102   4.421   7.431  18.946 -0.8852 -0.5682 -1.0189
 4303TIP3   OH237103   4.829   4.645  19.044  0.5372 -0.4409  0.2672
 4303TIP3    H137104   4.844   4.722  18.990  1.4223  0.5790  1.8793
 4303TIP3    H237105   4.737   4.622  19.029  0.6599  0.0196 -1.3467
 4304TIP3   OH237106   4.648   7.218  17.650  0.1026  0.0793 -0.3619
 4304TIP3    H137107   4.664   7.301  17.606  0.6827 -0.1096 -0.5129
 4304TIP3    H237108   4.672   7.151  17.586  1.3100 -0.2006  0.3428
 4305TIP3   OH237109   7.000   3.256  18.873  0.3909 -0.0461  0.2821
 4305TIP3    H137110   7.005   3.306  18.954 -0.0726  0.1985  0.1650
 4305TIP3    H237111   7.027   3.318  18.805 -2.1632  0.7551 -0.1347
 4306TIP3   OH237112   7.583   2.781  18.524  0.6805  0.3114 -0.1377
 4306TIP3    H137113   7.647   2.815  18.586  2.1627  0.7138 -1.8045
 4306TIP3    H237114   7.585   2.686  18.536  2.9808  0.1314 -1.3593
 4307TIP3   OH237115   0.397   4.064  17.248 -0.0206  0.1758 -0.2905
 4307TIP3    H137116   0.329   4.011  17.208  1.1057 -2.4405  1.0055
 4307TIP3    H237117   0.390   4.046  17.342  0.9723  1.6914  0.1199
 4308TIP3   OH237118   6.308   0.607  17.326 -0.6546 -0.3345 -0.5551
 4308TIP3    H137119   6.398   0.631  17.303 -0.5085 -0.0623  0.2757
 4308TIP3    H237120   6.312   0.514  17.348 -0.7044 -0.4784 -1.1334
 4309TIP3   OH237121   2.201   6.698  17.936 -0.1861  0.3255 -0.7529
 4309TIP3    H137122   2.241   6.611  17.927  0.1062  0.3949 -0.1703
 4309TIP3    H237123   2.111   6.686  17.906 -0.1003 -0.1405 -0.8331
 4310TIP3   OH237124   3.210   3.226  19.194 -0.5870  0.5627 -0.2273
 4310TIP3    H137125   3.148   3.194  19.128 -0.3204  1.0636 -0.7325
 4310TIP3    H237126   3.294   3.190  19.166 -0.3802  1.2202 -0.4772
 4311TIP3   OH237127   6.824   6.375  18.615  0.2398  0.2730 -0.0016
 4311TIP3    H137128   6.755   6.439  18.633 -0.8352  0.3653 -3.6550
 4311TIP3    H237129   6.793   6.295  18.659 -0.2176  1.2489  1.5617
 4312TIP3   OH237130   3.526   0.892  18.853 -0.2061 -0.2881 -0.2416
 4312TIP3    H137131   3.538   0.895  18.758  0.2692 -0.2403 -0.1821
 4312TIP3    H237132   3.581   0.963  18.887  2.3295 -2.3202  0.3074
 4313TIP3   OH237133   5.559   1.574  17.046  0.0484  0.0404  0.5995
 4313TIP3    H137134   5.559   1.663  17.010 -2.0823 -0.0178  0.3407
 4313TIP3    H237135   5.586   1.586  17.137  2.4564  0.5695 -0.1125
 4314TIP3   OH237136   5.812   6.843  18.395 -0.4153  0.0261  0.4493
 4314TIP3    H137137   5.895   6.827  18.440 -0.8787  0.3352  1.4361
 4314TIP3    H237138   5.819   6.794  18.313 -0.1569 -1.8315  1.5282
 4315TIP3   OH237139   4.448   7.403  18.481 -0.3468 -0.2833 -0.4396
 4315TIP3    H137140   4.384   7.427  18.414  0.1510 -0.8909 -1.1605
 4315TIP3    H237141   4.476   7.486  18.518 -1.3716  0.0018 -0.2775
 4316TIP3   OH237142   2.202   7.063  16.832  0.3338 -0.6910 -0.5224
 4316TIP3    H137143   2.177   7.008  16.758  1.0389 -3.1153  0.9101
 4316TIP3    H237144   2.209   7.002  16.906  0.2521  1.5015  1.4344
 4317TIP3   OH237145   5.541   5.786  18.869  0.0127  0.1906  0.1523
 4317TIP3    H137146   5.582   5.844  18.933  0.7661 -3.0189  2.8155
 4317TIP3    H237147   5.614   5.747  18.821 -0.3461 -0.1986 -0.0887
 4318TIP3   OH237148   0.992   4.896  17.889  0.1362 -0.3896  0.0653
 4318TIP3    H137149   0.926   4.828  17.881 -0.4753  0.2891 -0.9250
 4318TIP3    H237150   1.071   4.851  17.920 -0.6902 -1.2646  0.9426
 4319TIP3   OH237151   3.991   5.834  19.123 -0.0131  0.4334 -0.2360
 4319TIP3    H137152   3.969   5.812  19.032 -0.4026  0.1765 -0.0855
 4319TIP3    H237153   3.997   5.929  19.124 -1.2136  0.5368 -0.2915
 4320TIP3   OH237154   3.519   2.180  16.675 -0.0546  0.1423 -0.0105
 4320TIP3    H137155   3.557   2.094  16.654  2.0683  1.1369 -0.4767
 4320TIP3    H237156   3.449   2.160  16.737 -1.0849 -2.1206 -1.7396
 4321TIP3   OH237157   6.300   4.445  17.656  0.2008  0.5104 -0.0579
 4321TIP3    H137158   6.328   4.401  17.737  0.5118 -0.1223 -0.5024
 4321TIP3    H237159   6.377   4.492  17.627 -0.7090  3.2607  1.5982
 4322TIP3   OH237160   4.284   2.279  18.786 -0.1734 -0.3847 -0.5087
 4322TIP3    H137161   4.341   2.234  18.723  1.7211 -1.7502  1.9878
 4322TIP3    H237162   4.216   2.215  18.806  1.8513 -1.8983  2.1496
 4323TIP3   OH237163   2.373   4.486  18.654 -0.0665 -0.2364  0.2776
 4323TIP3    H137164   2.376   4.578  18.627  0.9978 -0.2737  0.2083
 4323TIP3    H237165   2.282   4.461  18.644 -0.5880  1.1204  1.3718
 4324TIP3   OH237166   1.301   6.031  17.777 -0.2047  0.4032 -0.3324
 4324TIP3    H137167   1.261   6.026  17.690  0.0390 -1.2054 -0.3900
 4324TIP3    H237168   1.227   6.039  17.837 -0.3259  2.7956 -0.7100
 4325TIP3   OH237169   4.317   0.693  18.887 -0.3252 -0.0052 -0.4717
 4325TIP3    H137170   4.290   0.736  18.968 -1.2280 -1.0942 -0.1715
 4325TIP3    H237171   4.403   0.729  18.868  0.5611 -0.7957  1.7631
 4326TIP3   OH237172   3.543   2.357  17.824 -0.0322 -0.3791  0.2688
 4326TIP3    H137173   3.609   2.353  17.755 -0.1467 -0.2843  0.1534
 4326TIP3    H237174   3.477   2.292  17.798 -1.1474  1.1243 -0.8259
 4327TIP3   OH237175   7.663   5.533  17.697  0.0603  0.4884  0.0434
 4327TIP3    H137176   7.685   5.613  17.743  1.3061  0.2232 -0.0540
 4327TIP3    H237177   7.734   5.521  17.634 -2.1082  1.4427 -2.7870
 4328TIP3   OH237178   6.506   0.291  19.158  0.4748  0.0904  0.2703
 4328TIP3    H137179   6.537   0.330  19.239  0.8052  2.8730 -1.0974
 4328TIP3    H237180   6.507   0.362  19.094  0.0560 -1.9322 -2.1631
 4329TIP3   OH237181   5.194   5.556  19.659  0.1980 -0.2837 -0.0570
 4329TIP3    H137182   5.288   5.563  19.643 -0.0454 -0.9775 -2.1245
 4329TIP3    H237183   5.165   5.645  19.676  1.2259 -0.0861  0.7374
 4330TIP3   OH237184   0.923   4.361  17.724  0.2101 -0.1524  0.5280
 4330TIP3    H137185   1.008   4.388  17.760  0.5846 -1.5053  0.7465
 4330TIP3    H237186   0.895   4.435  17.671  1.7455  0.1692  0.1032
 4331TIP3   OH237187   2.155   5.197  17.840  0.2089 -0.3158  0.4227
 4331TIP3    H137188   2.111   5.252  17.774  0.1380  2.2536  2.4323
 4331TIP3    H237189   2.088   5.133  17.866  0.1742 -1.2482 -1.7509
 4332TIP3   OH237190   2.065   5.794  18.675  0.0186  0.4846 -0.1485
 4332TIP3    H137191   2.090   5.878  18.637 -3.4567  3.1421  2.7894
 4332TIP3    H237192   2.137   5.773  18.735  1.4651  0.6461 -1.7412
 4333TIP3   OH237193   6.630   5.445  18.702 -0.0741 -0.1410  0.0918
 4333TIP3    H137194   6.674   5.500  18.637  0.2847  0.7487  1.0543
 4333TIP3    H237195   6.600   5.507  18.770 -2.6454 -0.7072 -0.4005
 4334TIP3   OH237196   2.258   0.579  17.686 -0.7036 -0.3550  0.7415
 4334TIP3    H137197   2.216   0.506  17.731  1.7653 -3.4372 -1.4007
 4334TIP3    H237198   2.327   0.608  17.746 -1.7153  0.2922  1.6206
 4335TIP3   OH237199   6.432   1.899  17.057 -0.3197 -0.3317 -0.2987
 4335TIP3    H137200   6.368   1.938  16.997  1.3396  0.3141 -1.7328
 4335TIP3    H237201   6.502   1.964  17.064 -0.2998 -0.5101  2.1630
 4336TIP3   OH237202   5.806   5.604  19.045  0.0629 -0.5197 -0.2722
 4336TIP3    H137203   5.891   5.571  19.074 -0.8152 -2.3797  0.3568
 4336TIP3    H237204   5.819   5.698  19.033  2.3789 -0.8602 -0.8789
 4337TIP3   OH237205   2.719   2.303  16.978  0.0510 -0.1095  0.8364
 4337TIP3    H137206   2.752   2.378  17.027  0.7730  0.3367 -0.2908
 4337TIP3    H237207   2.660   2.341  16.913 -1.1084 -0.7163  1.4990
 4338TIP3   OH237208   2.831   2.576  17.931 -0.3475  0.1729  0.2449
 4338TIP3    H137209   2.890   2.650  17.946 -0.8266  0.3951  1.1259
 4338TIP3    H237210   2.798   2.554  18.019 -0.9427 -0.4663 -0.1303
 4339TIP3   OH237211   5.563   3.657  17.579 -0.5772 -0.7060  0.6541
 4339TIP3    H137212   5.536   3.570  17.551 -1.2122 -0.6890  1.1840
 4339TIP3    H237213   5.496   3.715  17.542  1.7820  0.0714 -2.9469
 4340TIP3   OH237214   2.044   0.933  16.857  0.2354  0.3861  0.0407
 4340TIP3    H137215   2.062   1.020  16.821 -1.1418  0.4508 -0.5944
 4340TIP3    H237216   1.950   0.935  16.875  0.1191 -1.0994 -0.3479
 4341TIP3   OH237217   3.614   1.057  17.147 -0.1943  0.3198  0.3677
 4341TIP3    H137218   3.661   1.081  17.067 -1.4589  0.6999 -0.2818
 4341TIP3    H237219   3.531   1.105  17.141 -2.7492 -3.7983 -0.7992
 4342TIP3   OH237220   5.775   4.312  17.840 -0.0880 -0.1248  0.2127
 4342TIP3    H137221   5.716   4.386  17.856  0.1689  0.1900 -0.2709
 4342TIP3    H237222   5.743   4.275  17.757 -0.7010 -1.0378  0.8364
 4343TIP3   OH237223   1.898   3.047  18.268  0.5410  0.1829 -0.8588
 4343TIP3    H137224   1.824   2.993  18.294  1.3199 -1.0129 -0.9999
 4343TIP3    H237225   1.894   3.123  18.325 -1.1918  0.5015 -1.3393
 4344TIP3   OH237226   0.316   0.331  18.815 -0.3007 -0.1457 -0.2569
 4344TIP3    H137227   0.295   0.281  18.895 -1.3624  1.3541  0.4419
 4344TIP3    H237228   0.232   0.342  18.771 -0.0720  0.9820 -0.4221
 4345TIP3   OH237229   4.620   1.913  18.556 -0.2715  0.0253  0.0164
 4345TIP3    H137230   4.690   1.957  18.606 -0.2296 -1.8369  1.7218
 4345TIP3    H237231   4.551   1.898  18.620 -2.1164  1.3659 -1.5289
 4346TIP3   OH237232   7.524   7.598  18.613  0.2628  0.0263 -0.8057
 4346TIP3    H137233   7.561   7.639  18.535  0.1920 -0.6921 -1.2218
 4346TIP3    H237234   7.575   7.518  18.624  1.0357  0.6544  0.5458
 4347TIP3   OH237235   6.006   5.808  16.454  0.6320  0.1279  0.4959
 4347TIP3    H137236   6.074   5.867  16.421  1.9970  0.5819  3.7582
 4347TIP3    H237237   6.054   5.734  16.491 -0.8574 -1.0821  0.1267
 4348TIP3   OH237238   4.812   6.441  18.972  0.1318  0.2446  0.5147
 4348TIP3    H137239   4.758   6.477  18.902  0.6988  1.3242  0.6194
 4348TIP3    H237240   4.834   6.353  18.941  0.1361  0.5959 -0.5303
 4349TIP3   OH237241   4.476   7.658  19.064 -0.1087  0.1601  0.5485
 4349TIP3    H137242   4.546   7.611  19.109 -0.1361  0.7306  1.1916
 4349TIP3    H237243   4.396   7.634  19.112 -0.1776  0.5528  0.6285
 4350TIP3   OH237244   3.519   7.443  18.072 -0.5909  0.5788 -0.5350
 4350TIP3    H137245   3.552   7.364  18.030 -1.7947 -1.0363  1.3498
 4350TIP3    H237246   3.424   7.437  18.064 -0.7383  1.4427  0.2921
 4351TIP3   OH237247   5.217   1.111  18.629 -0.2828 -0.0180 -0.1967
 4351TIP3    H137248   5.303   1.072  18.612 -0.0994  0.0009  0.6361
 4351TIP3    H237249   5.156   1.037  18.624  0.1387 -0.5983  2.0246
 4352TIP3   OH237250   5.538   7.298  16.462 -0.1700  0.3541 -0.3352
 4352TIP3    H137251   5.503   7.211  16.444 -0.8936  0.2053  1.6196
 4352TIP3    H237252   5.601   7.285  16.533  1.1127  1.1926 -1.2654
 4353TIP3   OH237253   6.435   5.161  18.959 -0.1545  0.2033 -0.2019
 4353TIP3    H137254   6.378   5.206  18.896 -0.2763 -0.5967 -0.6836
 4353TIP3    H237255   6.512   5.217  18.965  0.2461 -0.1262 -1.7574
 4354TIP3   OH237256   3.976   7.495  18.362 -0.7844  0.3267  0.3148
 4354TIP3    H137257   3.974   7.487  18.457  0.3277 -1.2847  0.2461
 4354TIP3    H237258   4.057   7.451  18.336 -0.0360  2.4375 -1.2554
 4355TIP3   OH237259   0.728   0.987  19.550  0.0729  0.6112  0.5569
 4355TIP3    H137260   0.691   0.923  19.490  0.4883 -0.1244  1.0674
 4355TIP3    H237261   0.685   0.969  19.634 -1.4746  2.4788  0.2306
 4356TIP3   OH237262   1.299   0.302  19.259 -0.3657 -0.1446  0.0960
 4356TIP3    H137263   1.381   0.255  19.241 -0.1564  0.3993 -0.4316
 4356TIP3    H237264   1.328   0.383  19.302 -0.6613 -0.1509  0.3052
 4357TIP3   OH237265   1.356   3.884  19.270 -0.0069  0.3293  0.0110
 4357TIP3    H137266   1.348   3.907  19.363 -1.0950 -0.7081  0.1966
 4357TIP3    H237267   1.431   3.825  19.267 -0.2536 -0.0082  0.3182
 4358TIP3   OH237268   4.219   5.360  19.059  0.4331 -0.4624  0.1068
 4358TIP3    H137269   4.242   5.439  19.011  1.3467 -0.9143 -0.2273
 4358TIP3    H237270   4.134   5.379  19.098  1.7838  1.6979  2.2489
 4359TIP3   OH237271   1.487   1.534  19.227  0.3875 -0.0777 -0.2685
 4359TIP3    H137272   1.480   1.446  19.264  2.4964  0.2999  1.1629
 4359TIP3    H237273   1.578   1.560  19.241 -0.2950  2.5735 -0.0886
 4360TIP3   OH237274   3.952   7.234  17.916 -0.2576 -0.6564  0.2883
 4360TIP3    H137275   3.945   7.250  17.822 -1.3334  0.4287  0.5264
 4360TIP3    H237276   3.975   7.141  17.923 -0.0432 -0.7189 -1.0449
 4361TIP3   OH237277   2.363   0.084  19.728 -0.2086  0.6971 -0.2720
 4361TIP3    H137278   2.317   0.166  19.746  0.5093  1.1931 -0.6323
 4361TIP3    H237279   2.453   0.111  19.709  0.3889 -0.2871  0.9846
 4362TIP3   OH237280   4.056   5.891  18.115 -0.4969 -0.4366 -0.0675
 4362TIP3    H137281   3.997   5.867  18.186  1.6859  0.1481  2.0869
 4362TIP3    H237282   4.037   5.984  18.097 -1.6723 -0.8209 -0.9649
 4363TIP3   OH237283   5.610   1.630  17.722 -0.3032  0.0739 -0.4792
 4363TIP3    H137284   5.670   1.578  17.669 -0.3348 -0.8843  0.3959
 4363TIP3    H237285   5.525   1.619  17.679 -0.1742  0.0271 -0.7279
 4364TIP3   OH237286   2.846   2.288  18.636 -0.7400  0.0099 -0.0989
 4364TIP3    H137287   2.838   2.194  18.654 -0.5898  0.0392  0.1155
 4364TIP3    H237288   2.934   2.299  18.601 -0.0695  0.3385  1.5777
 4365TIP3   OH237289   3.326   7.409  18.893 -0.3263 -0.1512  0.1778
 4365TIP3    H137290   3.400   7.411  18.832 -1.2811  0.6866 -1.0370
 4365TIP3    H237291   3.311   7.501  18.915 -0.7961 -0.3383  0.6559
 4366TIP3   OH237292   0.008   6.885  18.670  0.3086 -0.4600  0.1382
 4366TIP3    H137293   0.066   6.959  18.685 -1.7517  1.5211 -1.0931
 4366TIP3    H237294   0.056   6.829  18.609  2.2672 -0.6813  1.7649
 4367TIP3   OH237295   2.323   3.141  19.231 -0.1727 -0.1426 -0.1904
 4367TIP3    H137296   2.356   3.113  19.145 -0.1833 -0.0350 -0.2295
 4367TIP3    H237297   2.280   3.063  19.267 -0.4942 -0.0854 -0.4424
 4368TIP3   OH237298   6.846   7.335  19.379 -0.1875 -0.3962 -0.6895
 4368TIP3    H137299   6.880   7.417  19.344 -0.1674 -0.0133  0.2123
 4368TIP3    H237300   6.922   7.292  19.419  0.1645 -1.6329 -2.5443
 4369TIP3   OH237301   5.175   5.392  17.840 -0.3487  0.0078 -0.2860
 4369TIP3    H137302   5.081   5.403  17.850 -0.3965 -0.3687 -0.3456
 4369TIP3    H237303   5.196   5.311  17.886  0.2129  0.9735  1.2732
 4370TIP3   OH237304   1.823   4.595  19.281 -0.3203 -0.1563  0.3013
 4370TIP3    H137305   1.733   4.628  19.281  0.2268  1.4493  0.6371
 4370TIP3    H237306   1.875   4.668  19.314  1.2506 -0.6893 -0.8771
 4371TIP3   OH237307   1.881   6.089  17.385 -0.5169  0.0132  0.3940
 4371TIP3    H137308   1.855   6.036  17.461 -0.0184 -1.3583 -0.3645
 4371TIP3    H237309   1.971   6.063  17.367  0.2714  2.2070  0.8611
 4372TIP3   OH237310   0.274   2.222  19.092  0.3164  0.2402  0.3038
 4372TIP3    H137311   0.283   2.272  19.011  0.3759 -0.0012  0.1604
 4372TIP3    H237312   0.363   2.200  19.117  0.2490 -0.6010 -0.1492
 4373TIP3   OH237313   7.257   0.042  16.842  0.1940  0.2267 -0.1147
 4373TIP3    H137314   7.319   0.109  16.872  0.1369  0.2866 -0.1307
 4373TIP3    H237315   7.258   0.050  16.747 -0.2347  0.5890 -0.0915
 4374TIP3   OH237316   5.429   2.704  16.727  0.1949 -0.2243 -0.0076
 4374TIP3    H137317   5.421   2.610  16.708  1.3089 -0.6928  1.5782
 4374TIP3    H237318   5.438   2.745  16.642 -0.2215 -1.5704 -0.7378
 4375TIP3   OH237319   3.872   3.817  16.598  0.3610 -0.1827 -0.1106
 4375TIP3    H137320   3.967   3.833  16.592  0.0649  1.7779 -0.5026
 4375TIP3    H237321   3.864   3.723  16.612  2.3948 -0.2936  0.6750
 4376TIP3   OH237322   1.706   1.311  17.055 -0.0181 -0.7791  0.1640
 4376TIP3    H137323   1.656   1.229  17.057  1.1240 -1.4892  2.6785
 4376TIP3    H237324   1.797   1.285  17.068  0.4866  0.8368  0.1096
 4377TIP3   OH237325   0.057   1.239  17.631 -0.0800 -0.2106 -0.5158
 4377TIP3    H137326   0.007   1.163  17.661 -0.8979  0.8665  1.0332
 4377TIP3    H237327   0.001   1.282  17.567 -0.9394  0.6424  0.7511
 4378TIP3   OH237328   1.797   4.270  17.179  0.2010 -0.0406  0.2569
 4378TIP3    H137329   1.778   4.354  17.137  1.8369 -0.2699 -1.0569
 4378TIP3    H237330   1.717   4.219  17.168 -1.1962  1.6234  1.9629
 4379TIP3   OH237331   4.045   3.936  18.110 -0.5444  0.0886 -0.1066
 4379TIP3    H137332   3.976   4.000  18.091  0.3726  1.1180 -0.1213
 4379TIP3    H237333   4.072   3.904  18.024  0.0387  0.8422 -0.2127
 4380TIP3   OH237334   7.573   5.703  18.674 -0.1325  0.1348 -0.5290
 4380TIP3    H137335   7.578   5.678  18.582  1.2368 -0.2563 -0.3817
 4380TIP3    H237336   7.511   5.640  18.713 -0.8412  0.4103 -1.2025
 4381TIP3   OH237337   1.247   0.008  18.071 -0.2203  0.4344 -0.5043
 4381TIP3    H137338   1.252  -0.086  18.053  1.1432  0.5920 -1.0600
 4381TIP3    H237339   1.323   0.025  18.127 -0.2015  1.2794 -0.7739
 4382TIP3   OH237340   4.549   5.960  19.355  0.0656  0.0383 -0.8256
 4382TIP3    H137341   4.488   5.892  19.324  1.1908 -1.6912  0.5801
 4382TIP3    H237342   4.628   5.946  19.303  0.2311  0.4119 -0.6752
 4383TIP3   OH237343   7.327   2.121  17.780  0.3048 -0.5820 -0.2060
 4383TIP3    H137344   7.263   2.139  17.849  2.1212  0.2828  1.3459
 4383TIP3    H237345   7.306   2.033  17.751 -1.6961 -0.2604  0.0915
 4384TIP3   OH237346   3.617   3.147  17.689 -0.2314 -0.4037 -0.6724
 4384TIP3    H137347   3.646   3.123  17.777 -1.2325 -1.1813 -0.5366
 4384TIP3    H237348   3.689   3.198  17.653  0.4765 -0.6531  0.3505
 4385TIP3   OH237349   0.251   3.462  18.942 -0.2869  0.7188  0.1687
 4385TIP3    H137350   0.200   3.434  18.867 -0.9558 -1.0597  1.2219
 4385TIP3    H237351   0.186   3.486  19.008  0.2693  1.1225  0.5791
 4386TIP3   OH237352   1.237   7.089  18.394  0.3748 -0.1973 -0.0938
 4386TIP3    H137353   1.298   7.135  18.452  1.2235 -0.8142 -0.4877
 4386TIP3    H237354   1.290   7.066  18.317 -0.0344 -1.8159  0.0825
 4387TIP3   OH237355   6.850   1.001  17.722  0.2122  0.5938 -0.4678
 4387TIP3    H137356   6.878   0.979  17.810  1.1133 -0.3320 -0.9609
 4387TIP3    H237357   6.814   1.090  17.729  2.7054  1.6253  0.3487
 4388TIP3   OH237358   6.495   7.107  17.326  0.1338 -0.1212 -0.1862
 4388TIP3    H137359   6.400   7.097  17.314  0.2136  1.1996 -2.3972
 4388TIP3    H237360   6.503   7.150  17.412 -1.4360  1.6155 -0.8295
 4389TIP3   OH237361   0.387   7.514  17.317  0.5001  0.3238 -0.1554
 4389TIP3    H137362   0.371   7.433  17.364 -1.8735 -0.2823 -1.8321
 4389TIP3    H237363   0.457   7.493  17.256  1.7812  0.3808  1.2341
 4390TIP3   OH237364   3.390   4.575  19.426 -0.0779  0.4254 -0.1025
 4390TIP3    H137365   3.437   4.590  19.508  2.1929 -1.0679 -1.0244
 4390TIP3    H237366   3.384   4.480  19.418  0.5447  0.4876 -2.0128
 4391TIP3   OH237367   1.493   7.172  17.959  0.3981  0.4854 -0.5243
 4391TIP3    H137368   1.445   7.204  17.883  0.0924  0.5432 -0.3073
 4391TIP3    H237369   1.462   7.083  17.972  0.5967  0.4053 -0.5855
 4392TIP3   OH237370   5.678   2.271  18.115 -0.1609  0.0012 -0.1388
 4392TIP3    H137371   5.649   2.218  18.188  0.9914  0.0726  0.3846
 4392TIP3    H237372   5.603   2.328  18.095 -0.0484  0.9057  1.8416
 4393TIP3   OH237373   3.862   1.490  17.890  0.9064 -0.0010 -0.1819
 4393TIP3    H137374   3.915   1.507  17.968 -1.2717  0.1623  1.3428
 4393TIP3    H237375   3.878   1.398  17.870  0.9724 -0.2357  0.8869
 4394TIP3   OH237376   3.947   2.000  19.559 -0.0309  0.0897  0.5266
 4394TIP3    H137377   4.037   2.017  19.529 -0.6768  0.8004 -1.1017
 4394TIP3    H237378   3.929   1.910  19.531 -0.1903  0.3139 -0.0986
 4395TIP3   OH237379   3.194   1.877  17.661 -0.0738  0.4919  0.6873
 4395TIP3    H137380   3.117   1.935  17.663  0.2922  0.9871  0.5354
 4395TIP3    H237381   3.234   1.886  17.747  0.7152  1.4741  0.2374
 4396TIP3   OH237382   6.671   6.599  18.718 -0.2121 -0.3542  0.0409
 4396TIP3    H137383   6.622   6.681  18.706 -0.7051 -0.6879 -0.2983
 4396TIP3    H237384   6.637   6.562  18.799  0.2525 -0.0577  0.3717
 4397TIP3   OH237385   5.643   2.924  17.569  0.5474 -0.4117 -0.0452
 4397TIP3    H137386   5.715   2.937  17.508  0.8538 -0.6350  0.2733
 4397TIP3    H237387   5.581   2.994  17.547  1.4466  0.6070  0.5563
 4398TIP3   OH237388   5.439   5.378  16.985 -0.2305  0.0934 -0.0407
 4398TIP3    H137389   5.427   5.402  16.893 -0.9225 -0.3590 -0.0803
 4398TIP3    H237390   5.497   5.302  16.983 -0.7566 -0.3118 -0.1555
 4399TIP3   OH237391   1.487   4.341  18.042  0.0496  0.0624 -0.1259
 4399TIP3    H137392   1.483   4.428  18.004  1.6264 -0.0266 -0.5592
 4399TIP3    H237393   1.578   4.313  18.031 -0.2752 -1.4011  0.5341
 4400TIP3   OH237394   2.445   6.117  17.232 -0.3139 -0.5427 -0.2781
 4400TIP3    H137395   2.364   6.164  17.212  0.6412  1.1183 -0.4864
 4400TIP3    H237396   2.484   6.099  17.146  0.5217  0.5639 -0.1647
 4401TIP3   OH237397   0.916   3.044  18.202 -0.4157 -0.5609 -0.2661
 4401TIP3    H137398   0.918   3.074  18.111 -0.0021 -2.4247 -0.9293
 4401TIP3    H237399   0.885   2.953  18.196 -0.5743 -0.6549  1.4790
 4402TIP3   OH237400   0.617   1.260  17.417 -0.5178 -0.4230  0.2945
 4402TIP3    H137401   0.629   1.271  17.511 -1.2510 -0.9163  0.4525
 4402TIP3    H237402   0.668   1.183  17.394 -0.6804 -0.5519  0.3649
 4403TIP3   OH237403   0.123   0.823  18.814 -0.2768 -0.8675  0.2620
 4403TIP3    H137404   0.092   0.783  18.732  0.3798  0.3791 -0.6302
 4403TIP3    H237405   0.102   0.759  18.881 -3.9328 -0.5239 -0.3736
 4404TIP3   OH237406   2.228   0.710  18.326  0.0367  0.5938 -0.2650
 4404TIP3    H137407   2.139   0.744  18.335  0.3822  1.4307  0.1574
 4404TIP3    H237408   2.227   0.660  18.244 -0.2686  2.4632 -1.4648
 4405TIP3   OH237409   5.285   7.211  19.244  0.1020 -0.3409 -0.2606
 4405TIP3    H137410   5.373   7.194  19.279  0.3484 -0.9184 -1.1130
 4405TIP3    H237411   5.301   7.263  19.165 -0.4155  0.6089  0.2486
 4406TIP3   OH237412   0.634   3.898  17.945  0.3881  0.0908  0.4730
 4406TIP3    H137413   0.697   3.902  18.018 -0.8675  1.4969  1.5325
 4406TIP3    H237414   0.682   3.933  17.870  0.9646  0.8768  1.1920
 4407TIP3   OH237415   4.993   6.428  17.541  0.1492 -0.2915  0.0776
 4407TIP3    H137416   5.013   6.449  17.632  0.8130  0.1714 -0.1730
 4407TIP3    H237417   4.906   6.388  17.545  0.0398  0.0029  0.8788
 4408TIP3   OH237418   2.025   2.949  19.053  0.2066 -0.3011  0.2297
 4408TIP3    H137419   1.976   2.985  19.127  1.2966 -0.0238  0.8545
 4408TIP3    H237420   2.086   3.019  19.028  0.8244 -0.9014  0.0089
 4409TIP3   OH237421   3.827   5.217  17.475 -0.9525 -0.1177  0.4398
 4409TIP3    H137422   3.888   5.288  17.455 -0.5617 -0.6339 -0.1916
 4409TIP3    H237423   3.803   5.180  17.390 -0.4801 -1.3108  0.8128
 4410TIP3   OH237424   0.740   0.905  19.199  0.1039 -0.0258 -0.5815
 4410TIP3    H137425   0.830   0.912  19.231 -0.8056  0.3982  2.1002
 4410TIP3    H237426   0.725   0.810  19.191  0.7218 -0.1005 -0.9698
 4411TIP3   OH237427   0.665   2.468  19.353  0.5505  0.3371  0.1138
 4411TIP3    H137428   0.759   2.448  19.345  0.3040 -0.8877  0.1349
 4411TIP3    H237429   0.649   2.469  19.447  0.2065 -1.2016  0.0966
 4412TIP3   OH237430   2.224   7.526  18.262 -0.3135  0.2759 -0.7084
 4412TIP3    H137431   2.260   7.448  18.221 -1.4484 -0.7043  0.0749
 4412TIP3    H237432   2.293   7.557  18.321  0.1662 -0.0860 -1.0753
 4413TIP3   OH237433   5.469   3.760  18.547 -0.0147 -0.1270 -0.1206
 4413TIP3    H137434   5.482   3.723  18.459 -0.8920 -1.0718  0.1197
 4413TIP3    H237435   5.547   3.813  18.563  0.4666 -0.4741 -1.2083
 4414TIP3   OH237436   6.804   5.493  19.514 -0.7400 -0.5278 -0.1381
 4414TIP3    H137437   6.709   5.502  19.512 -0.7885 -1.0273 -0.1893
 4414TIP3    H237438   6.836   5.553  19.447 -1.1328 -1.7336 -1.4745
 4415TIP3   OH237439   4.791   2.465  17.090 -0.4698  1.0367  0.3835
 4415TIP3    H137440   4.712   2.497  17.047 -2.2210 -0.7161  2.0595
 4415TIP3    H237441   4.769   2.467  17.183  0.7969 -1.0969  0.7811
 4416TIP3   OH237442   6.744   3.614  17.251  0.0262 -0.5433  0.7554
 4416TIP3    H137443   6.793   3.643  17.328 -0.7119 -3.4480  2.4695
 4416TIP3    H237444   6.799   3.547  17.211 -0.4068 -0.3535 -0.1890
 4417TIP3   OH237445   4.978   4.484  18.638  0.1824  0.0574 -0.6405
 4417TIP3    H137446   5.011   4.425  18.705  0.7738  0.0410 -0.9396
 4417TIP3    H237447   5.042   4.479  18.567 -1.0638 -0.9111 -1.7626
 4418TIP3   OH237448   6.047   7.494  17.965 -0.0605 -0.4902 -0.1883
 4418TIP3    H137449   6.009   7.436  18.031 -2.2318 -0.4335 -1.2951
 4418TIP3    H237450   6.070   7.574  18.013 -1.8072 -0.3633  0.5109
 4419TIP3   OH237451   7.576   5.995  17.385  0.0748 -0.0823  0.4599
 4419TIP3    H137452   7.643   6.049  17.427  0.0620  0.2031  0.1108
 4419TIP3    H237453   7.494   6.041  17.402 -0.0930 -0.6371  1.2362
 4420TIP3   OH237454   4.104   3.326  18.952 -0.1984  0.3384  0.7171
 4420TIP3    H137455   4.104   3.230  18.956 -0.1515  0.3093  0.1249
 4420TIP3    H237456   4.015   3.351  18.975 -0.0361  0.1895  1.5389
 4421TIP3   OH237457   2.133   0.757  16.668  0.1720  0.6496  0.2721
 4421TIP3    H137458   2.098   0.812  16.738  1.5924  2.4662 -0.3778
 4421TIP3    H237459   2.099   0.796  16.588 -0.8610 -0.9889 -0.1566
 4422TIP3   OH237460   2.079   6.329  17.733 -0.2051 -0.1219  0.0430
 4422TIP3    H137461   2.022   6.278  17.791  0.5239  0.8630  1.6942
 4422TIP3    H237462   2.149   6.360  17.790  0.4159  1.0994 -1.3352
 4423TIP3   OH237463   0.728   0.166  19.640  0.0220 -0.1886 -0.0830
 4423TIP3    H137464   0.707   0.104  19.709  0.1665 -1.3383 -1.0458
 4423TIP3    H237465   0.818   0.193  19.659  0.6312 -1.6921 -0.6589
 4424TIP3   OH237466   1.218   1.798  18.266 -0.8283  0.1371 -0.3359
 4424TIP3    H137467   1.279   1.774  18.336 -0.3770  2.0928  0.0040
 4424TIP3    H237468   1.131   1.780  18.303 -0.5379 -0.3488  0.1240
 4425TIP3   OH237469   0.130   5.486  18.698 -0.2447 -0.3068 -0.5241
 4425TIP3    H137470   0.214   5.527  18.675 -1.4873  3.8459  1.3908
 4425TIP3    H237471   0.064   5.540  18.654 -2.0258 -0.1254  2.1238
 4426TIP3   OH237472   0.130   4.226  18.874  0.3976  0.3364 -0.1268
 4426TIP3    H137473   0.184   4.176  18.935  2.1202  0.4119 -1.5117
 4426TIP3    H237474   0.040   4.196  18.891  1.0262 -0.8568  1.2653
 4427TIP3   OH237475   5.939   1.229  18.893 -0.2812 -0.1565 -0.0356
 4427TIP3    H137476   5.952   1.324  18.897 -0.3531 -0.1792  0.8962
 4427TIP3    H237477   5.956   1.198  18.982  3.0320 -1.4844 -0.9794
 4428TIP3   OH237478   1.092   0.378  18.372 -0.2401 -0.3575  0.0355
 4428TIP3    H137479   1.186   0.361  18.362  0.0884  1.7646 -1.0734
 4428TIP3    H237480   1.060   0.385  18.282 -1.2427  0.0993  0.4146
 4429TIP3   OH237481   4.319   6.407  18.213 -0.5282 -0.0401 -0.2563
 4429TIP3    H137482   4.248   6.451  18.259 -0.8411  1.0001 -1.6749
 4429TIP3    H237483   4.275   6.357  18.144  0.0813  0.1993 -0.8209
 4430TIP3   OH237484   0.634   5.950  17.466 -0.2387 -0.5922  0.1281
 4430TIP3    H137485   0.578   6.028  17.463  0.1330 -0.2957  0.7253
 4430TIP3    H237486   0.711   5.978  17.515 -0.1309 -1.3513  0.4027
 4431TIP3   OH237487   4.400   3.132  17.022 -0.0641  0.4792 -0.6741
 4431TIP3    H137488   4.477   3.104  16.971  0.4403 -0.2924  0.4523
 4431TIP3    H237489   4.336   3.159  16.956  0.2440 -1.2987 -1.7712
 4432TIP3   OH237490   0.342   7.031  19.322 -0.2440 -0.3755  0.5638
 4432TIP3    H137491   0.379   7.090  19.256 -0.5788 -1.8073 -0.9699
 4432TIP3    H237492   0.308   7.089  19.390  2.5318  1.1003  0.8577
 4433TIP3   OH237493   7.059   4.764  17.679 -0.1114  0.0532 -0.0964
 4433TIP3    H137494   6.986   4.726  17.728 -0.0094 -0.4990 -0.3620
 4433TIP3    H237495   7.120   4.794  17.747 -1.4509  2.3794  0.2110
 4434TIP3   OH237496   2.709   0.240  18.259 -0.5796  0.2357  0.1292
 4434TIP3    H137497   2.739   0.328  18.238 -1.5575  0.0173 -2.4366
 4434TIP3    H237498   2.789   0.193  18.284  0.0392  1.6315  0.9003
 4435TIP3   OH237499   5.810   0.938  17.395  0.8122  0.4504 -0.1603
 4435TIP3    H137500   5.883   0.980  17.440  1.6057 -1.7227  0.7069
 4435TIP3    H237501   5.735   0.952  17.453  1.7923 -2.1935  1.9637
 4436TIP3   OH237502   4.613   1.422  19.841  0.2160 -0.1392  0.2469
 4436TIP3    H137503   4.543   1.458  19.895 -1.5614 -1.8380 -0.7631
 4436TIP3    H237504   4.604   1.466  19.757 -0.0185 -0.7378 -0.0519
 4437TIP3   OH237505   2.931   3.404  17.158 -0.1703 -0.5061  0.1285
 4437TIP3    H137506   2.843   3.372  17.175 -0.5790  0.8306  0.7104
 4437TIP3    H237507   2.972   3.409  17.245  0.1462 -0.2436 -0.0325
 4438TIP3   OH237508   3.412   1.014  17.830 -0.2459 -0.0090  0.0865
 4438TIP3    H137509   3.455   0.955  17.769  1.9841  0.9322  0.6558
 4438TIP3    H237510   3.345   0.960  17.873 -0.8155 -1.0861 -2.0051
 4439TIP3   OH237511   4.230   7.092  18.040  0.5302 -0.0043  0.7241
 4439TIP3    H137512   4.307   7.080  17.985  0.1220  1.0504 -0.1072
 4439TIP3    H237513   4.159   7.050  17.992 -0.1820  2.3734 -0.4908
 4440TIP3   OH237514   3.154   5.757  18.231 -0.1588  0.1590 -0.5194
 4440TIP3    H137515   3.150   5.667  18.264  0.1567  0.6856  1.0474
 4440TIP3    H237516   3.104   5.808  18.295  1.6930  1.4523 -0.0223
 4441TIP3   OH237517   5.834   2.554  18.500  0.0102  0.4655 -0.1992
 4441TIP3    H137518   5.810   2.646  18.511 -2.3950  0.3082 -2.9716
 4441TIP3    H237519   5.810   2.534  18.409 -0.2200 -3.0822  0.5205
 4442TIP3   OH237520   7.113   7.062  17.056  0.5963  0.2941  0.2664
 4442TIP3    H137521   7.163   7.012  16.991  2.2452  1.9576  0.1621
 4442TIP3    H237522   7.078   7.136  17.007 -1.0364 -0.2071  0.6098
 4443TIP3   OH237523   6.909   3.921  17.276 -0.4051 -0.2037  0.1649
 4443TIP3    H137524   6.963   3.904  17.199  1.4466 -1.0143  1.5701
 4443TIP3    H237525   6.937   4.008  17.306 -0.3609 -0.3467  0.5372
 4444TIP3   OH237526   4.184   1.866  19.724 -0.1770 -0.1897  0.4736
 4444TIP3    H137527   4.108   1.920  19.703  0.8667  0.5328 -1.8386
 4444TIP3    H237528   4.259   1.921  19.699  0.9830 -2.1099 -0.4488
 4445TIP3   OH237529   5.749   5.905  18.126  0.0339  0.2234 -0.6496
 4445TIP3    H137530   5.658   5.882  18.106  0.1378  0.6915 -1.7404
 4445TIP3    H237531   5.742   5.980  18.185 -0.3127  0.9123 -1.5285
 4446TIP3   OH237532   3.113   0.857  18.971  0.2595 -0.1285  0.6457
 4446TIP3    H137533   3.066   0.798  19.029 -0.2631 -1.9221 -1.4597
 4446TIP3    H237534   3.203   0.824  18.970 -0.1161 -1.2346 -0.8262
 4447TIP3   OH237535   0.910   2.862  17.804 -0.0067  0.2818 -0.4906
 4447TIP3    H137536   0.912   2.946  17.851  0.3563 -0.5914  1.1240
 4447TIP3    H237537   0.823   2.827  17.821  0.4853 -0.5218  0.4480
 4448TIP3   OH237538   5.384   1.148  17.306 -0.4315 -0.5654  0.1715
 4448TIP3    H137539   5.438   1.217  17.344  0.9598 -0.0500 -2.5116
 4448TIP3    H237540   5.434   1.116  17.232 -2.6499 -1.9834 -0.8356
 4449TIP3   OH237541   6.661   3.354  18.776 -1.0874 -0.3439 -0.1925
 4449TIP3    H137542   6.730   3.398  18.726 -1.8381  0.7522 -0.3215
 4449TIP3    H237543   6.622   3.293  18.714  0.8525 -2.2531  0.3766
 4450TIP3   OH237544   4.758   5.283  18.230 -0.1127 -0.2882  0.4943
 4450TIP3    H137545   4.767   5.315  18.140 -1.2297  1.1534  0.8533
 4450TIP3    H237546   4.787   5.192  18.226  1.6256  0.2715 -0.9327
 4451TIP3   OH237547   1.152   4.185  18.546 -0.1260 -0.6705  0.4705
 4451TIP3    H137548   1.220   4.186  18.479  1.8453 -0.7491  2.3394
 4451TIP3    H237549   1.111   4.272  18.541  0.9196 -0.1940  0.0560
 4452TIP3   OH237550   0.979   7.210  18.441 -0.1980 -0.1376 -0.3535
 4452TIP3    H137551   1.032   7.133  18.419 -0.0603 -0.4756  1.0453
 4452TIP3    H237552   1.017   7.281  18.389  0.2714 -0.8251 -0.9682
 4453TIP3   OH237553   4.540   1.335  16.722  0.2889  0.2232  0.3353
 4453TIP3    H137554   4.469   1.379  16.674  1.3596 -0.1844 -1.7198
 4453TIP3    H237555   4.559   1.257  16.670  2.6021  0.6010  0.5103
 4454TIP3   OH237556   0.025   6.673  19.149 -0.0195  0.0672 -0.4382
 4454TIP3    H137557  -0.064   6.639  19.161  0.8028 -2.9031 -1.7847
 4454TIP3    H237558   0.037   6.674  19.054  1.4674  0.1545 -0.2675
 4455TIP3   OH237559   6.782   2.230  17.825 -0.0109  0.6166  0.3021
 4455TIP3    H137560   6.725   2.200  17.754  0.4691  1.4635 -0.4644
 4455TIP3    H237561   6.769   2.325  17.827  0.2976  0.6463  1.0704
 4456TIP3   OH237562   2.275   6.431  17.895 -0.1513  0.3954  0.1994
 4456TIP3    H137563   2.339   6.376  17.850 -1.2438 -1.1379  0.4529
 4456TIP3    H237564   2.305   6.434  17.986 -1.3190 -1.8234  0.7324
 4457TIP3   OH237565   4.488   5.631  17.478 -0.9182 -0.1515  0.2405
 4457TIP3    H137566   4.471   5.581  17.398 -2.2029 -0.5738  0.7447
 4457TIP3    H237567   4.584   5.633  17.485 -0.7559  0.5541 -1.6872
 4458TIP3   OH237568   5.894   2.336  19.181  0.0894 -0.3317 -0.0036
 4458TIP3    H137569   5.980   2.339  19.221 -0.9094  1.4715  2.1876
 4458TIP3    H237570   5.841   2.282  19.240 -1.1526  1.5273  0.6706
 4459TIP3   OH237571   0.376   0.792  16.863 -0.5709  0.5354 -0.9476
 4459TIP3    H137572   0.412   0.777  16.776 -2.1046 -1.1627 -1.3349
 4459TIP3    H237573   0.304   0.854  16.849  0.3026  1.6586 -0.5979
 4460TIP3   OH237574   0.277   5.727  17.082  0.3096  0.1724 -0.1115
 4460TIP3    H137575   0.300   5.634  17.094 -1.5794 -0.2464  0.6571
 4460TIP3    H237576   0.347   5.775  17.126 -0.2710 -1.0296  2.3306
 4461TIP3   OH237577   6.420   4.303  19.619  0.3550 -0.1211 -0.1805
 4461TIP3    H137578   6.347   4.299  19.681 -0.7672 -0.4695 -1.4525
 4461TIP3    H237579   6.497   4.322  19.672 -0.8029  1.1813  1.1063
 4462TIP3   OH237580   4.350   2.958  17.561  0.1786 -0.0629  0.1612
 4462TIP3    H137581   4.415   2.966  17.491  0.7644  1.4074  0.8231
 4462TIP3    H237582   4.291   2.889  17.532  0.6065  0.2844 -1.6182
 4463TIP3   OH237583   4.142   4.575  17.530  0.7330  0.4859 -0.0946
 4463TIP3    H137584   4.187   4.554  17.612  0.5567 -0.0889 -0.1385
 4463TIP3    H237585   4.089   4.497  17.512 -0.1812  1.0899 -0.1086
 4464TIP3   OH237586   4.839   3.253  18.935  0.5537 -0.4371 -0.9029
 4464TIP3    H137587   4.799   3.189  18.993  1.9092 -1.0589 -0.6034
 4464TIP3    H237588   4.867   3.202  18.859  0.3549  0.0569 -1.3097
 4465TIP3   OH237589   0.506   7.247  17.999  0.6370 -0.2671 -0.1028
 4465TIP3    H137590   0.481   7.205  18.081 -0.7315  1.0216  0.1728
 4465TIP3    H237591   0.593   7.212  17.980  0.7148 -1.0573  1.5629
 4466TIP3   OH237592   4.044   0.979  18.017  0.2280 -0.1942  0.0310
 4466TIP3    H137593   4.035   0.890  18.051  0.5390 -0.1937  0.1131
 4466TIP3    H237594   4.123   0.977  17.964 -0.4236 -0.2851 -0.9778
 4467TIP3   OH237595   5.754   5.627  18.758  0.0818 -0.1351 -0.4595
 4467TIP3    H137596   5.794   5.582  18.832 -0.2153  0.1807 -0.1086
 4467TIP3    H237597   5.675   5.578  18.739 -0.2306  0.2153 -0.0910
 4468TIP3   OH237598   0.593   2.273  17.738  0.1316 -0.0625  0.0070
 4468TIP3    H137599   0.615   2.206  17.802  0.1146 -0.0868 -0.0127
 4468TIP3    H237600   0.508   2.246  17.703  0.1443 -0.0533 -0.0320
 4469TIP3   OH237601   1.852   3.919  19.413  0.0467  0.0199  0.0005
 4469TIP3    H137602   1.904   3.889  19.339  0.9985  0.4957  0.4594
 4469TIP3    H237603   1.900   3.889  19.490 -0.2031  0.7122  0.4391
 4470TIP3   OH237604   3.810   7.051  16.941 -0.1988  0.8795 -0.4769
 4470TIP3    H137605   3.720   7.085  16.946 -0.3864  0.6075 -1.7904
 4470TIP3    H237606   3.843   7.083  16.857  0.7958  0.6156 -0.1966
 4471TIP3   OH237607   6.342   5.760  17.906  0.1244 -0.6300  0.1142
 4471TIP3    H137608   6.249   5.739  17.897 -0.6487  1.1702  2.7258
 4471TIP3    H237609   6.364   5.807  17.826 -1.7132  0.3911  0.1545
 4472TIP3   OH237610   4.248   4.658  17.816 -0.0839 -0.0597 -0.1692
 4472TIP3    H137611   4.320   4.596  17.825  1.8353  2.2365  1.6372
 4472TIP3    H237612   4.184   4.631  17.882  0.4882 -0.4194  0.2411
 4473TIP3   OH237613   1.153   6.299  19.029 -0.4452  0.3767 -0.0262
 4473TIP3    H137614   1.242   6.293  18.995 -0.2573 -0.6907  0.6017
 4473TIP3    H237615   1.099   6.321  18.953  0.1737 -0.3235 -0.6835
 4474TIP3   OH237616   1.530   5.523  19.109  0.1784 -0.2734 -0.0162
 4474TIP3    H137617   1.533   5.539  19.203  0.5875  0.4101 -0.1386
 4474TIP3    H237618   1.615   5.553  19.077  0.0583 -0.5462 -0.5932
 4475TIP3   OH237619   0.781   3.611  17.952 -0.3482 -0.3463  0.8117
 4475TIP3    H137620   0.843   3.680  17.928  0.2941 -0.3914  2.2190
 4475TIP3    H237621   0.740   3.586  17.870  1.2950 -0.1101 -0.1348
 4476TIP3   OH237622   5.216   6.218  17.698  0.4051  0.1322  0.0905
 4476TIP3    H137623   5.171   6.302  17.713 -1.3485 -0.4594 -1.4839
 4476TIP3    H237624   5.191   6.164  17.772 -1.3583 -0.1026 -0.6319
 4477TIP3   OH237625   3.111   4.264  18.110 -0.5456  0.0521  0.0332
 4477TIP3    H137626   3.146   4.264  18.199  0.5680  1.3805 -0.3679
 4477TIP3    H237627   3.017   4.258  18.121 -0.5588  2.0235  1.4097
 4478TIP3   OH237628   0.005   5.740  19.206 -0.6585  0.3175  0.9830
 4478TIP3    H137629   0.044   5.769  19.124 -2.0964  3.0355  1.1578
 4478TIP3    H237630   0.043   5.797  19.272 -1.4637 -0.0740  1.8004
 4479TIP3   OH237631   4.339   5.710  17.753  0.2268  0.1158 -0.1457
 4479TIP3    H137632   4.254   5.736  17.787  0.0211 -0.1421 -0.4544
 4479TIP3    H237633   4.349   5.760  17.672  0.0764 -0.3333 -0.4491
 4480TIP3   OH237634   6.398   0.070  17.504  0.1093  0.4678  0.0013
 4480TIP3    H137635   6.403   0.079  17.599  1.0465 -0.9778  0.1184
 4480TIP3    H237636   6.309   0.038  17.487 -0.4902  1.9304  0.2529
 4481TIP3   OH237637   6.286   5.419  18.885 -0.5661  0.0771  0.1130
 4481TIP3    H137638   6.272   5.357  18.814  0.9417 -0.4083  0.1979
 4481TIP3    H237639   6.302   5.503  18.841 -0.2662 -0.0871 -0.0877
 4482TIP3   OH237640   2.697   7.086  17.549  0.1363 -0.4597 -0.0450
 4482TIP3    H137641   2.670   7.146  17.480  0.2801 -0.7791 -0.3825
 4482TIP3    H237642   2.743   7.015  17.504 -0.4006 -1.0419  0.2930
 4483TIP3   OH237643   2.517   5.855  17.792 -0.0298 -0.1324 -0.2031
 4483TIP3    H137644   2.470   5.773  17.811 -0.5775  0.3538  0.6061
 4483TIP3    H237645   2.481   5.883  17.708  1.0336 -1.3261 -1.0962
 4484TIP3   OH237646   2.777   3.410  18.362 -0.4051 -0.4419 -0.1503
 4484TIP3    H137647   2.781   3.316  18.343 -0.8320 -0.3389 -0.7701
 4484TIP3    H237648   2.791   3.452  18.277 -0.4381  0.0519  0.0873
 4485TIP3   OH237649   3.600   3.748  17.663 -0.1880 -0.0609  0.5012
 4485TIP3    H137650   3.672   3.719  17.720 -0.4905 -0.3605  0.7348
 4485TIP3    H237651   3.558   3.818  17.713 -0.3831 -0.2469  0.6023
 4486TIP3   OH237652   6.082   1.354  19.420  0.7688  0.2974 -0.0590
 4486TIP3    H137653   6.066   1.427  19.361 -0.3695  1.0828  1.1519
 4486TIP3    H237654   6.122   1.394  19.498  0.8157 -0.4788  0.3286
 4487TIP3   OH237655   2.539   2.886  18.195  0.2501  0.4005 -0.1240
 4487TIP3    H137656   2.532   2.805  18.144  2.1004  1.0521 -1.5335
 4487TIP3    H237657   2.518   2.956  18.133 -0.1399  1.0913  0.7567
 4488TIP3   OH237658   6.080   6.422  17.769  0.3463 -0.2475  0.5131
 4488TIP3    H137659   6.133   6.484  17.820 -0.6302  0.3619  0.8129
 4488TIP3    H237660   6.100   6.337  17.807  0.0135  0.1382  1.5974
 4489TIP3   OH237661   1.029   5.308  17.969 -0.1473 -0.3445  0.2267
 4489TIP3    H137662   0.961   5.339  18.028 -0.7843 -0.1213 -0.6022
 4489TIP3    H237663   0.986   5.241  17.916  0.0117  0.4023 -0.8848
 4490TIP3   OH237664   0.607   5.963  19.475 -0.6127 -0.1522 -0.1059
 4490TIP3    H137665   0.689   5.970  19.524 -1.0736  0.2642  0.6282
 4490TIP3    H237666   0.583   5.871  19.481 -0.1717 -0.2857 -0.3685
 4491TIP3   OH237667   2.179   6.139  19.598  0.7199 -0.2828  0.3617
 4491TIP3    H137668   2.204   6.226  19.566  0.2878 -0.3989 -0.3204
 4491TIP3    H237669   2.205   6.139  19.690 -0.9189  1.2188  0.8693
 4492TIP3   OH237670   0.511   4.981  18.335 -0.1920  0.4386 -0.0111
 4492TIP3    H137671   0.438   5.026  18.292 -0.0151 -1.2230 -2.1883
 4492TIP3    H237672   0.486   4.979  18.428 -3.6480 -1.3204 -0.8237
 4493TIP3   OH237673   5.007   5.114  19.396 -0.9883 -0.1862  0.9673
 4493TIP3    H137674   5.074   5.137  19.460 -0.4791  1.6253 -0.1535
 4493TIP3    H237675   5.030   5.026  19.366  2.4139  1.2505 -1.1711
 4494TIP3   OH237676   2.557   1.347  18.466 -0.1253 -0.0975  0.0978
 4494TIP3    H137677   2.466   1.358  18.495  0.2300  0.9048  0.9292
 4494TIP3    H237678   2.597   1.433  18.480  0.9945 -0.5626 -0.1051
 4495TIP3   OH237679   3.978   1.736  18.736  0.5970 -0.0226  0.5218
 4495TIP3    H137680   4.031   1.781  18.671  0.1951  0.2533  0.3848
 4495TIP3    H237681   3.943   1.659  18.691 -2.3760  1.8384 -0.6618
 4496TIP3   OH237682   3.795   1.490  16.988  0.0407 -0.2546 -0.0611
 4496TIP3    H137683   3.819   1.580  16.967  0.5652 -0.1050  1.1306
 4496TIP3    H237684   3.777   1.491  17.082  2.2382 -1.8354  0.4576
 4497TIP3   OH237685   1.735   6.656  19.265 -0.1523 -0.2202 -0.5146
 4497TIP3    H137686   1.784   6.630  19.342 -0.5444  1.4123  0.3449
 4497TIP3    H237687   1.674   6.584  19.250 -0.6455 -0.2180  1.2302
 4498TIP3   OH237688   0.220   3.634  17.028 -0.0479  0.3703 -0.0862
 4498TIP3    H137689   0.287   3.569  17.009 -2.1948 -2.1695  0.4733
 4498TIP3    H237690   0.161   3.630  16.952 -0.1657  1.7970 -0.1027
 4499TIP3   OH237691   6.203   4.698  17.853 -0.2055  0.0213 -0.1481
 4499TIP3    H137692   6.246   4.767  17.803  0.1654 -0.1234 -0.0351
 4499TIP3    H237693   6.273   4.661  17.908 -0.7998  0.8391  1.2181
 4500TIP3   OH237694   3.638   5.937  18.208 -0.2764  0.0587  0.6660
 4500TIP3    H137695   3.543   5.927  18.200 -0.2589 -0.3422  0.9241
 4500TIP3    H237696   3.652   6.031  18.202 -0.6139  0.0659 -0.1657
 4501TIP3   OH237697   3.041   2.349  19.232  0.5002  0.1870 -0.2849
 4501TIP3    H137698   2.968   2.405  19.257  1.4736  1.1236  0.6124
 4501TIP3    H237699   3.024   2.266  19.275  0.6428  0.8489  1.1164
 4502TIP3   OH237700   2.088   7.531  16.825 -0.0456  0.3403  0.0508
 4502TIP3    H137701   2.138   7.482  16.890 -1.6073 -0.5054  0.6648
 4502TIP3    H237702   2.111   7.491  16.741  1.6305  1.1356  0.1002
 4503TIP3   OH237703   2.185   5.242  18.279  0.1652  0.2951  0.1235
 4503TIP3    H137704   2.266   5.289  18.260 -0.0923  0.7083  0.0366
 4503TIP3    H237705   2.116   5.295  18.239 -0.0307 -0.7560 -0.9906
 4504TIP3   OH237706   0.115   4.248  19.210 -0.4275 -0.1907  0.1440
 4504TIP3    H137707   0.037   4.301  19.226 -1.3891 -1.8952  1.4447
 4504TIP3    H237708   0.082   4.158  19.203  1.3943 -0.9463  0.6334
 4505TIP3   OH237709   7.376   7.455  17.399 -1.4921 -0.3313 -0.1962
 4505TIP3    H137710   7.375   7.382  17.337 -1.9239 -1.4636  1.0920
 4505TIP3    H237711   7.343   7.530  17.349 -0.8094 -0.9494 -1.6146
 4506TIP3   OH237712   6.897   3.342  18.505 -0.0995 -0.2255  0.0688
 4506TIP3    H137713   6.849   3.408  18.456 -0.0077  0.0335  0.3265
 4506TIP3    H237714   6.915   3.273  18.441 -0.4193 -0.1200 -0.1369
 4507TIP3   OH237715   1.254   6.785  16.238 -0.1897 -0.2174 -0.5141
 4507TIP3    H137716   1.195   6.710  16.248 -0.4938 -0.0430 -0.9401
 4507TIP3    H237717   1.340   6.753  16.264 -0.3995 -0.5915 -0.2777
 4508TIP3   OH237718   0.896   6.401  18.193  0.3506 -0.1904  0.1009
 4508TIP3    H137719   0.863   6.452  18.267  0.4876  0.6158 -0.3828
 4508TIP3    H237720   0.912   6.314  18.229  0.4747  0.2063  1.0333
 4509TIP3   OH237721   0.403   2.557  18.910 -0.7960 -0.1793 -0.1487
 4509TIP3    H137722   0.475   2.534  18.969 -1.5113 -0.3733  0.6617
 4509TIP3    H237723   0.365   2.473  18.885 -2.2441 -0.0233  1.3501
 4510TIP3   OH237724   2.247   0.451  18.767  0.5939 -0.7286  0.5593
 4510TIP3    H137725   2.202   0.378  18.725 -0.0148  0.9177 -1.8871
 4510TIP3    H237726   2.290   0.497  18.695  3.6687 -0.4353  2.3984
 4511TIP3   OH237727   0.983   5.337  16.683 -0.5180  0.1609  0.1853
 4511TIP3    H137728   1.055   5.392  16.712  0.8118 -2.1985  1.6890
 4511TIP3    H237729   0.904   5.384  16.711  0.5149  1.4700  0.9975
 4512TIP3   OH237730   7.152   5.099  17.255 -0.4318  0.1709  0.1175
 4512TIP3    H137731   7.080   5.073  17.312 -0.0722  1.1495  1.0584
 4512TIP3    H237732   7.142   5.194  17.245  1.0455  0.4220  0.7337
 4513TIP3   OH237733   6.047   4.578  16.955 -0.3006 -0.4597  0.1581
 4513TIP3    H137734   6.083   4.643  17.015 -0.3730  0.1781 -0.4784
 4513TIP3    H237735   6.056   4.495  17.001 -1.2297  0.1297  1.4459
 4514TIP3   OH237736   4.447   6.725  17.489 -0.4613  0.4782 -0.2586
 4514TIP3    H137737   4.397   6.656  17.533 -0.5050  0.8120  0.2232
 4514TIP3    H237738   4.381   6.775  17.441 -0.6446  1.0757  0.5857
 4515TIP3   OH237739   7.308   1.856  17.701 -0.4317  0.7100  0.1445
 4515TIP3    H137740   7.401   1.839  17.716  0.0910  2.8265 -0.3865
 4515TIP3    H237741   7.286   1.800  17.625 -0.3840 -1.8867  1.9037
 4516TIP3   OH237742   6.831   1.140  17.402  0.6263  0.1427  0.1666
 4516TIP3    H137743   6.796   1.052  17.390  1.4325 -0.4141  1.5694
 4516TIP3    H237744   6.756   1.193  17.427  0.2685 -0.3373  0.1246
 4517TIP3   OH237745   4.467   1.516  17.756 -0.0014  0.5637  0.0258
 4517TIP3    H137746   4.391   1.474  17.716 -0.1348 -0.6206  1.4235
 4517TIP3    H237747   4.449   1.512  17.850  1.4704  0.9052  0.3361
 4518TIP3   OH237748   7.466   7.498  17.803  0.3143  0.2806  0.5176
 4518TIP3    H137749   7.470   7.430  17.736  0.2114 -0.6555  1.4318
 4518TIP3    H237750   7.524   7.466  17.872  0.5207  1.2904  0.8299
 4519TIP3   OH237751   7.172   5.111  19.073 -0.1029  0.3431  0.2664
 4519TIP3    H137752   7.120   5.119  18.993  0.1452 -0.3213  0.0289
 4519TIP3    H237753   7.133   5.175  19.133  1.1209  2.4906 -1.1092
 4520TIP3   OH237754   1.952   6.718  17.863 -0.5054  0.0587 -0.0837
 4520TIP3    H137755   1.871   6.676  17.892 -1.4547  1.3100 -0.8016
 4520TIP3    H237756   1.963   6.689  17.772  0.6984 -1.2881  0.4529
 4521TIP3   OH237757   1.801   6.949  17.978 -0.0915  0.1699  0.0685
 4521TIP3    H137758   1.804   7.038  17.943  2.2524  0.6636  1.3102
 4521TIP3    H237759   1.856   6.898  17.919 -1.1563 -0.4171 -0.4434
 4522TIP3   OH237760   6.254   4.128  17.500  0.0311  0.5077  0.5782
 4522TIP3    H137761   6.310   4.112  17.576 -0.0554  1.1762  0.7961
 4522TIP3    H237762   6.195   4.198  17.529  0.7471  1.5791 -0.4689
 4523TIP3   OH237763   5.626   3.797  17.973  0.0722 -0.3880 -0.1977
 4523TIP3    H137764   5.674   3.728  18.018  0.8543  0.0144 -0.3949
 4523TIP3    H237765   5.573   3.751  17.907  0.4133 -0.8126 -0.1767
 4524TIP3   OH237766   5.541   4.781  17.608 -0.1247  0.2058  0.2293
 4524TIP3    H137767   5.574   4.757  17.695 -0.6873 -2.7960 -0.2871
 4524TIP3    H237768   5.476   4.715  17.587  0.9272 -0.0047 -3.0360
 4525TIP3   OH237769   4.428   4.703  17.069 -0.4682  0.2434  0.0079
 4525TIP3    H137770   4.336   4.677  17.067 -0.8848  1.5786  0.8749
 4525TIP3    H237771   4.427   4.796  17.048  0.6858  0.2955  0.1176
 4526TIP3   OH237772   6.034   5.755  19.412  0.5903  0.4471  0.0604
 4526TIP3    H137773   5.977   5.831  19.418  0.5741  0.3808  0.7592
 4526TIP3    H237774   6.002   5.707  19.335  0.3885  0.9612 -0.1810
 4527TIP3   OH237775   6.034   7.317  19.365  0.0028  0.1273 -0.7225
 4527TIP3    H137776   6.020   7.232  19.323 -0.3247 -0.1771 -0.0016
 4527TIP3    H237777   6.129   7.331  19.359  0.4334 -1.4533  1.3314
 4528TIP3   OH237778   7.523   4.657  17.481 -0.0541  1.0666 -0.2632
 4528TIP3    H137779   7.439   4.657  17.527 -0.7897 -1.7051 -1.3770
 4528TIP3    H237780   7.575   4.591  17.527  0.2362  0.3143 -1.6249
 4529TIP3   OH237781   4.681   5.806  17.219 -0.1925  0.7618  0.6834
 4529TIP3    H137782   4.665   5.880  17.276  0.0718 -0.3974  2.3272
 4529TIP3    H237783   4.671   5.841  17.130  0.3814  2.8400  1.3890
 4530TIP3   OH237784   5.138   5.379  19.005 -0.1135  0.0836 -0.2040
 4530TIP3    H137785   5.213   5.403  19.059  0.3522 -0.2695 -0.6793
 4530TIP3    H237786   5.063   5.388  19.063  0.4494 -1.0515  0.7396
 4531TIP3   OH237787   6.801   4.398  19.273  0.1465 -0.5261  0.3708
 4531TIP3    H137788   6.798   4.427  19.182  1.8018  1.4774  0.8828
 4531TIP3    H237789   6.712   4.369  19.292 -0.9851  1.7353 -1.0620
 4532TIP3   OH237790   2.983   1.684  17.763 -0.1120 -0.0621  0.3166
 4532TIP3    H137791   3.021   1.628  17.831 -0.5963  0.8623  1.3869
 4532TIP3    H237792   3.057   1.734  17.729  0.2313 -0.9364 -0.2640
 4533TIP3   OH237793   1.625   7.455  19.753  0.3276 -0.3637 -0.0190
 4533TIP3    H137794   1.605   7.525  19.815  1.6891  0.7139 -0.7330
 4533TIP3    H237795   1.607   7.492  19.667 -0.3725 -1.4265 -0.3523
 4534TIP3   OH237796   2.935   2.999  17.513  0.2846  0.0805 -0.1628
 4534TIP3    H137797   2.974   2.924  17.470 -0.4886 -0.7931  0.6088
 4534TIP3    H237798   2.978   3.075  17.474 -0.7226 -0.6216 -2.7900
 4535TIP3   OH237799   7.096   7.057  18.084 -0.0654  0.3992 -0.1527
 4535TIP3    H137800   7.079   6.992  18.016  0.9638 -1.0443  0.8931
 4535TIP3    H237801   7.191   7.056  18.094 -0.1012  1.5139  0.4389
 4536TIP3   OH237802   1.604   1.271  18.015  0.0839  0.5894  0.6343
 4536TIP3    H137803   1.530   1.319  17.979  1.1399  1.3671 -0.6126
 4536TIP3    H237804   1.567   1.216  18.083 -1.6352  0.9272  0.0119
 4537TIP3   OH237805   0.438   3.593  19.118  0.1551  0.0346  0.1368
 4537TIP3    H137806   0.385   3.536  19.063  1.1017 -0.3792 -0.3802
 4537TIP3    H237807   0.482   3.651  19.056 -0.9512  1.5011  0.6576
 4538TIP3   OH237808   0.714   4.622  18.365 -0.0776  0.0142 -0.5533
 4538TIP3    H137809   0.690   4.676  18.289 -0.7767  0.2266 -0.1808
 4538TIP3    H237810   0.635   4.618  18.418  0.7322  0.8744  0.7769
 4539TIP3   OH237811   6.723   6.906  17.561  0.6513 -0.0296  0.3578
 4539TIP3    H137812   6.709   6.888  17.653 -2.8568  0.2384  0.0107
 4539TIP3    H237813   6.712   7.001  17.553 -3.2909 -0.3954 -0.7240
 4540TIP3   OH237814   3.566   2.770  17.327 -0.3835  0.3643  1.1325
 4540TIP3    H137815   3.574   2.794  17.419  0.6403 -0.6341  1.3256
 4540TIP3    H237816   3.634   2.822  17.282  0.9663 -1.1213  1.3667
 4541TIP3   OH237817   0.735   2.625  18.006  0.6586 -0.0451 -0.8432
 4541TIP3    H137818   0.682   2.545  18.004  1.5799 -0.7447  0.5488
 4541TIP3    H237819   0.673   2.696  17.992 -0.6528 -0.8304  0.6815
 4542TIP3   OH237820   6.643   7.606  18.049 -0.2438  0.4098 -0.4269
 4542TIP3    H137821   6.645   7.602  18.145 -1.8297 -1.2801 -0.4211
 4542TIP3    H237822   6.587   7.682  18.030 -4.0471 -1.9878  0.1506
 4543TIP3   OH237823   7.071   6.111  17.188 -0.0707 -0.7682 -0.0311
 4543TIP3    H137824   7.142   6.072  17.136 -1.0221 -0.6244 -1.5217
 4543TIP3    H237825   7.075   6.204  17.166 -0.2939 -0.6547  0.4152
 4544TIP3   OH237826   6.219   3.006  18.787  0.0373  0.3106  0.5079
 4544TIP3    H137827   6.307   3.043  18.788 -0.8479  2.6993 -0.7817
 4544TIP3    H237828   6.183   3.033  18.703 -2.1582 -0.0523  1.2660
 4545TIP3   OH237829   1.050   0.545  17.983  0.5439  0.0734 -0.1927
 4545TIP3    H137830   1.118   0.479  17.997  1.2583  0.7892 -0.1879
 4545TIP3    H237831   1.015   0.525  17.896  0.4449 -0.5714 -0.0114
 4546TIP3   OH237832   6.973   3.979  18.207  0.0121 -0.0657 -0.3338
 4546TIP3    H137833   6.972   3.899  18.259  0.2042  0.5815  0.7016
 4546TIP3    H237834   6.891   3.978  18.157 -0.9660  0.0726  1.2159
 4547TIP3   OH237835   0.407   3.040  18.932 -0.2713  0.0928 -0.4873
 4547TIP3    H137836   0.487   3.043  18.984  0.3956  1.4834 -1.5412
 4547TIP3    H237837   0.390   2.946  18.920  0.1238 -0.2487  1.3224
 4548TIP3   OH237838   5.572   1.795  17.452  0.0716  0.2042  0.2451
 4548TIP3    H137839   5.584   1.700  17.452 -1.6885 -0.0470  0.3876
 4548TIP3    H237840   5.617   1.825  17.374  1.7971 -0.5588  0.8844
 4549TIP3   OH237841   0.584   0.339  18.839 -0.2163  0.0911  0.5830
 4549TIP3    H137842   0.609   0.427  18.809 -1.2812  0.4043  0.5698
 4549TIP3    H237843   0.493   0.330  18.813 -0.5792 -0.4200  1.9545
 4550TIP3   OH237844   3.264   4.974  17.407  0.2835  0.3361  0.3795
 4550TIP3    H137845   3.247   4.978  17.501 -0.6866 -2.7145  0.4230
 4550TIP3    H237846   3.258   4.882  17.385  0.0505  0.9910 -2.7996
 4551TIP3   OH237847   3.381   6.456  17.343  0.5292 -0.0508  0.4862
 4551TIP3    H137848   3.327   6.443  17.421 -0.6966 -0.7344 -0.4446
 4551TIP3    H237849   3.322   6.495  17.278  1.3773 -0.0150 -0.2850
 4552TIP3   OH237850   3.415   6.203  18.959  0.3114 -0.3490  0.4024
 4552TIP3    H137851   3.337   6.246  18.991  0.8485  0.6119  0.4711
 4552TIP3    H237852   3.481   6.219  19.026  1.0460  0.4349 -0.4615
 4553TIP3   OH237853   5.232   1.347  18.066  0.2473 -0.1384  0.6528
 4553TIP3    H137854   5.184   1.301  18.134  0.5087 -0.3488  0.6971
 4553TIP3    H237855   5.273   1.420  18.111 -1.2252  0.9215  0.3477
 4554TIP3   OH237856   4.021   1.437  19.590 -0.3763  0.0849 -0.6162
 4554TIP3    H137857   4.032   1.343  19.576  1.1531  0.2083 -0.3853
 4554TIP3    H237858   3.989   1.444  19.680 -1.4701 -0.2471 -0.9636
 4555TIP3   OH237859   4.228   3.200  17.592  0.3326 -0.6681 -0.1176
 4555TIP3    H137860   4.230   3.244  17.507  1.1620 -0.7988 -0.1723
 4555TIP3    H237861   4.270   3.116  17.576  1.7671 -0.1352  0.7224
 4556TIP3   OH237862   4.129   6.439  19.520 -0.4274  0.0525 -0.2466
 4556TIP3    H137863   4.143   6.425  19.613 -0.5607  2.3447  0.1605
 4556TIP3    H237864   4.078   6.362  19.492  3.1107 -2.8848  0.5404
 4557TIP3   OH237865   5.950   1.454  17.905  0.2058 -0.0617  0.1659
 4557TIP3    H137866   5.923   1.481  17.993  1.1839  0.9402  0.1906
 4557TIP3    H237867   5.987   1.367  17.917 -0.0123 -0.0874  0.6902
 4558TIP3   OH237868   1.507   0.892  18.930 -0.2318  0.5986  0.1248
 4558TIP3    H137869   1.460   0.877  19.012  1.2292 -2.1924  0.5657
 4558TIP3    H237870   1.439   0.892  18.863 -1.1883  0.0151  1.0620
 4559TIP3   OH237871   5.967   1.229  19.155 -0.0685 -0.3525 -0.3052
 4559TIP3    H137872   5.985   1.311  19.201  0.3530 -0.9622  0.6472
 4559TIP3    H237873   5.916   1.177  19.218  0.9988 -1.4230 -0.2956
 4560TIP3   OH237874   0.261   5.597  19.468  0.0731 -0.2842  0.7795
 4560TIP3    H137875   0.255   5.555  19.382 -0.7051  2.5032 -0.6671
 4560TIP3    H237876   0.237   5.528  19.530  0.5787 -2.3904 -1.1968
 4561TIP3   OH237877   6.055   3.097  19.218  0.0072 -0.6142  0.5040
 4561TIP3    H137878   5.965   3.114  19.191  0.7175  1.3782 -0.9159
 4561TIP3    H237879   6.108   3.145  19.154  2.2537 -4.2242 -0.6369
 4562TIP3   OH237880   7.215   7.280  17.953 -0.4209 -0.2701 -0.0355
 4562TIP3    H137881   7.138   7.278  18.010 -0.5131  0.1457 -0.1407
 4562TIP3    H237882   7.267   7.204  17.980  0.2668  0.7306  1.6354
 4563TIP3   OH237883   4.740   5.860  18.581 -0.7937  0.2531  0.1433
 4563TIP3    H137884   4.668   5.797  18.579 -1.4270  0.9886 -0.7839
 4563TIP3    H237885   4.701   5.942  18.552  0.6004  0.4858 -1.1826
 4564TIP3   OH237886   1.456   5.006  18.650  0.5072 -0.5646 -0.0223
 4564TIP3    H137887   1.380   5.013  18.707  1.3287 -0.1439  1.0502
 4564TIP3    H237888   1.531   5.029  18.706  1.3991 -0.7291 -1.1075
 4565TIP3   OH237889   5.384   7.155  18.236  0.2235  0.1765  0.0391
 4565TIP3    H137890   5.469   7.143  18.195  0.6663  0.6848  0.8047
 4565TIP3    H237891   5.395   7.128  18.327 -0.9938 -1.8280 -0.3512
 4566TIP3   OH237892   3.565   6.948  18.153 -0.4961  0.1678  0.3141
 4566TIP3    H137893   3.570   6.857  18.124 -0.3104  0.5147 -0.7989
 4566TIP3    H237894   3.547   6.997  18.073  1.7110  1.3548  0.4686
 4567TIP3   OH237895   2.707   7.201  19.305 -0.3935 -0.4105 -0.1854
 4567TIP3    H137896   2.772   7.130  19.300 -0.4576 -0.4044 -2.0453
 4567TIP3    H237897   2.658   7.194  19.222 -0.2860  1.9089 -0.5155
 4568TIP3   OH237898   4.336   0.700  18.111  0.2640 -0.5925  0.2032
 4568TIP3    H137899   4.345   0.605  18.118  1.6685 -0.3998  1.5857
 4568TIP3    H237900   4.399   0.726  18.044 -0.7791 -0.6936 -0.8536
 4569TIP3   OH237901   3.446   0.175  17.405  0.1847 -0.4871 -1.1012
 4569TIP3    H137902   3.527   0.135  17.374  0.0772 -0.3127 -1.6069
 4569TIP3    H237903   3.404   0.209  17.326 -0.3528 -0.5221 -0.8321
 4570TIP3   OH237904   6.494   2.958  17.695 -0.0855  0.1218  0.1288
 4570TIP3    H137905   6.525   2.998  17.776 -1.8051  1.0069  0.4000
 4570TIP3    H237906   6.420   3.012  17.668 -0.4385 -0.9950 -1.2820
 4571TIP3   OH237907   4.189   1.213  18.390 -0.1850  0.3539  0.4693
 4571TIP3    H137908   4.247   1.148  18.350 -1.9870 -1.2297  0.2358
 4571TIP3    H237909   4.205   1.205  18.484  0.9213  0.9259  0.3432
 4572TIP3   OH237910   0.948   7.620  19.026 -0.2786 -0.0185 -0.4233
 4572TIP3    H137911   0.930   7.583  19.112 -1.4695 -0.2503 -0.7550
 4572TIP3    H237912   0.983   7.707  19.045 -0.2254 -0.1915  0.3014
 4573TIP3   OH237913   3.830   0.982  19.689 -0.7148 -0.0569  0.6402
 4573TIP3    H137914   3.789   0.975  19.603  0.5238 -3.1651  0.1700
 4573TIP3    H237915   3.772   0.933  19.747  0.6445 -1.8306  0.5851
 4574TIP3   OH237916   3.634   2.877  17.585  0.4172  0.3153 -0.6018
 4574TIP3    H137917   3.610   2.969  17.594 -1.3498 -0.1490  0.0197
 4574TIP3    H237918   3.699   2.862  17.653 -0.0459  0.8907 -0.0177
 4575TIP3   OH237919   0.627   5.155  18.556 -0.4510  0.4600 -0.1525
 4575TIP3    H137920   0.713   5.166  18.596  0.3776 -0.8052 -1.4811
 4575TIP3    H237921   0.645   5.135  18.464 -2.1682  0.1141 -0.4566
 4576TIP3   OH237922   6.036   0.088  17.768  0.2487 -0.0417 -0.0068
 4576TIP3    H137923   5.967   0.071  17.832  0.9004 -0.1863  0.6831
 4576TIP3    H237924   6.030   0.182  17.751 -1.5145 -0.3831 -1.6480
 4577TIP3   OH237925   4.879   6.772  18.218  0.0393 -0.3774 -0.0648
 4577TIP3    H137926   4.877   6.743  18.309  0.6807  0.7480  0.3274
 4577TIP3    H237927   4.935   6.849  18.218  0.6148 -0.7469 -1.5386
 4578TIP3   OH237928   7.658   4.252  17.883 -0.1018  0.4279 -0.1816
 4578TIP3    H137929   7.669   4.314  17.811 -2.0577  1.8789  0.6834
 4578TIP3    H237930   7.627   4.306  17.956 -2.0119 -1.5904  0.5806
 4579TIP3   OH237931   3.083   1.640  18.980 -0.1851 -0.3674  0.0837
 4579TIP3    H137932   3.173   1.641  19.013 -0.2555 -0.4127  0.2827
 4579TIP3    H237933   3.091   1.616  18.888 -0.0209 -0.6999  0.1844
 4580TIP3   OH237934   4.564   0.105  18.088  0.2798  0.3340  0.5616
 4580TIP3    H137935   4.639   0.069  18.134  0.2415  0.3819  0.6614
 4580TIP3    H237936   4.491   0.096  18.149 -0.1048 -1.0085 -0.0355
 4581TIP3   OH237937   4.529   6.882  19.134 -0.2731  0.2844  0.7779
 4581TIP3    H137938   4.476   6.890  19.213  0.1589 -1.1739  1.2487
 4581TIP3    H237939   4.466   6.866  19.064 -0.5866  0.5115  1.0080
 4582TIP3   OH237940   7.302   0.210  17.634 -0.7244 -0.3981 -0.6108
 4582TIP3    H137941   7.358   0.133  17.641  3.1630  2.0994 -0.9785
 4582TIP3    H237942   7.293   0.241  17.725 -0.6344 -0.2497 -0.6521
 4583TIP3   OH237943   1.178   2.923  18.501 -0.1455 -0.0522  0.0577
 4583TIP3    H137944   1.095   2.876  18.507 -0.5219  0.7360  1.4649
 4583TIP3    H237945   1.153   3.014  18.488  0.5231  0.1090 -0.1621
 4584TIP3   OH237946   5.468   2.366  16.925 -0.0873  0.4888  0.1020
 4584TIP3    H137947   5.552   2.339  16.888 -0.5282 -0.3232 -0.3583
 4584TIP3    H237948   5.416   2.393  16.849 -0.4071  0.4941  0.3208
 4585TIP3   OH237949   3.021   2.765  18.004  0.0725  0.6911 -0.2972
 4585TIP3    H137950   3.115   2.757  18.021 -0.1951 -1.4253  0.4938
 4585TIP3    H237951   2.997   2.850  18.040  1.4984  0.8167  0.4305
 4586TIP3   OH237952   5.409   5.536  17.969 -0.2702  0.6320  0.0278
 4586TIP3    H137953   5.338   5.472  17.964  0.4025 -0.0255 -1.4039
 4586TIP3    H237954   5.435   5.535  18.061 -0.9498 -0.3972  0.2285
 4587TIP3   OH237955   4.986   3.219  18.606 -0.1592 -0.3914 -0.3757
 4587TIP3    H137956   5.009   3.303  18.647 -3.0378 -0.1180  0.9266
 4587TIP3    H237957   5.065   3.194  18.557  1.0217  2.7358 -0.3120
 4588TIP3   OH237958   5.705   0.813  18.585  0.0233  0.8261  0.4434
 4588TIP3    H137959   5.652   0.734  18.592  0.4283  0.3858 -1.1040
 4588TIP3    H237960   5.795   0.782  18.594  0.1308  1.2635  0.9038
 4589TIP3   OH237961   2.934   2.485  17.689 -0.0260  0.0057  0.1446
 4589TIP3    H137962   2.882   2.500  17.768 -1.0592  2.9881 -0.9709
 4589TIP3    H237963   3.022   2.464  17.722 -0.6435  0.2402  2.0802
 4590TIP3   OH237964   4.484   7.471  17.637 -0.0288 -0.4177 -0.0978
 4590TIP3    H137965   4.525   7.457  17.723  0.2111 -0.2850 -0.1894
 4590TIP3    H237966   4.395   7.500  17.657  0.6422  1.6073  0.1462
 4591TIP3   OH237967   5.682   0.131  19.176 -0.1540  0.1866 -0.5232
 4591TIP3    H137968   5.774   0.107  19.167 -0.7987 -2.5248 -0.8145
 4591TIP3    H237969   5.666   0.130  19.270 -0.0564 -0.1773 -0.5070
 4592TIP3   OH237970   5.798   0.701  19.321 -0.2878  0.4995 -0.3497
 4592TIP3    H137971   5.705   0.721  19.330 -0.4333 -0.8613  2.0852
 4592TIP3    H237972   5.816   0.639  19.392  2.1481 -0.4512 -1.6707
 4593TIP3   OH237973   4.569   0.486  18.947  0.5281 -0.0423 -0.1405
 4593TIP3    H137974   4.504   0.499  19.017 -0.4866 -1.7360 -0.6984
 4593TIP3    H237975   4.587   0.392  18.949  0.2600 -0.1808 -2.3405
 4594TIP3   OH237976   6.713   2.086  18.072 -0.2116 -0.2783 -0.4425
 4594TIP3    H137977   6.717   2.052  17.983  1.5831  1.6908 -1.2075
 4594TIP3    H237978   6.795   2.134  18.083 -0.8642  0.4447  1.9028
 4595TIP3   OH237979   6.542   7.532  17.740  0.1720  0.0070  0.2818
 4595TIP3    H137980   6.594   7.602  17.780 -1.1641 -0.0078  2.1947
 4595TIP3    H237981   6.451   7.560  17.753 -0.3532 -1.0099 -0.9968
 4596TIP3   OH237982   1.006   1.597  18.988 -0.1645  0.2871  0.1036
 4596TIP3    H137983   1.089   1.577  19.032  0.4690  2.7191  0.1146
 4596TIP3    H237984   0.939   1.577  19.053  0.6762  2.2006  1.6542
 4597TIP3   OH237985   4.784   6.984  19.264 -0.2636  0.2236  0.5818
 4597TIP3    H137986   4.794   6.917  19.331  0.3099 -1.1415 -0.8205
 4597TIP3    H237987   4.701   6.963  19.220 -0.1912  0.5619  0.2726
 4598TIP3   OH237988   1.454   0.573  18.523  0.6166 -0.2520 -0.6294
 4598TIP3    H137989   1.476   0.509  18.455  0.9947 -1.2158  0.3627
 4598TIP3    H237990   1.364   0.598  18.504 -0.3138 -2.6922  0.1413
 4599TIP3   OH237991   2.158   7.036  17.885  0.2721  0.3934  0.0652
 4599TIP3    H137992   2.234   6.980  17.900 -0.0832  0.3293  1.8421
 4599TIP3    H237993   2.111   7.036  17.969 -0.8930  1.6286 -0.5469
 4600TIP3   OH237994   4.525   1.705  18.060  0.9192  0.4944  0.1165
 4600TIP3    H137995   4.614   1.740  18.060  0.9318  0.5647 -1.7015
 4600TIP3    H237996   4.479   1.758  17.995  0.1950 -1.1016 -0.7129
 4601TIP3   OH237997   3.708   4.214  17.500 -0.6154 -0.3001 -0.2072
 4601TIP3    H137998   3.638   4.274  17.526 -0.8852 -0.5472 -0.3464
 4601TIP3    H237999   3.672   4.127  17.515 -1.1009 -0.4851 -2.1149
 4602TIP3   OH238000   0.032   6.117  18.763  0.0269 -0.2637 -0.2905
 4602TIP3    H138001  -0.054   6.078  18.747  0.5063 -0.6800 -2.1770
 4602TIP3    H238002   0.056   6.088  18.851 -1.2695 -1.0588 -0.1686
 4603TIP3   OH238003   0.625   4.770  19.658  0.3252  0.1737  0.2641
 4603TIP3    H138004   0.619   4.829  19.583  1.6950 -0.6508 -0.5366
 4603TIP3    H238005   0.577   4.815  19.728 -2.0062  0.4395 -1.3815
 4604TIP3   OH238006   5.791   6.213  18.031 -0.4288 -0.3507  0.5453
 4604TIP3    H138007   5.787   6.144  17.965 -1.1553 -1.6997  1.9451
 4604TIP3    H238008   5.741   6.179  18.105 -1.4721  2.0060  1.0237
 4605TIP3   OH238009   1.404   2.906  18.664  0.2826 -0.0465  0.4113
 4605TIP3    H138010   1.353   2.960  18.726 -0.6590 -1.3325  0.7997
 4605TIP3    H238011   1.341   2.883  18.596 -0.0218 -2.5791  1.4655
 4606TIP3   OH238012   1.736   2.754  19.059 -0.0596 -0.1249  0.5778
 4606TIP3    H138013   1.794   2.717  18.993 -0.7970 -0.7941  0.2771
 4606TIP3    H238014   1.778   2.732  19.143 -0.6665 -2.0893  0.4349
 4607TIP3   OH238015   1.509   0.165  18.068  0.5945 -0.0833 -0.0710
 4607TIP3    H138016   1.535   0.075  18.088 -1.2477 -0.8379 -0.8307
 4607TIP3    H238017   1.546   0.183  17.982  0.1797 -0.4679 -0.3321
 4608TIP3   OH238018   0.813   0.424  19.419  0.3153 -0.0481 -0.1499
 4608TIP3    H138019   0.720   0.400  19.426  0.2287  0.6409  1.7398
 4608TIP3    H238020   0.855   0.348  19.379 -1.0825 -0.2980 -1.2130
 4609TIP3   OH238021   6.026   6.913  19.362  1.0081 -0.1239  0.0746
 4609TIP3    H138022   6.116   6.888  19.342  0.7830 -1.5240  0.6883
 4609TIP3    H238023   5.981   6.830  19.377 -0.1147  0.6030  0.8872
 4610TIP3   OH238024   2.227   6.182  16.651  0.4125  0.4622  0.4475
 4610TIP3    H138025   2.161   6.247  16.629  0.8518  0.6158 -0.5003
 4610TIP3    H238026   2.306   6.233  16.670  1.0219  0.2268 -1.2196
 4611TIP3   OH238027   3.079   5.768  19.214  0.6490 -0.0827 -0.3450
 4611TIP3    H138028   2.991   5.750  19.182  0.6276  0.6841 -0.7288
 4611TIP3    H238029   3.083   5.726  19.300  0.7358 -2.2777 -1.3372
 4612TIP3   OH238030   2.336   2.884  17.738  0.4178 -0.6970  0.0421
 4612TIP3    H138031   2.416   2.933  17.757 -0.1891 -0.3573  2.0031
 4612TIP3    H238032   2.267   2.950  17.732 -0.0456 -1.1239  0.4772
 4613TIP3   OH238033   4.541   6.276  18.294  0.0537  0.4185 -0.3338
 4613TIP3    H138034   4.474   6.336  18.260 -0.0578 -0.3050 -1.4259
 4613TIP3    H238035   4.520   6.192  18.254  1.4631  0.1202 -0.4873
 4614TIP3   OH238036   3.889   0.187  19.601  0.3631 -0.0571  0.0430
 4614TIP3    H138037   3.809   0.153  19.643  0.9353 -0.7942  0.5674
 4614TIP3    H238038   3.885   0.152  19.511 -0.3756  0.7124 -0.2355
 4615TIP3   OH238039   6.909   7.479  18.010  0.0131 -0.1768 -0.6096
 4615TIP3    H138040   6.958   7.510  17.933  0.1337  1.8473  0.2373
 4615TIP3    H238041   6.822   7.517  18.001 -0.4344 -1.1257 -0.4548
 4616TIP3   OH238042   3.602   3.351  19.140 -0.1667  0.0854 -0.7036
 4616TIP3    H138043   3.554   3.405  19.203  0.3234  0.9354 -1.0498
 4616TIP3    H238044   3.534   3.301  19.095 -0.7093  1.0121 -0.9391
 4617TIP3   OH238045   6.609   5.929  17.404 -0.1597  0.1956 -0.1502
 4617TIP3    H138046   6.692   5.973  17.423 -0.4063  0.4833  0.3069
 4617TIP3    H238047   6.621   5.888  17.319  1.2569 -1.7361  0.9009
 4618TIP3   OH238048   0.795   2.558  16.893  0.4607  0.6118 -0.1814
 4618TIP3    H138049   0.707   2.580  16.924  0.9386  0.2219  1.5625
 4618TIP3    H238050   0.794   2.463  16.882  0.8864  0.5073  0.6277
 4619TIP3   OH238051   1.841   5.936  19.339  0.0027  0.0676  0.3843
 4619TIP3    H138052   1.873   5.898  19.257  0.4071 -0.8359  0.9426
 4619TIP3    H238053   1.919   5.952  19.391 -0.2979 -0.0413  0.8755
 4620TIP3   OH238054   7.400   0.904  17.332 -0.1841 -0.1182 -0.2295
 4620TIP3    H138055   7.401   0.872  17.242 -0.4361  0.5699 -0.4791
 4620TIP3    H238056   7.398   0.999  17.324 -0.6541 -0.0578  0.5002
 4621TIP3   OH238057   0.351   4.428  18.393  0.0020  0.1776  0.1717
 4621TIP3    H138058   0.291   4.386  18.331  2.2082 -1.5580 -0.9708
 4621TIP3    H238059   0.432   4.377  18.385  1.7786  2.6345  1.2830
 4622TIP3   OH238060   6.972   1.905  18.219 -0.4220  0.1518 -0.0380
 4622TIP3    H138061   7.041   1.869  18.273  1.2080 -0.0453 -2.1281
 4622TIP3    H238062   6.922   1.829  18.188 -1.0278  0.2282  0.7122
 4623TIP3   OH238063   3.776   2.165  18.417 -0.0256  0.5789 -0.1798
 4623TIP3    H138064   3.867   2.153  18.390  0.7454  2.1874  1.4219
 4623TIP3    H238065   3.758   2.258  18.401 -1.3944  0.2896 -0.4619
 4624TIP3   OH238066   2.241   2.903  19.312  0.2292  0.1347  0.0512
 4624TIP3    H138067   2.293   2.846  19.369 -1.4688  0.8883  2.5099
 4624TIP3    H238068   2.214   2.846  19.239  0.1844 -1.6963  1.4268
 4625TIP3   OH238069   3.794   5.816  17.969 -0.3055  0.1548 -0.2675
 4625TIP3    H138070   3.736   5.871  18.022 -0.3213 -0.8706  0.8035
 4625TIP3    H238071   3.795   5.859  17.883 -0.6521  1.5812  0.4158
 4626TIP3   OH238072   5.822   0.986  18.189  0.1292  0.1694  0.0898
 4626TIP3    H138073   5.791   1.026  18.270  0.2841  0.6914 -0.1065
 4626TIP3    H238074   5.917   0.996  18.191  0.1271  0.2605 -0.1956
 4627TIP3   OH238075   3.677   7.228  17.995  0.1540  0.3215  0.6756
 4627TIP3    H138076   3.767   7.260  17.997  0.4676 -0.4349 -0.6532
 4627TIP3    H238077   3.683   7.138  17.962 -0.9230 -0.3947  2.2521
 4628TIP3   OH238078   0.444   6.549  18.984  0.0480  0.6049 -0.3150
 4628TIP3    H138079   0.409   6.535  19.072 -1.6792 -1.0854 -1.2019
 4628TIP3    H238080   0.395   6.623  18.950 -2.5331 -1.4375 -1.3659
 4629TIP3   OH238081   3.864   6.825  18.136  0.2551 -1.0361  0.1158
 4629TIP3    H138082   3.832   6.837  18.225 -0.8145 -1.4059 -0.1987
 4629TIP3    H238083   3.815   6.750  18.103 -0.8731  0.3217 -1.4539
 4630TIP3   OH238084   3.609   5.083  17.598 -0.1743 -0.1374  0.5092
 4630TIP3    H138085   3.685   5.139  17.582  0.3061 -0.5750  1.2394
 4630TIP3    H238086   3.555   5.133  17.659 -0.4498  0.1475  0.0376
 4631TIP3   OH238087   3.237   7.456  17.983 -0.0069 -0.6610  0.4196
 4631TIP3    H138088   3.194   7.393  17.925 -0.1038 -2.8043  2.6589
 4631TIP3    H238089   3.168   7.519  18.005 -0.9807 -1.9016  1.0083
 4632TIP3   OH238090   6.907   2.225  18.699  0.0407  0.0446  0.0191
 4632TIP3    H138091   6.820   2.208  18.663 -0.3208  0.1442  0.8240
 4632TIP3    H238092   6.894   2.229  18.794  1.0973 -0.9511  0.2240
 4633TIP3   OH238093   3.870   4.017  19.301  0.3786  0.3647 -0.5976
 4633TIP3    H138094   3.869   4.105  19.339 -1.9763 -0.4547  1.5205
 4633TIP3    H238095   3.954   3.981  19.326 -0.3767  0.4982  2.5589
 4634TIP3   OH238096   6.930   5.073  18.349  0.1929 -0.0602  0.3089
 4634TIP3    H138097   6.852   5.087  18.296 -0.2170 -0.1503  0.8784
 4634TIP3    H238098   7.003   5.085  18.288 -0.2274  1.3502  0.0537
 4635TIP3   OH238099   5.457   6.129  17.773  0.2193 -0.4466  0.1442
 4635TIP3    H138100   5.376   6.156  17.729 -0.5214 -2.5109  0.1159
 4635TIP3    H238101   5.440   6.141  17.866  0.1193 -0.2791  0.1032
 4636TIP3   OH238102   2.083   0.380  19.353  0.2246  0.3363 -0.2536
 4636TIP3    H138103   2.131   0.301  19.376  0.0942 -0.3266 -2.0533
 4636TIP3    H238104   2.007   0.348  19.303 -1.4557  1.4330  1.4860
 4637TIP3   OH238105   0.876   4.393  17.371 -0.3985  0.4233 -0.0555
 4637TIP3    H138106   0.860   4.378  17.278  0.6257 -1.1922 -0.0197
 4637TIP3    H238107   0.802   4.352  17.416 -0.6004  0.6894 -0.1493
 4638TIP3   OH238108   0.926   0.397  18.712 -0.2262  0.4108 -0.2227
 4638TIP3    H138109   0.917   0.436  18.624  0.0739  0.5713 -0.1824
 4638TIP3    H238110   0.836   0.385  18.742 -0.3262  1.6340  0.0084
 4639TIP3   OH238111   7.630   2.815  17.762 -0.0520 -0.8278 -0.2300
 4639TIP3    H138112   7.602   2.827  17.671 -1.2293 -1.6570  0.0002
 4639TIP3    H238113   7.720   2.784  17.755  0.1467 -0.0969 -1.0826
 4640TIP3   OH238114   3.618   2.221  17.454  0.1711 -0.5978 -0.2864
 4640TIP3    H138115   3.649   2.148  17.507 -1.1155 -1.7446 -1.0600
 4640TIP3    H238116   3.637   2.195  17.363  2.4406  1.3770 -0.4642
 4641TIP3   OH238117   2.940   1.215  19.630  0.7573 -0.3096 -0.5099
 4641TIP3    H138118   3.024   1.171  19.615  0.7346  0.2190 -2.4755
 4641TIP3    H238119   2.921   1.259  19.547 -0.7316  0.8435  0.3926
 4642TIP3   OH238120   5.824   1.742  18.427 -0.2078  0.0017 -0.3309
 4642TIP3    H138121   5.917   1.746  18.405  0.0535  0.9143  0.8546
 4642TIP3    H238122   5.783   1.805  18.367 -0.1376 -0.6374 -1.0778
 4643TIP3   OH238123   1.880   5.782  19.122 -0.0681  0.3712 -0.1838
 4643TIP3    H138124   1.968   5.757  19.093 -0.4288  1.4114 -2.3296
 4643TIP3    H238125   1.831   5.700  19.122  0.7075 -0.1093  0.3938
 4644TIP3   OH238126   4.554   3.777  18.432  0.2842  0.5324 -0.4623
 4644TIP3    H138127   4.576   3.815  18.348 -0.5442  1.4827 -0.2715
 4644TIP3    H238128   4.458   3.780  18.435  0.2363 -0.8835 -0.1157
 4645TIP3   OH238129   4.750   3.538  18.253 -0.5792  0.5996 -0.0229
 4645TIP3    H138130   4.687   3.528  18.324  0.7874 -0.3739  1.0877
 4645TIP3    H238131   4.835   3.541  18.296  0.2653  0.3372 -1.5947
 4646TIP3   OH238132   0.224   4.233  16.937 -0.2405 -0.7957 -0.1049
 4646TIP3    H138133   0.248   4.292  16.865  1.2500 -0.3841  0.6846
 4646TIP3    H238134   0.258   4.276  17.015 -2.4837 -0.8504  0.9918
 4647TIP3   OH238135   7.364   6.113  16.834 -0.0206  0.3034  0.9139
 4647TIP3    H138136   7.372   6.190  16.889  0.9363  0.8008  0.1247
 4647TIP3    H238137   7.438   6.120  16.773 -0.6436 -0.5756  0.0224
 4648TIP3   OH238138   3.629   0.033  17.256  0.0258  0.0740 -0.3491
 4648TIP3    H138139   3.602   0.042  17.165 -1.7236 -2.3999 -0.1748
 4648TIP3    H238140   3.706  -0.024  17.254 -0.8607 -1.1702 -0.2461
 4649TIP3   OH238141   1.425   6.287  18.531  0.7802  0.1597 -0.2608
 4649TIP3    H138142   1.450   6.212  18.477  2.9898 -0.1124  1.0203
 4649TIP3    H238143   1.430   6.254  18.621  1.4758  1.7317  0.3096
 4650TIP3   OH238144   3.688   6.371  17.952  0.4667  0.1507  0.2055
 4650TIP3    H138145   3.629   6.312  17.904 -0.0925  0.5015  0.4559
 4650TIP3    H238146   3.775   6.333  17.938  0.1805 -0.4121 -0.1142
 4651TIP3   OH238147   0.340   6.664  17.480 -0.1153 -0.6468  0.2569
 4651TIP3    H138148   0.368   6.658  17.388 -1.4460 -0.4725 -0.1869
 4651TIP3    H238149   0.385   6.592  17.524 -0.1137 -1.2520 -0.7100
 4652TIP3   OH238150   0.031   3.842  18.562 -0.2806  0.4711 -0.0241
 4652TIP3    H138151   0.059   3.780  18.628 -2.1247  0.3510  0.6948
 4652TIP3    H238152   0.027   3.791  18.481 -1.2778 -0.2440  0.4555
 4653TIP3   OH238153   2.418   3.062  18.985  0.0839  0.5668  0.0927
 4653TIP3    H138154   2.489   3.000  18.967 -0.2338  0.3539 -0.4768
 4653TIP3    H238155   2.415   3.118  18.907  0.8933  1.8336  0.9384
 4654TIP3   OH238156   3.139   6.678  17.568 -0.8665 -0.0461 -0.6078
 4654TIP3    H138157   3.144   6.714  17.480 -2.5478  0.6751 -0.4327
 4654TIP3    H238158   3.163   6.751  17.625  0.8599 -0.6784 -0.4386
 4655TIP3   OH238159   4.786   6.233  18.003 -0.0622 -0.9878  0.9113
 4655TIP3    H138160   4.771   6.186  18.085 -1.3961 -0.0048  1.2599
 4655TIP3    H238161   4.701   6.270  17.981  0.5532 -0.2537 -0.3105
 4656TIP3   OH238162   5.251   0.136  18.269 -0.4631  0.5084  0.1284
 4656TIP3    H138163   5.346   0.135  18.279 -0.0646  2.2656 -2.5303
 4656TIP3    H238164   5.234   0.086  18.189 -1.7969  0.4277  0.4246
 4657TIP3   OH238165   6.497   3.863  18.953  0.2021 -0.2444  0.4222
 4657TIP3    H138166   6.505   3.895  19.043  0.6980  1.4055 -0.1593
 4657TIP3    H238167   6.533   3.774  18.955  1.5229  0.2723  1.5981
 4658TIP3   OH238168   5.963   2.060  18.425  0.0768 -0.3567 -0.4519
 4658TIP3    H138169   5.999   2.062  18.336 -0.8109 -2.2104 -0.9087
 4658TIP3    H238170   5.871   2.034  18.413 -0.6140  1.2873  0.8908
 4659TIP3   OH238171   4.982   0.065  18.384  0.2163 -0.4068  0.0926
 4659TIP3    H138172   5.070   0.084  18.350 -0.1894  2.1087  0.2006
 4659TIP3    H238173   4.998   0.019  18.466  1.4256 -0.4279 -0.1336
 4660TIP3   OH238174   1.167   2.572  17.958 -0.2385  0.7400 -0.1814
 4660TIP3    H138175   1.251   2.609  17.931  1.6255 -3.8099 -1.7823
 4660TIP3    H238176   1.178   2.550  18.050  0.1005  0.7037 -0.2307
 4661TIP3   OH238177   3.964   3.895  18.404 -0.2040  0.1391  0.4729
 4661TIP3    H138178   3.996   3.901  18.314  1.5560  0.7638  1.0999
 4661TIP3    H238179   3.983   3.805  18.431 -1.0815 -0.1652  0.1265
 4662TIP3   OH238180   1.025   4.592  18.592  0.4644 -0.6706  0.4807
 4662TIP3    H138181   1.038   4.519  18.531  0.8259  0.1782 -0.4838
 4662TIP3    H238182   0.944   4.633  18.563  1.6318  0.9212 -0.7202
 4663TIP3   OH238183   4.700   4.417  18.627 -0.1535  0.5169  0.0850
 4663TIP3    H138184   4.645   4.494  18.640 -0.8421  0.1081 -0.3179
 4663TIP3    H238185   4.788   4.445  18.652 -0.5458  1.1814  0.7602
 4664TIP3   OH238186   5.409   6.688  19.683 -0.0533 -0.3389 -0.0721
 4664TIP3    H138187   5.426   6.647  19.768 -0.1718  0.5924  0.4007
 4664TIP3    H238188   5.314   6.683  19.672 -0.1067  0.1775  0.1676
 4665TIP3   OH238189   0.784   1.777  18.925  0.4627  0.4337 -0.2578
 4665TIP3    H138190   0.713   1.712  18.926 -0.0527  0.9659 -1.0902
 4665TIP3    H238191   0.847   1.741  18.863  1.2259 -0.3261  0.9151
 4666TIP3   OH238192   1.363   1.373  17.913  0.1067 -0.6139  0.2695
 4666TIP3    H138193   1.375   1.447  17.853  2.1007 -1.4440 -0.4374
 4666TIP3    H238194   1.298   1.404  17.976  0.4682  1.5455 -0.3238
 4667TIP3   OH238195   2.570   6.882  18.858 -0.4408  0.1444  0.0729
 4667TIP3    H138196   2.493   6.848  18.812  0.0090 -0.7070 -0.0708
 4667TIP3    H238197   2.628   6.914  18.789  0.2623 -1.1934  0.0029
 4668TIP3   OH238198   6.948   6.927  17.863  0.0036 -0.1906 -0.6672
 4668TIP3    H138199   6.870   6.872  17.855  0.2105 -0.3655 -1.6676
 4668TIP3    H238200   6.915   7.010  17.898 -0.3025 -0.9417  0.9159
 4669TIP3   OH238201   6.234   6.544  19.462  0.6345 -0.2880  0.0347
 4669TIP3    H138202   6.229   6.459  19.420 -0.3450 -0.3461  0.2551
 4669TIP3    H238203   6.190   6.533  19.546 -2.8762  1.3084 -1.3980
 4670TIP3   OH238204   1.324   7.330  18.137 -0.0043  0.4649  0.4622
 4670TIP3    H138205   1.272   7.347  18.059  0.5170 -0.6800 -0.1507
 4670TIP3    H238206   1.364   7.244  18.122  1.9366  1.2252  0.9679
 4671TIP3   OH238207   7.550   4.402  19.268  0.5226  0.8138  0.0652
 4671TIP3    H138208   7.528   4.333  19.331  1.3179  0.0372 -0.4916
 4671TIP3    H238209   7.465   4.432  19.235  0.1832 -0.4997 -0.3186
 4672TIP3   OH238210   6.569   3.698  17.859 -0.3100  0.1448 -0.3240
 4672TIP3    H138211   6.535   3.608  17.856 -2.6708  0.9723 -2.9664
 4672TIP3    H238212   6.642   3.697  17.797  1.6231 -0.4972  1.7990
 4673TIP3   OH238213   4.762   2.437  18.892 -0.1023 -0.5896  0.6926
 4673TIP3    H138214   4.830   2.504  18.890  0.4728 -1.1243  1.6220
 4673TIP3    H238215   4.685   2.482  18.928 -0.3137  0.0535 -0.5003
 4674TIP3   OH238216   1.197   0.626  17.492  0.5190 -0.4159  0.3644
 4674TIP3    H138217   1.181   0.538  17.457 -1.0385  0.4358 -1.2278
 4674TIP3    H238218   1.289   0.625  17.518  0.6116 -2.4201  0.1384
 4675TIP3   OH238219   0.891   2.002  17.991  0.0827 -0.2438 -0.2094
 4675TIP3    H138220   0.865   1.949  18.066 -1.0719  1.2004  0.4382
 4675TIP3    H238221   0.812   2.049  17.966  0.7051  0.0488 -1.7236
 4676TIP3   OH238222   5.567   4.999  17.437  0.1997 -0.2435 -0.0129
 4676TIP3    H138223   5.657   5.017  17.462  0.1969  1.4779 -1.1573
 4676TIP3    H238224   5.538   4.934  17.502  2.0104 -0.3181  0.7987
 4677TIP3   OH238225   2.984   7.260  16.800 -0.9010 -0.1201  0.2494
 4677TIP3    H138226   3.010   7.175  16.765  2.1135 -0.0664  2.0814
 4677TIP3    H238227   3.049   7.321  16.766 -1.3675  0.9589  1.2129
 4678TIP3   OH238228   0.733   6.024  19.192  0.1973  0.5242 -0.1780
 4678TIP3    H138229   0.676   6.019  19.269  0.9408  2.5152  0.5642
 4678TIP3    H238230   0.813   5.979  19.218  0.1666  0.5391 -0.0546
 4679TIP3   OH238231   4.918   6.702  18.805 -0.5220 -1.0211 -0.4305
 4679TIP3    H138232   4.859   6.749  18.864 -1.3758 -0.3287 -1.7701
 4679TIP3    H238233   4.870   6.623  18.782 -0.2961 -1.1702 -0.3833
 4680TIP3   OH238234   4.392   1.003  19.910 -0.3550 -0.5258  0.1172
 4680TIP3    H138235   4.459   0.943  19.875 -0.0053  1.2754 -2.4964
 4680TIP3    H238236   4.443   1.076  19.947 -0.8449 -0.0391 -0.1671
 4681TIP3   OH238237   2.996   5.252  18.307  0.3676  0.3423  0.9582
 4681TIP3    H138238   2.927   5.206  18.355 -1.0569  0.1289 -1.1557
 4681TIP3    H238239   3.001   5.338  18.350  0.0167 -0.2569  2.2405
 4682TIP3   OH238240   5.825   3.650  18.070 -0.3985 -0.2761  0.3990
 4682TIP3    H138241   5.889   3.710  18.031 -0.3703  0.3973  1.4370
 4682TIP3    H238242   5.828   3.572  18.014  0.9135 -0.0406  0.1026
 4683TIP3   OH238243   0.207   3.880  17.218 -0.1014 -0.6526 -1.0755
 4683TIP3    H138244   0.232   3.789  17.202 -1.6525 -1.1223 -0.9910
 4683TIP3    H238245   0.194   3.917  17.131 -0.7841 -0.9274 -1.1054
 4684TIP3   OH238246   7.622   0.057  18.393 -0.4607  0.4091 -0.4796
 4684TIP3    H138247   7.556   0.011  18.341  0.6975 -1.3516 -0.4666
 4684TIP3    H238248   7.687   0.086  18.329  0.4268 -0.8253 -0.1597
 4685TIP3   OH238249   1.469   3.884  18.867  0.3810  0.9894  0.8669
 4685TIP3    H138250   1.493   3.951  18.931  2.3104  1.5894 -0.3738
 4685TIP3    H238251   1.553   3.846  18.840 -0.4356  0.2396 -0.7534
 4686TIP3   OH238252   6.025   5.955  18.158  0.2069  0.2493  0.1658
 4686TIP3    H138253   6.036   5.899  18.236  0.6432  0.0986 -0.0018
 4686TIP3    H238254   5.934   5.941  18.131  0.2557 -0.2260  0.2427
 4687TIP3   OH238255   0.832   7.224  18.683 -0.7576 -0.6858  0.1755
 4687TIP3    H138256   0.920   7.251  18.658  0.7733 -2.5839  2.8848
 4687TIP3    H238257   0.804   7.290  18.746 -0.4582 -1.0457  0.6948
 4688TIP3   OH238258   6.000   2.931  18.952  0.2554 -0.5266  0.1714
 4688TIP3    H138259   6.010   2.837  18.970  1.5589 -0.2412  1.1495
 4688TIP3    H238260   6.085   2.957  18.916  0.4045  0.5455  1.2442
 4689TIP3   OH238261   6.834   5.604  16.638 -0.1038 -0.4982 -0.0602
 4689TIP3    H138262   6.797   5.647  16.561 -0.1323 -0.9452 -0.2997
 4689TIP3    H238263   6.761   5.555  16.676 -0.1009 -0.2399  0.2773
 4690TIP3   OH238264   2.398   3.967  19.340  0.3831  0.0273  0.6145
 4690TIP3    H138265   2.479   4.007  19.307  0.6546 -1.7461 -1.0773
 4690TIP3    H238266   2.395   3.881  19.297 -2.4104  0.0406  0.6093
 4691TIP3   OH238267   7.348   0.678  18.319  0.3606  0.4660 -0.2014
 4691TIP3    H138268   7.314   0.665  18.230  0.9951 -1.2130 -0.2402
 4691TIP3    H238269   7.336   0.772  18.336 -1.0232  0.5671 -1.5263
 4692TIP3   OH238270   5.039   2.924  18.711  0.4200 -0.1010  0.1493
 4692TIP3    H138271   5.019   2.832  18.694  0.5616 -0.2699  0.8495
 4692TIP3    H238272   4.996   2.972  18.640  2.2896 -0.8612 -1.6076
 4693TIP3   OH238273   4.657   3.584  18.839 -0.0499 -0.2028  0.4438
 4693TIP3    H138274   4.634   3.492  18.829  1.3476 -0.6751  1.2371
 4693TIP3    H238275   4.753   3.586  18.831 -0.1317  1.3522 -0.7310
 4694TIP3   OH238276   6.805   3.573  18.102 -0.6031 -0.1119 -0.0686
 4694TIP3    H138277   6.810   3.556  18.008 -1.1291  1.2909 -0.3741
 4694TIP3    H238278   6.727   3.527  18.132 -1.2296  0.5677 -0.6075
 4695TIP3   OH238279   0.680   0.334  17.744 -0.2835 -0.8232  0.6121
 4695TIP3    H138280   0.615   0.403  17.757 -0.8041 -1.2766  0.4776
 4695TIP3    H238281   0.631   0.252  17.758 -0.7297 -1.3744 -3.0849
 4696TIP3   OH238282   7.453   5.923  18.969 -0.3141  0.2129  0.4200
 4696TIP3    H138283   7.491   5.976  19.039 -2.9409  0.6091  1.6217
 4696TIP3    H238284   7.493   5.837  18.980 -0.5194  0.3241  2.3005
 4697TIP3   OH238285   4.795   3.680  18.529 -0.2948 -0.7678 -0.4439
 4697TIP3    H138286   4.862   3.708  18.467 -0.6177  0.5676 -0.2435
 4697TIP3    H238287   4.713   3.716  18.494 -0.5826 -0.5878  0.3660
 4698TIP3   OH238288   1.429   4.694  17.689  0.3102 -0.1731  0.5154
 4698TIP3    H138289   1.435   4.660  17.778  1.1447 -1.0051  0.1555
 4698TIP3    H238290   1.494   4.765  17.686  0.5299 -0.3727  0.4786
 4699TIP3   OH238291   7.495   1.082  17.715 -0.8683  0.3366  0.2416
 4699TIP3    H138292   7.461   1.042  17.795 -0.9947 -0.0065  0.0168
 4699TIP3    H238293   7.475   1.175  17.724 -0.3741  0.3896  0.8711
 4700TIP3   OH238294   4.599   4.289  18.140 -0.5527 -0.0147 -0.3064
 4700TIP3    H138295   4.589   4.304  18.046 -1.4639 -1.0070 -0.3870
 4700TIP3    H238296   4.667   4.223  18.146  0.4244  0.9794 -0.1824
 4701TIP3   OH238297   1.027   2.198  19.267  0.0687 -0.2096  0.3667
 4701TIP3    H138298   1.017   2.293  19.277 -1.0800 -0.4866  2.2184
 4701TIP3    H238299   1.112   2.188  19.223  0.1002  1.6782 -0.0821
 4702TIP3   OH238300   0.088   0.095  18.633 -0.1302 -0.2661  0.2646
 4702TIP3    H138301   0.038   0.060  18.559 -1.5603  0.1443  0.9948
 4702TIP3    H238302   0.072   0.189  18.631 -0.0108 -0.2238  0.9570
 4703TIP3   OH238303   0.496   0.547  17.697 -0.2642 -0.2303  0.0403
 4703TIP3    H138304   0.457   0.614  17.642  1.7837 -0.1107 -1.4042
 4703TIP3    H238305   0.542   0.595  17.766  0.8483 -0.1150 -0.7502
 4704TIP3   OH238306   2.953   5.725  19.755  0.5697  0.3444  0.1294
 4704TIP3    H138307   2.993   5.690  19.675 -0.4170 -1.3915  0.3676
 4704TIP3    H238308   2.885   5.663  19.778 -0.1118  1.5502  1.5652
 4705TIP3   OH238309   1.018   1.008  19.006  0.9378  0.0442 -0.4515
 4705TIP3    H138310   1.099   0.962  18.984  1.3291  0.8540 -0.7787
 4705TIP3    H238311   1.009   1.074  18.937  0.2611  0.2876 -0.1397
 4706TIP3   OH238312   2.649   2.143  17.460 -0.0314  0.5046 -0.1323
 4706TIP3    H138313   2.621   2.102  17.377 -2.3068  1.6112 -0.0024
 4706TIP3    H238314   2.625   2.235  17.449  1.4685  1.0585  1.0358
 4707TIP3   OH238315   4.218   0.434  18.667 -0.2472  0.2256  1.0943
 4707TIP3    H138316   4.312   0.450  18.672  0.0436 -1.3746  0.9801
 4707TIP3    H238317   4.179   0.521  18.681  1.2407  1.1078  0.0757
 4708TIP3   OH238318   7.326   2.951  18.099  0.0014  0.6907  0.2876
 4708TIP3    H138319   7.337   2.956  18.004 -1.0789  0.8555  0.1570
 4708TIP3    H238320   7.329   3.042  18.128  1.4721  0.5722  0.5651
 4709TIP3   OH238321   2.288   4.962  17.745 -0.1150  0.0829  0.4657
 4709TIP3    H138322   2.346   4.994  17.676 -0.9352 -0.2840 -0.4177
 4709TIP3    H238323   2.284   5.034  17.808 -2.2249  1.9686 -1.6506
 4710TIP3   OH238324   2.561   5.997  16.800  0.3339 -0.1686 -0.3285
 4710TIP3    H138325   2.649   5.985  16.763  0.5472 -0.6411  0.3112
 4710TIP3    H238326   2.572   6.067  16.864 -0.2683  1.4250 -1.9043
 4711TIP3   OH238327   3.963   4.258  19.379 -0.3663  0.1785 -0.4162
 4711TIP3    H138328   4.044   4.247  19.329  0.3304  1.3083  0.3807
 4711TIP3    H238329   3.950   4.353  19.382  0.4697  0.3185  2.7346
 4712TIP3   OH238330   4.045   0.404  18.344 -0.6992 -0.5391 -0.0529
 4712TIP3    H138331   4.045   0.337  18.412 -1.4628 -0.2023  0.2956
 4712TIP3    H238332   4.109   0.373  18.280  0.9680 -0.2416  1.4038
 4713TIP3   OH238333   3.661   7.309  18.477  0.4083  0.6820 -0.3431
 4713TIP3    H138334   3.568   7.328  18.469  0.2136 -0.2706 -0.4012
 4713TIP3    H238335   3.672   7.222  18.438  1.0020 -0.0439  1.3434
 4714TIP3   OH238336   6.946   0.187  17.614  0.3295 -0.3072  0.2672
 4714TIP3    H138337   6.942   0.230  17.699  0.6945  0.0504  0.1034
 4714TIP3    H238338   7.030   0.212  17.577 -0.4552  0.7934 -0.8590
 4715TIP3   OH238339   6.805   2.480  17.880  0.2367  0.1870 -0.5001
 4715TIP3    H138340   6.771   2.558  17.924 -0.6353 -1.1009  1.2253
 4715TIP3    H238341   6.897   2.475  17.907 -0.2377 -0.4833  1.1175
 4716TIP3   OH238342   0.271   3.634  18.634 -0.2762  0.6291 -0.0412
 4716TIP3    H138343   0.355   3.650  18.678 -0.2139 -1.0806  0.5379
 4716TIP3    H238344   0.293   3.627  18.541  0.0879  1.0718  0.0081
 4717TIP3   OH238345   6.650   1.902  18.320 -0.2718  0.0446 -0.0546
 4717TIP3    H138346   6.694   1.828  18.279 -0.5722 -1.1811  1.7251
 4717TIP3    H238347   6.557   1.890  18.299 -0.3853 -0.3963  0.6909
 4718TIP3   OH238348   1.942   5.515  18.648  0.0940 -0.5665  0.4173
 4718TIP3    H138349   1.939   5.521  18.553 -1.6729  0.9803  0.5289
 4718TIP3    H238350   2.014   5.573  18.674  1.4526 -1.9823  0.0243
 4719TIP3   OH238351   4.684   5.619  19.182 -0.5132 -0.3216  0.1319
 4719TIP3    H138352   4.599   5.656  19.205 -1.0571 -0.5798 -1.4063
 4719TIP3    H238353   4.684   5.531  19.221 -0.8296 -0.2213  0.3589
 4720TIP3   OH238354   4.408   6.268  18.620 -0.2080 -0.3382  0.1324
 4720TIP3    H138355   4.402   6.294  18.528 -0.4113 -1.0339 -0.0529
 4720TIP3    H238356   4.398   6.350  18.668  2.4695  0.4586 -0.4961
 4721TIP3   OH238357   2.095   0.081  18.266  0.2259  0.2462 -0.6389
 4721TIP3    H138358   2.155   0.139  18.311 -0.2378  0.2359  0.0002
 4721TIP3    H238359   2.141  -0.003  18.261  0.7822  0.5800 -1.3221
 4722TIP3   OH238360   5.520   2.195  18.374 -0.3653  0.3812 -0.5456
 4722TIP3    H138361   5.451   2.201  18.440  0.0901  2.3933 -0.1802
 4722TIP3    H238362   5.597   2.234  18.416  0.2857  0.5100 -1.8009
 4723TIP3   OH238363   0.435   4.676  18.067  0.2602  0.0211 -0.4137
 4723TIP3    H138364   0.382   4.632  18.001 -0.4884  0.9184 -0.4350
 4723TIP3    H238365   0.373   4.704  18.134  0.9999 -0.7904  0.6368
 4724TIP3   OH238366   2.027   2.509  17.998  0.0302 -0.4106 -0.0508
 4724TIP3    H138367   1.969   2.572  17.956 -1.0067 -0.4464  1.2485
 4724TIP3    H238368   2.098   2.563  18.035  0.0513 -0.2067 -0.3806
 4725TIP3   OH238369   3.223   1.798  18.324 -0.0700 -0.3492  0.3738
 4725TIP3    H138370   3.295   1.767  18.269  0.1619  0.3313  0.2851
 4725TIP3    H238371   3.179   1.718  18.353  0.2133 -0.7396 -0.2512
 4726TIP3   OH238372   1.404   5.933  19.365  0.2306  0.0146  0.1675
 4726TIP3    H138373   1.483   5.908  19.411 -0.4635 -0.9146  0.9026
 4726TIP3    H238374   1.372   6.010  19.412 -1.3184 -1.8184  2.3661
 4727TIP3   OH238375   3.201   7.099  17.555  0.5593  0.7027  0.4517
 4727TIP3    H138376   3.110   7.126  17.565  0.0645 -0.3877 -0.8036
 4727TIP3    H238377   3.234   7.152  17.482  0.7134  0.6004  0.4470
 4728TIP3   OH238378   4.238   3.487  19.143 -0.4400 -0.5188 -0.1281
 4728TIP3    H138379   4.332   3.484  19.158 -0.2553  0.2622 -0.9855
 4728TIP3    H238380   4.224   3.433  19.066 -0.3001  1.3567 -1.5503
 4729TIP3   OH238381   2.728   3.714  18.911 -0.1589 -0.5106  0.0463
 4729TIP3    H138382   2.795   3.763  18.958  0.5023  0.1839 -1.5577
 4729TIP3    H238383   2.654   3.711  18.971  0.9019 -0.3076  1.4060
 4730TIP3   OH238384   3.922   4.592  18.539  0.9238 -0.2297 -0.0510
 4730TIP3    H138385   3.863   4.599  18.464 -2.6471 -1.0927  2.3839
 4730TIP3    H238386   3.905   4.505  18.575  1.4301  0.6197  2.5084
 4731TIP3   OH238387   3.869   3.402  19.063  0.1565  0.1731  0.0284
 4731TIP3    H138388   3.775   3.412  19.076  0.1447 -0.0551  0.1185
 4731TIP3    H238389   3.908   3.478  19.107 -0.0421  0.7838 -0.8244
 4732TIP3   OH238390   5.079   1.768  17.003 -0.6971 -0.1148  0.2284
 4732TIP3    H138391   4.986   1.753  17.017 -0.5932 -0.5469  0.5054
 4732TIP3    H238392   5.120   1.684  17.024 -0.0522  0.6057  2.0280
 4733TIP3   OH238393   4.267   1.102  17.831  0.0012  0.7386  0.2858
 4733TIP3    H138394   4.275   1.007  17.817 -0.5450  0.8250 -0.7651
 4733TIP3    H238395   4.320   1.140  17.761 -0.0551  1.2094  0.4988
 4734TIP3   OH238396   4.558   5.047  18.945 -0.2338  0.6104 -0.1168
 4734TIP3    H138397   4.463   5.050  18.962 -0.2560 -1.1510  0.3284
 4734TIP3    H238398   4.597   5.074  19.028 -0.3456  1.1880 -0.2516
 4735TIP3   OH238399   7.607   1.364  18.361 -0.3465  0.1714  0.2466
 4735TIP3    H138400   7.654   1.436  18.319 -2.1856  1.0027 -0.5063
 4735TIP3    H238401   7.636   1.286  18.313 -0.0357  0.7040 -0.4682
 4736TIP3   OH238402   0.872   6.244  16.869  0.2206 -0.2132  0.1673
 4736TIP3    H138403   0.943   6.198  16.824 -0.9905 -2.1800  0.1508
 4736TIP3    H238404   0.794   6.222  16.818 -0.8697 -0.7867  2.0050
 4737TIP3   OH238405   4.846   3.180  18.265 -0.1981 -0.0741 -0.3826
 4737TIP3    H138406   4.929   3.226  18.254  0.7165 -1.8675 -1.6386
 4737TIP3    H238407   4.798   3.199  18.185 -0.1102 -0.6694 -0.5853
 4738TIP3   OH238408   0.463   0.932  18.538 -0.1292 -0.5526 -0.1984
 4738TIP3    H138409   0.469   0.918  18.444 -0.4681  1.0226 -0.4750
 4738TIP3    H238410   0.376   0.899  18.562 -0.9775  1.0855 -0.8635
 4739TIP3   OH238411   7.332   6.996  18.761 -0.1706 -0.0747 -0.2339
 4739TIP3    H138412   7.284   7.064  18.808  0.3195 -0.0291  0.2099
 4739TIP3    H238413   7.413   6.985  18.810  0.3423 -0.0520 -1.0572
 4740TIP3   OH238414   2.861   4.985  17.709  0.1222 -0.1830 -0.4142
 4740TIP3    H138415   2.773   4.956  17.732 -0.2208 -0.8039 -2.3326
 4740TIP3    H238416   2.872   4.960  17.617  1.9214  0.8017 -0.5259
 4741TIP3   OH238417   3.108   3.185  17.374 -0.3246  0.1462  0.4471
 4741TIP3    H138418   3.113   3.276  17.401 -1.2565  0.4342 -0.2970
 4741TIP3    H238419   3.066   3.188  17.288  1.1621 -0.8537 -0.3533
 4742TIP3   OH238420   5.751   4.069  18.425 -0.2004 -0.2990  0.1608
 4742TIP3    H138421   5.694   4.019  18.367 -0.0263  0.8176 -1.0058
 4742TIP3    H238422   5.714   4.157  18.425  1.3076  0.3666 -0.3741
 4743TIP3   OH238423   2.532   2.388  16.775  0.3299 -0.0932  0.2609
 4743TIP3    H138424   2.494   2.455  16.831 -0.4193  0.3567 -0.7568
 4743TIP3    H238425   2.458   2.334  16.747  0.6658 -0.2463 -0.3667
 4744TIP3   OH238426   4.091   6.907  17.432  0.1985 -0.5883  0.1940
 4744TIP3    H138427   4.091   6.987  17.379  3.5480  0.7768  1.9314
 4744TIP3    H238428   4.140   6.843  17.379  0.2712 -0.4543  0.0991
 4745TIP3   OH238429   6.132   3.627  18.937 -0.4697  0.3179 -0.8944
 4745TIP3    H138430   6.224   3.598  18.932 -1.1327 -1.7443 -3.0586
 4745TIP3    H238431   6.100   3.589  19.019  0.4462  0.6819 -0.3393
 4746TIP3   OH238432   2.656   2.544  19.080 -0.5315 -0.2379  0.0299
 4746TIP3    H138433   2.568   2.548  19.117  0.0146  1.0891  1.2677
 4746TIP3    H238434   2.669   2.630  19.040  0.3630 -0.2783  0.2320
 4747TIP3   OH238435   1.057   2.249  18.134 -0.1216  0.5340 -0.4226
 4747TIP3    H138436   1.074   2.281  18.223  1.2880  1.5401 -1.0073
 4747TIP3    H238437   1.082   2.156  18.137  0.8824  0.7994  0.0049
 4748TIP3   OH238438   2.809   4.478  18.422  0.4470 -0.2065 -0.4834
 4748TIP3    H138439   2.892   4.498  18.466 -0.7221  0.1024  1.6917
 4748TIP3    H238440   2.778   4.399  18.466 -0.5759 -0.1250 -1.0438
 4749TIP3   OH238441   2.703   3.984  17.880  0.0444 -0.0906  0.1394
 4749TIP3    H138442   2.676   3.895  17.858 -0.6357  0.3295 -0.7874
 4749TIP3    H238443   2.797   3.977  17.897 -0.3891 -1.3744  2.3090
 4750TIP3   OH238444   2.259   5.591  18.637  0.6915 -0.4866 -0.7905
 4750TIP3    H138445   2.215   5.626  18.559 -2.0230 -1.3209  0.2529
 4750TIP3    H238446   2.243   5.497  18.632 -1.1785 -0.3904  1.6370
 4751TIP3   OH238447   6.291   7.451  17.342 -0.3193 -0.5327  0.1865
 4751TIP3    H138448   6.380   7.476  17.369 -0.2379 -0.9098  0.2776
 4751TIP3    H238449   6.235   7.482  17.413 -0.5027  1.5019 -0.7931
 4752TIP3   OH238450   1.338   0.279  18.298  0.3954 -0.0057 -0.3907
 4752TIP3    H138451   1.399   0.257  18.228  2.3318  0.5027  1.0543
 4752TIP3    H238452   1.364   0.223  18.371  0.4875  1.6697  0.9146
 4753TIP3   OH238453   0.440   6.590  18.642 -0.5956  0.8252  0.2986
 4753TIP3    H138454   0.413   6.508  18.683  1.6101 -0.7954 -1.2429
 4753TIP3    H238455   0.397   6.589  18.557  1.0934  0.0898 -0.6142
 4754TIP3   OH238456   1.623   6.374  18.908  0.0190 -0.4214 -0.1325
 4754TIP3    H138457   1.661   6.453  18.946  0.9429 -0.6887 -0.4684
 4754TIP3    H238458   1.658   6.303  18.962 -0.6232 -0.6282  0.0266
 4755TIP3   OH238459   0.113   3.166  19.114  0.2050 -0.1026  0.4827
 4755TIP3    H138460   0.156   3.179  19.029 -3.2465  1.0757 -1.2961
 4755TIP3    H238461   0.098   3.071  19.118 -0.4192 -0.0725 -0.7167
 4756TIP3   OH238462   7.461   0.404  17.387  0.2497 -0.0052  0.2225
 4756TIP3    H138463   7.452   0.484  17.439 -1.7386  0.1094 -0.2289
 4756TIP3    H238464   7.507   0.343  17.445 -1.5551  0.2426  2.0261
 4757TIP3   OH238465   6.828   6.287  18.301 -0.0331  0.2572  0.3025
 4757TIP3    H138466   6.903   6.298  18.359  0.3695 -1.0377  0.0548
 4757TIP3    H238467   6.775   6.219  18.342  1.3150 -2.2389 -1.8257
 4758TIP3   OH238468   3.772   1.548  19.376  0.0017  0.0738 -0.4611
 4758TIP3    H138469   3.848   1.552  19.434 -0.1713 -0.6760 -0.1686
 4758TIP3    H238470   3.723   1.471  19.406 -0.7901  0.4561 -0.7489
 4759TIP3   OH238471   4.667   5.532  18.327 -0.1354 -0.0881  0.3508
 4759TIP3    H138472   4.734   5.598  18.312  1.0297 -0.9954  1.3839
 4759TIP3    H238473   4.704   5.452  18.290 -1.1524 -0.3825 -0.0801
 4760TIP3   OH238474   4.765   2.439  17.387  0.7503  0.3202 -0.6461
 4760TIP3    H138475   4.824   2.502  17.428  0.9540  0.1675 -0.7009
 4760TIP3    H238476   4.799   2.354  17.414  0.7122  0.2245 -0.8960
 4761TIP3   OH238477   1.644   2.246  18.663 -0.2043 -0.0785  0.0185
 4761TIP3    H138478   1.613   2.215  18.748 -0.5933  1.4065  0.4431
 4761TIP3    H238479   1.721   2.191  18.645  0.1670 -0.1202  1.5475
 4762TIP3   OH238480   0.019   1.090  18.756 -0.0886  0.1237  0.0286
 4762TIP3    H138481  -0.007   1.002  18.784 -0.0986  0.7497  2.2147
 4762TIP3    H238482  -0.061   1.129  18.721 -0.6299 -0.0402  1.0436
 4763TIP3   OH238483   3.227   3.783  18.800  0.1616 -0.2550 -0.0539
 4763TIP3    H138484   3.287   3.809  18.870  0.5256 -0.8632 -0.1373
 4763TIP3    H238485   3.239   3.689  18.791 -0.5655 -0.3291 -0.3042
 4764TIP3   OH238486   7.441   3.698  18.307 -0.6160  0.6290  0.3355
 4764TIP3    H138487   7.368   3.636  18.303 -1.2132  1.2347  1.4547
 4764TIP3    H238488   7.413   3.764  18.371 -0.0584  2.1322 -0.9188
 4765TIP3   OH238489   2.520   4.400  18.105 -0.5130  0.1579  0.7251
 4765TIP3    H138490   2.511   4.345  18.183 -0.1549 -1.8143 -0.5477
 4765TIP3    H238491   2.431   4.404  18.069 -0.1290 -2.1847 -0.7612
 4766TIP3   OH238492   0.656   1.518  17.858  0.6524 -0.3791 -0.0799
 4766TIP3    H138493   0.603   1.535  17.935  3.2999 -0.9024  2.0021
 4766TIP3    H238494   0.673   1.424  17.859  1.5587 -0.2481 -0.6896
 4767TIP3   OH238495   7.180   6.610  19.351 -0.3013  0.1309 -0.4249
 4767TIP3    H138496   7.152   6.519  19.363  0.7329 -0.0758  0.5384
 4767TIP3    H238497   7.214   6.612  19.262 -0.3407 -0.4267 -0.4602
 4768TIP3   OH238498   1.511   2.542  18.478 -0.3858 -0.0438  0.4164
 4768TIP3    H138499   1.482   2.569  18.392 -1.9953 -0.7952  0.6944
 4768TIP3    H238500   1.533   2.624  18.523  1.5449  0.3050 -1.0143
 4769TIP3   OH238501   6.682   0.806  18.466  0.2037 -0.1200 -0.1376
 4769TIP3    H138502   6.612   0.803  18.531  1.0996  0.6716  0.8994
 4769TIP3    H238503   6.688   0.899  18.442  0.7757 -0.2072 -0.3488
 4770TIP3   OH238504   4.166   3.245  17.165 -0.4013  0.1411  0.0157
 4770TIP3    H138505   4.233   3.187  17.129 -0.9473 -3.4557  3.9490
 4770TIP3    H238506   4.211   3.292  17.235 -1.2238  0.2122  0.5100
 4771TIP3   OH238507   1.469   2.652  18.233  0.1683  0.3196  0.2238
 4771TIP3    H138508   1.559   2.649  18.200  0.0486  0.7536 -0.1449
 4771TIP3    H238509   1.458   2.741  18.267 -0.6041  0.7718 -1.1391
 4772TIP3   OH238510   1.002   5.332  18.426 -0.1113 -0.2152 -0.1234
 4772TIP3    H138511   0.930   5.273  18.400 -0.2030 -0.6207  0.9953
 4772TIP3    H238512   0.958   5.407  18.465  0.0243  0.3876 -1.1126
 4773TIP3   OH238513   2.596   0.260  17.069  0.5581 -0.4138  0.5865
 4773TIP3    H138514   2.663   0.216  17.016 -1.2259 -0.0907 -2.1254
 4773TIP3    H238515   2.530   0.192  17.085  0.3834 -0.1123  1.1796
 4774TIP3   OH238516   0.532   6.529  18.221  0.0644  0.3707  0.4033
 4774TIP3    H138517   0.537   6.550  18.127 -0.0628 -2.9951 -0.4582
 4774TIP3    H238518   0.617   6.491  18.241  0.4976  2.0403  2.0264
 4775TIP3   OH238519   3.114   1.561  18.386 -0.2975 -0.4369 -0.1569
 4775TIP3    H138520   3.034   1.546  18.435 -0.2506 -0.0463  0.0437
 4775TIP3    H238521   3.165   1.481  18.396 -0.3554 -0.4148  0.2990
 4776TIP3   OH238522   6.731   7.172  18.504  0.0051 -0.0920 -0.2274
 4776TIP3    H138523   6.763   7.096  18.456  0.8875  0.6378 -0.8255
 4776TIP3    H238524   6.801   7.193  18.566 -0.1619  0.3262 -0.1783
 4777TIP3   OH238525   4.050   4.507  16.865 -0.4744  0.0950 -0.2253
 4777TIP3    H138526   3.959   4.483  16.883 -0.5495  1.4500  1.5078
 4777TIP3    H238527   4.073   4.566  16.937  1.4817  0.5212 -1.1493
 4778TIP3   OH238528   2.784   0.715  18.202  0.5386  0.3196 -0.3938
 4778TIP3    H138529   2.830   0.794  18.229  0.7141  0.2683 -0.5479
 4778TIP3    H238530   2.700   0.720  18.249  0.3743  0.8069 -0.7316
 4779TIP3   OH238531   5.963   7.666  19.066 -0.1385 -0.0221  0.1834
 4779TIP3    H138532   5.874   7.638  19.083 -1.0339  2.8740  0.7939
 4779TIP3    H238533   6.012   7.639  19.144 -0.4972 -1.3878 -0.0405
 4780TIP3   OH238534   7.342   5.038  18.293 -0.1895  0.5483  0.0831
 4780TIP3    H138535   7.424   5.048  18.340 -1.5846  0.2850  2.7272
 4780TIP3    H238536   7.299   5.123  18.300  0.4264  1.1755 -2.6202
 4781TIP3   OH238537   4.949   2.193  19.339 -0.1887 -0.1304 -0.0707
 4781TIP3    H138538   4.865   2.156  19.363 -0.3398  0.4650  0.3501
 4781TIP3    H238539   4.928   2.267  19.282  0.0816 -0.3677 -0.4858
 4782TIP3   OH238540   4.135   2.176  17.713 -0.0346 -0.6385  0.2821
 4782TIP3    H138541   4.139   2.110  17.643 -0.2705 -0.1385 -0.2085
 4782TIP3    H238542   4.216   2.226  17.703 -1.3906  1.3513 -1.5676
 4783TIP3   OH238543   1.419   4.296  18.772 -0.5862 -0.2472 -0.3725
 4783TIP3    H138544   1.426   4.271  18.680  0.0229 -0.7456 -0.2048
 4783TIP3    H238545   1.507   4.281  18.807 -0.8759 -0.3032  0.3475
 4784TIP3   OH238546   4.726   2.644  19.095 -0.6573 -0.1717  0.0973
 4784TIP3    H138547   4.774   2.707  19.148  0.5159 -1.5123  0.6904
 4784TIP3    H238548   4.643   2.688  19.074  0.2830  1.6865  0.1401
 4785TIP3   OH238549   5.370   3.479  17.784  0.9430  0.6379 -0.1351
 4785TIP3    H138550   5.390   3.567  17.753 -2.3721  2.1443  1.4592
 4785TIP3    H238551   5.313   3.443  17.715  1.5124  0.0996 -0.3304
 4786TIP3   OH238552   2.631   0.471  18.586 -0.4836  0.6848  0.1336
 4786TIP3    H138553   2.625   0.450  18.493  0.5874 -1.6128  0.5239
 4786TIP3    H238554   2.564   0.416  18.628 -0.5280  1.2255  0.7896
 4787TIP3   OH238555   1.669   5.909  18.993 -0.1461 -0.5674  0.4867
 4787TIP3    H138556   1.735   5.861  19.042 -1.6334 -1.9529  1.2252
 4787TIP3    H238557   1.591   5.854  18.997 -0.8042  0.0502 -2.0725
 4788TIP3   OH238558   1.978   1.078  19.002  0.6349  0.0273  0.0942
 4788TIP3    H138559   2.050   1.102  19.060 -0.4086 -0.3731  1.6322
 4788TIP3    H238560   1.984   0.983  18.994 -0.4961 -0.1905  1.3891
 4789TIP3   OH238561   3.667   0.060  18.984 -0.6247  0.1645  0.1054
 4789TIP3    H138562   3.626   0.036  19.067 -0.0870 -0.1573  0.2844
 4789TIP3    H238563   3.726  -0.013  18.965  2.6638  2.1695  1.7054
 4790TIP3   OH238564   5.667   5.450  17.461 -0.0551  0.2770  0.4008
 4790TIP3    H138565   5.707   5.370  17.496 -0.7047 -0.6803 -0.9629
 4790TIP3    H238566   5.586   5.460  17.511 -0.4979 -0.5344 -0.1349
 4791TIP3   OH238567   1.866   3.659  17.810 -0.1161  0.4526 -0.0594
 4791TIP3    H138568   1.945   3.691  17.768 -0.5565  2.7290  0.6976
 4791TIP3    H238569   1.888   3.654  17.903 -0.6808  0.6337  0.0934
 4792TIP3   OH238570   0.137   7.513  18.465 -0.1433 -0.1183  0.5643
 4792TIP3    H138571   0.063   7.471  18.420  1.4766 -1.1770 -1.2919
 4792TIP3    H238572   0.142   7.469  18.550 -0.3761 -1.5788 -0.1409
 4793TIP3   OH238573   3.413   6.656  19.052  0.2934 -0.0312 -1.1245
 4793TIP3    H138574   3.483   6.607  19.010  0.2520 -0.7481 -0.3691
 4793TIP3    H238575   3.420   6.744  19.015  2.7284  0.4183  0.1964
 4794TIP3   OH238576   3.024   3.909  18.646  0.1180  0.1021 -0.3974
 4794TIP3    H138577   2.952   3.848  18.632 -0.2143  0.4995 -0.4010
 4794TIP3    H238578   3.087   3.859  18.699 -0.7090  0.1647  0.6899
 4795TIP3   OH238579   5.105   2.470  19.264  0.3089 -0.2805 -0.9477
 4795TIP3    H138580   5.125   2.432  19.350 -1.1602  0.2365 -0.3429
 4795TIP3    H238581   5.158   2.549  19.259  0.4625 -0.3582 -0.5601
 4796TIP3   OH238582   6.065   3.288  18.731 -0.2028 -0.2298 -0.4831
 4796TIP3    H138583   6.039   3.262  18.819  2.8231  3.0951  1.6996
 4796TIP3    H238584   6.026   3.375  18.719  1.2650  0.3553 -1.4006
 4797TIP3   OH238585   5.704   3.502  18.711  0.3271  0.1271 -0.0973
 4797TIP3    H138586   5.655   3.578  18.741  0.7983  1.4259 -2.3970
 4797TIP3    H238587   5.796   3.529  18.713  0.5668 -0.6321 -0.2452
 4798TIP3   OH238588   5.742   0.067  19.449 -0.3267 -0.0451  0.0275
 4798TIP3    H138589   5.767  -0.014  19.406 -0.5710 -0.3828  0.5205
 4798TIP3    H238590   5.754   0.051  19.542 -0.0459  0.6010  0.1093
 4799TIP3   OH238591   3.713   1.733  17.616 -0.1057 -0.4554  0.0397
 4799TIP3    H138592   3.649   1.680  17.664 -1.1330  0.7929  0.0824
 4799TIP3    H238593   3.708   1.700  17.526 -1.7058  0.4101 -0.2233
 4800TIP3   OH238594   3.018   0.452  17.437  0.1043  0.3277 -0.5364
 4800TIP3    H138595   3.088   0.418  17.494 -1.8134 -0.7020  1.3569
 4800TIP3    H238596   3.030   0.404  17.355  2.4942  1.2889 -0.8301
 4801TIP3   OH238597   3.244   3.218  18.831 -0.5197 -0.0106 -0.1692
 4801TIP3    H138598   3.213   3.261  18.752 -1.0552 -1.9419 -1.0637
 4801TIP3    H238599   3.215   3.127  18.823  0.0733 -0.4507  1.8919
 4802TIP3   OH238600   4.310   3.554  18.182  0.3131  0.1874  0.7694
 4802TIP3    H138601   4.275   3.573  18.095 -1.3891 -1.0888  1.1336
 4802TIP3    H238602   4.376   3.486  18.167 -0.6956 -0.7753  0.5535
 4803TIP3   OH238603   5.974   4.655  18.750 -0.2194 -0.2803 -0.0012
 4803TIP3    H138604   6.019   4.594  18.692  0.6331  1.7575 -1.6099
 4803TIP3    H238605   5.901   4.605  18.786 -0.0272 -1.9995 -1.8703
 4804TIP3   OH238606   0.255   0.742  17.268 -0.5559  0.3187  0.6351
 4804TIP3    H138607   0.169   0.719  17.233 -0.9584 -2.0522  2.8055
 4804TIP3    H238608   0.317   0.702  17.207 -1.1094 -0.3807  0.5055
 4805TIP3   OH238609   6.400   0.343  17.397  0.3580 -0.4011 -0.0369
 4805TIP3    H138610   6.486   0.385  17.401  0.9421 -1.4750 -0.8152
 4805TIP3    H238611   6.415   0.255  17.432 -0.5483 -0.4249  0.3129
 4806TIP3   OH238612   7.437   1.917  17.071  0.8296 -0.4846 -0.0045
 4806TIP3    H138613   7.407   1.951  17.155 -1.9684 -0.2176 -0.9917
 4806TIP3    H238614   7.482   1.991  17.030 -0.4455  0.3735  0.0741
 4807TIP3   OH238615   5.610   3.455  17.947  0.1286  0.2326 -0.0478
 4807TIP3    H138616   5.566   3.489  18.025 -2.1832 -2.0402 -0.2335
 4807TIP3    H238617   5.541   3.450  17.881  1.8489  1.2989 -2.0395
 4808TIP3   OH238618   1.869   0.346  18.824 -0.1292  0.0943 -0.3107
 4808TIP3    H138619   1.938   0.342  18.758 -0.1920  0.1678 -0.3830
 4808TIP3    H238620   1.910   0.386  18.900 -0.0623  0.0332 -0.3154
 4809TIP3   OH238621   2.000   7.547  18.849  0.0210 -0.2560  0.3780
 4809TIP3    H138622   1.932   7.561  18.783 -0.2449  0.0518  0.7132
 4809TIP3    H238623   1.958   7.492  18.915  0.5358 -1.2513 -0.0931
 4810TIP3   OH238624   2.168   5.146  18.815 -0.0097  0.2803 -0.1263
 4810TIP3    H138625   2.085   5.144  18.767 -0.4064  0.6251  0.5341
 4810TIP3    H238626   2.228   5.193  18.758 -0.2390 -0.0622 -0.6535
 4811TIP3   OH238627   6.408   5.968  19.575 -0.1227 -0.3204  0.0406
 4811TIP3    H138628   6.345   6.002  19.639 -0.2315 -0.0981 -0.1836
 4811TIP3    H238629   6.380   5.878  19.560 -0.2279 -0.3058  0.1460
 4812TIP3   OH238630   1.702   7.302  18.108 -0.1153  0.1531 -0.2447
 4812TIP3    H138631   1.657   7.258  18.036 -0.2322 -0.6595  0.3110
 4812TIP3    H238632   1.734   7.231  18.164  0.2013  0.7621  0.3681
 4813TIP3   OH238633   1.912   0.299  19.162  0.0732 -0.2206  0.5620
 4813TIP3    H138634   1.989   0.318  19.109  0.2503 -0.2407  0.8132
 4813TIP3    H238635   1.874   0.220  19.123 -1.5099  1.4046 -1.4252
 4814TIP3   OH238636   6.535   4.944  17.835  0.0442 -0.0457 -0.2322
 4814TIP3    H138637   6.497   5.010  17.777  0.5202 -0.2632 -0.7957
 4814TIP3    H238638   6.475   4.941  17.909  0.5368  1.7780  0.3066
 4815TIP3   OH238639   3.922   3.414  18.645  0.3155  0.5337  0.0010
 4815TIP3    H138640   3.907   3.326  18.681 -1.1700  0.4795 -0.6891
 4815TIP3    H238641   3.845   3.431  18.591  0.8705  2.0291 -0.3537
 4816TIP3   OH238642   0.044   7.239  17.535 -0.0267 -0.1963 -0.5321
 4816TIP3    H138643  -0.003   7.186  17.471  1.0156 -0.0978 -1.4064
 4816TIP3    H238644   0.095   7.175  17.586  1.4395 -0.0722 -1.7602
 4817TIP3   OH238645   3.575   5.465  17.766 -0.2150  0.3123  0.3539
 4817TIP3    H138646   3.516   5.537  17.744 -0.7375  0.7866  2.9799
 4817TIP3    H238647   3.651   5.478  17.709 -1.1864  1.6966 -0.6880
 4818TIP3   OH238648   3.046   7.383  18.417 -1.1274  0.2972  0.6633
 4818TIP3    H138649   3.064   7.374  18.510 -1.1019  0.1625  0.6438
 4818TIP3    H238650   2.989   7.310  18.395  2.0010 -2.0770 -0.2600
 4819TIP3   OH238651   0.948   1.176  18.582  0.5537 -0.1922 -0.0719
 4819TIP3    H138652   0.938   1.081  18.579  0.6755 -0.2255  0.4690
 4819TIP3    H238653   0.984   1.194  18.669 -1.8513  0.5449  0.8576
 4820TIP3   OH238654   4.012   4.023  17.642  0.2409 -0.0222  0.4445
 4820TIP3    H138655   4.080   4.086  17.620  0.0570  0.5792  1.5301
 4820TIP3    H238656   4.059   3.941  17.660  0.6375  0.2758  0.7692
 4821TIP3   OH238657   5.552   0.741  17.120  0.3269 -0.3192 -0.1649
 4821TIP3    H138658   5.626   0.801  17.117 -0.9532  1.2979 -2.1290
 4821TIP3    H238659   5.554   0.695  17.037 -1.0772  0.0942 -0.4667
 4822TIP3   OH238660   1.917   3.879  18.950 -0.3025  0.0299 -0.1098
 4822TIP3    H138661   2.010   3.860  18.939 -0.2786  0.3003 -0.3874
 4822TIP3    H238662   1.914   3.951  19.013 -0.2199  1.2383 -1.4408
 4823TIP3   OH238663   0.154   0.334  18.044 -0.2688  0.3280  0.5632
 4823TIP3    H138664   0.121   0.245  18.052  0.4653  0.1029  1.3272
 4823TIP3    H238665   0.210   0.332  17.966  1.1430 -0.3680  1.5487
 4824TIP3   OH238666   0.608   7.157  19.796  0.5465  0.3241 -0.0493
 4824TIP3    H138667   0.592   7.091  19.728 -0.5507  0.5837 -0.0676
 4824TIP3    H238668   0.520   7.179  19.828  1.0805 -0.5451  2.1716
 4825TIP3   OH238669   1.891   3.652  17.097  0.0582  0.3993 -0.5520
 4825TIP3    H138670   1.808   3.627  17.057 -1.0512  3.0001 -0.1013
 4825TIP3    H238671   1.919   3.575  17.147 -2.3040 -0.3891 -0.3588
 4826TIP3   OH238672   5.798   5.125  18.883 -0.1975 -0.0331 -0.7479
 4826TIP3    H138673   5.882   5.109  18.839  0.0708  0.1846 -0.3193
 4826TIP3    H238674   5.749   5.044  18.871  0.1441 -0.2257 -0.8450
 4827TIP3   OH238675   1.597   5.071  19.218  0.0761  0.0805 -0.5173
 4827TIP3    H138676   1.512   5.077  19.173 -0.0448 -0.9597 -0.4630
 4827TIP3    H238677   1.584   5.002  19.284  1.7577 -2.1949 -2.3898
 4828TIP3   OH238678   5.168   2.038  19.364 -0.2185 -0.1954 -0.1058
 4828TIP3    H138679   5.106   1.980  19.409  1.3979 -2.3539 -0.5111
 4828TIP3    H238680   5.127   2.125  19.368 -3.0462 -1.4444 -0.0379
 4829TIP3   OH238681   7.574   3.855  18.110  0.3857  0.0350  0.1914
 4829TIP3    H138682   7.627   3.883  18.185  0.1438 -1.9142  1.1568
 4829TIP3    H238683   7.506   3.800  18.149 -1.7973  1.6658 -1.1331
 4830TIP3   OH238684   6.791   0.521  19.232  0.4055  0.0984  0.2152
 4830TIP3    H138685   6.854   0.547  19.165 -0.8200  0.6336 -0.7696
 4830TIP3    H238686   6.812   0.430  19.251  0.8332 -0.0412 -0.8530
 4831TIP3   OH238687   7.379   3.223  18.582  0.8466  0.2369 -0.6617
 4831TIP3    H138688   7.384   3.143  18.530  2.3706 -1.6548  2.0975
 4831TIP3    H238689   7.286   3.244  18.587  0.3740 -1.6259 -1.1303
 4832TIP3   OH238690   1.880   5.074  18.902 -0.3160 -0.1280  0.3176
 4832TIP3    H138691   1.890   5.011  18.830  0.4225  0.2617  0.0733
 4832TIP3    H238692   1.809   5.131  18.874 -0.0060  0.0466 -0.1209
 4833TIP3   OH238693   1.485   4.781  17.243 -0.0283 -0.6586 -0.4832
 4833TIP3    H138694   1.460   4.690  17.262 -1.0679 -0.2233  0.4026
 4833TIP3    H238695   1.523   4.778  17.156 -0.1756 -1.9249 -0.5248
 4834TIP3   OH238696   3.508   6.222  16.870  0.0795 -0.4662  0.5547
 4834TIP3    H138697   3.562   6.297  16.847 -1.9486  0.6816 -0.8238
 4834TIP3    H238698   3.559   6.174  16.935  3.0663  0.0435 -1.2370
 4835TIP3   OH238699   4.028   5.268  18.300 -0.0217 -0.5442 -0.7172
 4835TIP3    H138700   3.969   5.261  18.225 -1.3449 -1.3326  0.3575
 4835TIP3    H238701   4.024   5.182  18.341 -0.7254  0.4067  1.2858
 4836TIP3   OH238702   6.033   5.148  18.632  0.0879 -0.1020 -0.2083
 4836TIP3    H138703   5.971   5.115  18.567 -0.2181 -0.4632  0.2508
 4836TIP3    H238704   6.050   5.072  18.688 -1.6221  0.7813  1.6625
 4837TIP3   OH238705   1.288   1.950  17.187  0.0771 -0.6861  0.2995
 4837TIP3    H138706   1.211   1.896  17.199  1.1042 -2.7467 -1.5615
 4837TIP3    H238707   1.272   1.998  17.105  0.5178 -0.6570  0.2255
 4838TIP3   OH238708   6.954   6.489  17.921 -0.0825  0.0082 -0.0574
 4838TIP3    H138709   6.958   6.394  17.936 -0.5767 -0.0602 -0.3379
 4838TIP3    H238710   6.903   6.499  17.840 -0.7958  0.5495  0.4420
 4839TIP3   OH238711   3.868   2.346  19.068  0.5474  0.3734  0.1948
 4839TIP3    H138712   3.877   2.309  18.980 -0.8106 -1.3702  0.7358
 4839TIP3    H238713   3.926   2.293  19.123  0.2805  0.5019  0.6087
 4840TIP3   OH238714   4.738   5.548  17.175  0.3746 -0.2655 -0.2597
 4840TIP3    H138715   4.738   5.642  17.159  0.8862 -0.5276 -2.0182
 4840TIP3    H238716   4.645   5.523  17.172  0.3663 -0.1324 -2.1080
 4841TIP3   OH238717   5.370   3.768  17.826 -0.1559 -0.2181 -0.0830
 4841TIP3    H138718   5.284   3.741  17.857 -0.1784  0.8231  0.8257
 4841TIP3    H238719   5.352   3.826  17.751 -0.1544 -1.4323 -1.0653
 4842TIP3   OH238720   5.097   1.987  16.810 -0.2674 -0.4188  0.3280
 4842TIP3    H138721   5.085   1.895  16.834  2.6656 -1.3471 -1.2377
 4842TIP3    H238722   5.163   2.019  16.871 -0.0310  0.1221 -0.2014
 4843TIP3   OH238723   3.295   1.510  18.656 -0.4548 -0.3054 -0.2963
 4843TIP3    H138724   3.249   1.443  18.606  0.4317 -0.0275 -1.5325
 4843TIP3    H238725   3.387   1.482  18.655 -0.1958  0.5192 -0.1433
 4844TIP3   OH238726   6.088   5.648  17.839  0.0006 -0.6468 -0.4322
 4844TIP3    H138727   6.006   5.600  17.852  0.1369 -0.9637 -0.7115
 4844TIP3    H238728   6.093   5.661  17.745  1.1285 -2.1997 -0.6225
 4845TIP3   OH238729   6.310   6.268  18.444 -0.0558  0.1752  0.0641
 4845TIP3    H138730   6.383   6.206  18.438 -0.9114 -0.8498 -0.0103
 4845TIP3    H238731   6.253   6.231  18.512 -0.1802  1.3116  0.5846
 4846TIP3   OH238732   5.053   5.341  18.707  0.6078 -0.0922  0.1528
 4846TIP3    H138733   5.089   5.344  18.796 -0.3955 -2.3008  0.6961
 4846TIP3    H238734   4.969   5.386  18.714  1.0255  0.7269  0.0351
 4847TIP3   OH238735   2.772   1.952  16.971  0.0220 -0.2152 -0.1011
 4847TIP3    H138736   2.718   1.893  17.023 -0.1576  1.9171  2.3660
 4847TIP3    H238737   2.861   1.922  16.985 -0.0958 -0.1659  0.8491
 4848TIP3   OH238738   0.398   2.973  18.491  0.1975 -0.0146  0.1614
 4848TIP3    H138739   0.396   2.924  18.409 -1.0170 -0.3289  0.3674
 4848TIP3    H238740   0.370   2.911  18.558  0.1949  0.5124  0.6638
 4849TIP3   OH238741   0.163   1.436  18.085  0.2116  1.1426 -0.6098
 4849TIP3    H138742   0.242   1.423  18.034 -0.4583  0.6266 -1.5480
 4849TIP3    H238743   0.188   1.499  18.153  1.6770  0.2075 -0.2518
 4850TIP3   OH238744   7.278   7.404  18.293  0.5931  0.4595 -0.0837
 4850TIP3    H138745   7.313   7.491  18.315  0.6035  0.4832 -0.1940
 4850TIP3    H238746   7.341   7.367  18.231 -0.3227  1.1146 -1.4638
 4851TIP3   OH238747   6.353   5.063  19.399 -0.0528 -0.4638  0.1429
 4851TIP3    H138748   6.427   5.074  19.340  1.0608 -0.5205  1.4858
 4851TIP3    H238749   6.356   4.971  19.425 -1.6736 -0.9313 -1.1294
 4852TIP3   OH238750   2.155   7.450  18.573  0.2155  0.4264 -0.0143
 4852TIP3    H138751   2.237   7.495  18.551 -0.1440  0.6754 -0.9105
 4852TIP3    H238752   2.115   7.506  18.640  0.4860  0.6388 -0.0257
 4853TIP3   OH238753   0.548   0.653  18.458  0.2371  0.1261 -0.3014
 4853TIP3    H138754   0.511   0.648  18.370  2.4033  0.5958 -1.3210
 4853TIP3    H238755   0.578   0.743  18.466  2.1009 -0.4729 -0.0223
 4854TIP3   OH238756   7.321   7.552  19.136 -0.2394  0.1894 -0.3719
 4854TIP3    H138757   7.391   7.615  19.153  0.9405 -0.4693 -2.4212
 4854TIP3    H238758   7.256   7.602  19.086  0.9560 -0.2683 -2.4924
 4855TIP3   OH238759   4.107   5.853  19.421  0.0086  0.0189 -0.1127
 4855TIP3    H138760   4.132   5.906  19.497 -0.2224  0.0197 -0.0350
 4855TIP3    H238761   4.017   5.880  19.402  0.4800  0.9114 -1.1547
 4856TIP3   OH238762   5.292   5.856  17.278  0.3736 -0.4126 -0.8075
 4856TIP3    H138763   5.315   5.781  17.334  2.4285 -0.8345 -2.1158
 4856TIP3    H238764   5.261   5.922  17.340  0.2912 -1.6849  0.5830
 4857TIP3   OH238765   5.228   6.372  19.139  0.0535  0.2612 -0.1918
 4857TIP3    H138766   5.237   6.421  19.057  0.5374 -0.7808 -0.7900
 4857TIP3    H238767   5.317   6.349  19.163  0.0386  1.7707  1.4218
 4858TIP3   OH238768   1.648   5.249  18.189 -0.4949  0.4009 -0.0308
 4858TIP3    H138769   1.714   5.180  18.181 -0.5116  0.3314  0.4490
 4858TIP3    H238770   1.578   5.209  18.240 -0.5980  0.7101  0.0695
 4859TIP3   OH238771   5.095   6.426  18.434  0.2095  0.2134  0.0746
 4859TIP3    H138772   5.000   6.426  18.427  0.2673  0.6869 -0.9329
 4859TIP3    H238773   5.123   6.502  18.383  1.1468 -0.1651 -0.0046
 4860TIP3   OH238774   3.768   3.107  19.105 -0.2975 -0.2216 -0.0122
 4860TIP3    H138775   3.785   3.198  19.129 -2.3788  0.2869 -0.2722
 4860TIP3    H238776   3.677   3.106  19.077  0.1559 -2.0636 -1.6719
 4861TIP3   OH238777   5.515   4.922  18.643 -0.2393  0.0061 -0.4205
 4861TIP3    H138778   5.514   4.942  18.736 -1.5296 -1.9900  0.0504
 4861TIP3    H238779   5.568   4.842  18.636 -0.8160 -0.3187 -1.2807
 4862TIP3   OH238780   3.219   5.701  18.968  0.0811 -0.0092 -0.0966
 4862TIP3    H138781   3.154   5.709  19.038  0.8036 -1.8197  0.8418
 4862TIP3    H238782   3.263   5.787  18.967  0.4150 -0.0767  2.0814
 4863TIP3   OH238783   5.394   4.375  19.191 -0.2187  0.0160 -0.2047
 4863TIP3    H138784   5.352   4.454  19.225 -1.7007 -0.5117 -0.7458
 4863TIP3    H238785   5.437   4.404  19.111 -0.1251  0.4190 -0.0137
 4864TIP3   OH238786   6.612   3.169  18.304 -0.3460 -0.1943  0.1502
 4864TIP3    H138787   6.670   3.215  18.244  0.5395  1.2330  2.0078
 4864TIP3    H238788   6.530   3.159  18.256 -0.7744  3.7974 -0.2175
 4865TIP3   OH238789   5.797   0.368  18.432 -0.2986 -0.9385 -0.3968
 4865TIP3    H138790   5.868   0.311  18.461  0.9105  1.1193  0.8756
 4865TIP3    H238791   5.760   0.403  18.513 -1.2260 -0.1592 -1.1341
 4866TIP3   OH238792   7.218   5.266  18.322  0.3617 -0.2050  0.2982
 4866TIP3    H138793   7.136   5.298  18.360 -0.8093 -0.1711 -2.0434
 4866TIP3    H238794   7.274   5.344  18.317  0.5445 -0.2178  1.8788
 4867TIP3   OH238795   2.150   6.055  19.088 -0.0106  0.1142 -0.3271
 4867TIP3    H138796   2.216   5.996  19.125 -1.0397 -0.8343  0.0651
 4867TIP3    H238797   2.068   6.027  19.129 -0.4713  2.1463  0.2297
 4868TIP3   OH238798   4.225   6.406  19.051 -0.4987 -0.4620 -0.0383
 4868TIP3    H138799   4.316   6.437  19.044 -0.2677 -1.4639 -2.5423
 4868TIP3    H238800   4.184   6.466  19.113  1.8442  0.0377  1.1709
 4869TIP3   OH238801   6.784   1.414  18.347  0.2401 -0.8456  0.9633
 4869TIP3    H138802   6.846   1.363  18.294  1.5013 -0.1417  1.7209
 4869TIP3    H238803   6.835   1.442  18.423 -0.1200  2.3393  0.1407
 4870TIP3   OH238804   1.884   7.654  18.406 -0.3383 -0.1181 -0.3309
 4870TIP3    H138805   1.970   7.687  18.379  0.1483  0.5260  1.7606
 4870TIP3    H238806   1.821   7.700  18.351  0.4929  2.3050  0.6276
 4871TIP3   OH238807   2.616   2.869  17.844 -0.0711 -0.6174 -0.1713
 4871TIP3    H138808   2.618   2.774  17.836  0.8064 -0.8056  1.6334
 4871TIP3    H238809   2.708   2.894  17.858 -0.0737  0.6948 -2.1320
 4872TIP3   OH238810   3.434   6.307  19.282  0.2307  0.2604  0.4182
 4872TIP3    H138811   3.520   6.288  19.245 -0.2882  0.9141 -1.2502
 4872TIP3    H238812   3.379   6.233  19.253 -0.1399  0.6715  0.0621
 4873TIP3   OH238813   2.579   1.302  18.920  0.5101 -0.3191  0.1696
 4873TIP3    H138814   2.613   1.234  18.861  1.3771 -1.1316  1.5580
 4873TIP3    H238815   2.609   1.384  18.880 -0.7059 -0.6971 -1.6267
 4874TIP3   OH238816   0.019   6.411  17.402 -0.1788 -0.3072  0.4835
 4874TIP3    H138817   0.084   6.437  17.337 -2.2989  0.9186 -1.3031
 4874TIP3    H238818   0.021   6.479  17.468  0.2899 -0.2386  0.3992
 4875TIP3   OH238819   6.291   5.685  18.778 -0.0514  0.6345 -0.4247
 4875TIP3    H138820   6.202   5.708  18.804 -0.9621 -0.3354 -2.4243
 4875TIP3    H238821   6.320   5.760  18.725 -0.5712  0.0101 -1.6290
 4876TIP3   OH238822   7.091   1.092  17.317 -0.0761  0.4425  0.0545
 4876TIP3    H138823   6.998   1.105  17.335 -0.1339 -1.5944  1.6738
 4876TIP3    H238824   7.135   1.123  17.397  0.5566  0.6110 -0.3562
 4877TIP3   OH238825   5.595   6.746  18.865  0.1693 -0.1396  0.4236
 4877TIP3    H138826   5.605   6.743  18.770  1.5958  1.4829  0.4730
 4877TIP3    H238827   5.558   6.832  18.882 -2.7470 -1.4248  1.2142
 4878TIP3   OH238828   4.767   4.178  18.834  0.4214 -0.6544  0.1210
 4878TIP3    H138829   4.716   4.125  18.772  0.4676  0.5156 -0.9661
 4878TIP3    H238830   4.780   4.262  18.789  0.9113  0.0591  1.5192
 4879TIP3   OH238831   3.392   0.359  18.740  0.9751  0.5219 -0.0275
 4879TIP3    H138832   3.347   0.275  18.731  1.0420  0.4319  0.4523
 4879TIP3    H238833   3.483   0.335  18.759  0.5560  0.6629  2.4653
 4880TIP3   OH238834   3.767   4.871  18.208  0.1107  0.5712 -0.6030
 4880TIP3    H138835   3.727   4.931  18.144  0.0509  0.5938 -0.5449
 4880TIP3    H238836   3.859   4.868  18.183  0.1435  0.8081 -0.5132
 4881TIP3   OH238837   0.820   1.604  19.189 -0.3104 -0.0249 -0.3280
 4881TIP3    H138838   0.732   1.573  19.169 -0.0107 -1.7150  0.6748
 4881TIP3    H238839   0.856   1.537  19.248  1.6858  0.5476 -0.7986
 4882TIP3   OH238840   3.135   0.392  16.984 -0.4941  0.2943  0.1944
 4882TIP3    H138841   3.140   0.304  16.947  0.2920 -0.1377  1.2804
 4882TIP3    H238842   3.129   0.378  17.078 -0.1653  1.4117  0.3965
 4883TIP3   OH238843   0.657   0.855  19.872  0.2188  0.0480 -0.2766
 4883TIP3    H138844   0.597   0.811  19.812  1.5347 -0.6092 -1.1427
 4883TIP3    H238845   0.600   0.893  19.939 -1.0535 -2.2695  0.0526
 4884TIP3   OH238846   7.538   3.464  17.290  0.4674  0.1059  0.3539
 4884TIP3    H138847   7.516   3.401  17.358 -0.1376 -0.2727 -0.1842
 4884TIP3    H238848   7.507   3.424  17.209 -0.5733  1.3995  0.0702
 4885TIP3   OH238849   6.542   4.746  19.587  0.1854 -0.1868 -0.0514
 4885TIP3    H138850   6.539   4.773  19.679 -0.0998 -0.1147 -0.0826
 4885TIP3    H238851   6.635   4.748  19.565  0.1992  0.4415  0.0457
 4886TIP3   OH238852   4.946   5.616  18.022  0.0859  0.5115  0.1482
 4886TIP3    H138853   4.946   5.636  18.116 -0.5074 -1.3633  0.5857
 4886TIP3    H238854   4.979   5.696  17.981  1.3937  1.0085  2.0214
 4887TIP3   OH238855   4.059   4.998  18.900 -0.2268 -0.3451 -0.0034
 4887TIP3    H138856   3.972   5.036  18.897 -0.2111 -0.2347  0.7519
 4887TIP3    H238857   4.069   4.954  18.815 -0.0200  1.7834 -1.1379
 4888TIP3   OH238858   0.042   0.175  16.960 -0.5283 -0.2267 -0.1071
 4888TIP3    H138859   0.014   0.250  16.907  1.1817  0.5274 -0.0199
 4888TIP3    H238860  -0.024   0.169  17.029 -0.7589  1.1386 -0.1738
 4889TIP3   OH238861   7.153   7.463  16.878 -0.1523 -0.1164 -0.3361
 4889TIP3    H138862   7.151   7.505  16.792 -0.7958  0.7760  0.0949
 4889TIP3    H238863   7.218   7.513  16.928 -1.4013  0.8448  0.3929
 4890TIP3   OH238864   0.129   5.347  18.332 -0.1393 -0.2852  0.2951
 4890TIP3    H138865   0.048   5.345  18.383 -0.7581  1.1088 -0.5791
 4890TIP3    H238866   0.117   5.278  18.266  0.0214 -1.0458  1.0344
 4891TIP3   OH238867   6.287   4.175  18.766  0.0376 -0.1306  0.1364
 4891TIP3    H138868   6.209   4.124  18.745  0.0393 -0.5974  1.2129
 4891TIP3    H238869   6.316   4.211  18.682 -0.8817 -0.5978 -0.3869
 4892TIP3   OH238870   3.143   2.835  16.874  0.5971  0.5904  0.1342
 4892TIP3    H138871   3.094   2.753  16.876  0.8226  0.3876 -1.4760
 4892TIP3    H238872   3.089   2.894  16.822  1.4488  0.7665 -0.5612
 4893TIP3   OH238873   2.599   7.610  18.238  0.6132 -0.2083 -0.4043
 4893TIP3    H138874   2.648   7.582  18.161  0.0914 -1.2330 -0.3821
 4893TIP3    H238875   2.630   7.698  18.256  0.5980  0.1249 -1.9059
 4894TIP3   OH238876   2.888   4.583  19.373  0.5264 -0.0776 -0.3311
 4894TIP3    H138877   2.844   4.645  19.315  0.6820  0.0083 -0.3579
 4894TIP3    H238878   2.819   4.551  19.431  0.1994 -0.7611 -1.0690
 4895TIP3   OH238879   4.476   3.245  17.253 -0.3154  0.2910  0.2110
 4895TIP3    H138880   4.432   3.210  17.176 -1.9500  1.1794  0.6970
 4895TIP3    H238881   4.518   3.326  17.222 -0.0584  0.0848  0.0178
 4896TIP3   OH238882   0.959   3.780  17.776 -0.0153  0.0294  0.2398
 4896TIP3    H138883   0.914   3.865  17.779  0.4121  0.2315  2.5942
 4896TIP3    H238884   1.052   3.801  17.786  0.1626 -0.6971  0.1886
 4897TIP3   OH238885   0.143   6.099  18.514  0.2410 -0.3105 -0.3404
 4897TIP3    H138886   0.074   6.073  18.453  0.0622 -2.0289  0.5296
 4897TIP3    H238887   0.097   6.129  18.592  0.4830  0.6051 -0.5377
 4898TIP3   OH238888   0.384   1.368  17.943 -0.0267 -0.3240 -0.1940
 4898TIP3    H138889   0.358   1.372  17.851 -0.7278 -0.1844  0.0009
 4898TIP3    H238890   0.380   1.274  17.964  0.4613 -0.3900 -0.3949
 4899TIP3   OH238891   5.362   3.832  17.490  0.5992 -0.0574 -0.5217
 4899TIP3    H138892   5.357   3.927  17.503 -0.1555 -0.4709  3.7383
 4899TIP3    H238893   5.272   3.806  17.467  0.0939  0.0476  1.1980
 4900TIP3   OH238894   2.780   2.762  17.265  0.5713 -0.0634  0.1566
 4900TIP3    H138895   2.823   2.847  17.266 -0.3766  0.4381 -0.4599
 4900TIP3    H238896   2.811   2.718  17.344  0.3475  1.2192  0.9799
 4901TIP3   OH238897   6.627   1.953  17.836 -0.1512  0.3096 -0.3503
 4901TIP3    H138898   6.580   1.893  17.894 -0.5743  1.3880  0.4537
 4901TIP3    H238899   6.701   1.901  17.803  1.0326  0.0776  2.3719
 4902TIP3   OH238900   1.573   2.263  16.950 -0.0652 -0.1905  0.3355
 4902TIP3    H138901   1.605   2.350  16.930  1.4506 -0.8480 -0.2505
 4902TIP3    H238902   1.483   2.262  16.917  0.1434  0.9033 -0.3201
 4903TIP3   OH238903   1.693   0.928  18.727  0.3008  0.5137 -0.2187
 4903TIP3    H138904   1.710   0.839  18.697 -0.4167  0.2264  0.2053
 4903TIP3    H238905   1.651   0.918  18.812  1.0289  1.2889  0.2424
 4904TIP3   OH238906   5.042   3.364  18.280 -0.1292  0.0942 -0.3169
 4904TIP3    H138907   5.115   3.365  18.218  1.7996 -1.1882  1.7519
 4904TIP3    H238908   5.047   3.450  18.322  0.4227 -0.0916  0.0163
 4905TIP3   OH238909   1.994   1.880  18.664  0.2299 -0.1719  0.5162
 4905TIP3    H138910   1.924   1.830  18.706  0.5986 -1.4118 -0.2867
 4905TIP3    H238911   2.069   1.820  18.663  0.8019  0.5349 -0.1380
 4906TIP3   OH238912   0.829   0.641  18.113  0.1683 -0.1467 -0.0919
 4906TIP3    H138913   0.893   0.599  18.056  0.1216  1.1650 -1.1526
 4906TIP3    H238914   0.772   0.570  18.142  0.9523 -1.0288 -0.6543
 4907TIP3   OH238915   3.067   2.013  18.838 -0.0943  0.0419  0.4136
 4907TIP3    H138916   3.140   1.958  18.808 -0.8923  0.4392 -2.5138
 4907TIP3    H238917   3.108   2.072  18.902  1.7064 -1.0590  0.3701
 4908TIP3   OH238918   7.485   2.522  18.167  0.4342 -0.1690 -0.0171
 4908TIP3    H138919   7.458   2.523  18.075  0.1237 -0.2683  0.0708
 4908TIP3    H238920   7.579   2.541  18.165  0.4396 -0.2218 -0.3576
 4909TIP3   OH238921   1.450   5.150  18.364  0.3279  0.0146 -0.5178
 4909TIP3    H138922   1.371   5.196  18.392  1.2079  0.7237  0.8998
 4909TIP3    H238923   1.425   5.057  18.363  0.0079  0.0091  2.0027
 4910TIP3   OH238924   6.387   1.250  17.875  0.3166 -0.4041  0.0533
 4910TIP3    H138925   6.292   1.255  17.874  0.3459  0.1066 -0.1510
 4910TIP3    H238926   6.413   1.276  17.786  0.6092 -1.2655 -0.1258
 4911TIP3   OH238927   3.042   4.991  18.540 -0.1769  0.0034  0.0876
 4911TIP3    H138928   3.107   5.062  18.539  1.1072 -1.0885 -2.2607
 4911TIP3    H238929   3.079   4.926  18.599  0.1915 -0.0210 -0.1664
 4912TIP3   OH238930   0.001   6.425  16.830  0.0476 -0.4591  0.2400
 4912TIP3    H138931   0.064   6.486  16.792 -0.1371  1.1254  2.3083
 4912TIP3    H238932  -0.065   6.481  16.871 -1.0560 -2.0748  0.7654
 4913TIP3   OH238933   0.423   6.775  19.333 -0.3687  0.3720  0.0406
 4913TIP3    H138934   0.385   6.861  19.313  1.3620  1.1855  0.0267
 4913TIP3    H238935   0.510   6.795  19.368  0.1410 -1.3889 -0.1111
 4914TIP3   OH238936   4.541   2.053  18.913  0.6108 -0.1130 -0.0148
 4914TIP3    H138937   4.622   2.101  18.927  0.7233  0.1893 -1.5575
 4914TIP3    H238938   4.473   2.120  18.918  0.5843 -0.1292 -0.1649
 4915TIP3   OH238939   1.317   5.468  19.315  0.0431  0.0307  0.1447
 4915TIP3    H138940   1.394   5.449  19.368  0.6067  2.0832  0.1513
 4915TIP3    H238941   1.318   5.401  19.247  0.7069 -1.1497  1.2713
 4916TIP3   OH238942   0.829   6.544  17.872 -0.2667  0.3147 -0.4702
 4916TIP3    H138943   0.833   6.541  17.776  0.6581 -2.1165 -0.4434
 4916TIP3    H238944   0.736   6.540  17.893 -0.4178 -1.9073 -1.3199
 4917TIP3   OH238945   6.927   4.913  19.136  0.0271 -0.3018 -0.0244
 4917TIP3    H138946   6.961   4.876  19.054  1.7757 -0.1449  0.5716
 4917TIP3    H238947   6.969   4.861  19.204 -1.0862 -0.1675  0.7905
 4918TIP3   OH238948   5.357   5.619  17.414  0.5585 -0.3103  0.6146
 4918TIP3    H138949   5.339   5.551  17.479 -1.1741  0.5828  1.1208
 4918TIP3    H238950   5.394   5.572  17.340 -0.4204 -1.7830  1.0134
 4919TIP3   OH238951   1.184   5.227  18.766 -0.8069 -0.0782 -0.8687
 4919TIP3    H138952   1.109   5.277  18.798 -0.6688 -0.1994 -0.3478
 4919TIP3    H238953   1.178   5.143  18.813  0.4441  0.4221  0.2564
 4920TIP3   OH238954   3.360   2.014  17.478  0.0572  0.6286  0.2283
 4920TIP3    H138955   3.446   2.023  17.518  0.0522  1.9589 -0.0135
 4920TIP3    H238956   3.319   1.940  17.524  0.7354  0.9640  1.4105
 4921TIP3   OH238957   2.928   6.494  17.532  0.8757 -0.4468 -0.8379
 4921TIP3    H138958   3.005   6.543  17.562  1.1486 -1.4096  0.1188
 4921TIP3    H238959   2.880   6.556  17.478 -0.0291  1.7386  2.1820
 4922TIP3   OH238960   5.291   0.952  17.779 -0.5552  0.3376 -0.1225
 4922TIP3    H138961   5.309   0.977  17.688  1.0809 -0.1946  0.0189
 4922TIP3    H238962   5.284   0.857  17.777  0.4708  0.2279  0.4269
 4923TIP3   OH238963   7.389   7.656  18.265  0.6364 -0.5637  0.4163
 4923TIP3    H138964   7.359   7.637  18.176  1.0674 -0.1940  0.1895
 4923TIP3    H238965   7.336   7.732  18.292  0.2080 -0.9358  0.6376
 4924TIP3   OH238966   3.166   3.666  18.215  0.0724 -0.3104  0.0575
 4924TIP3    H138967   3.095   3.705  18.163  0.1916  1.1416  0.9420
 4924TIP3    H238968   3.212   3.608  18.154  0.0180  1.1105 -1.3754
 4925TIP3   OH238969   1.131   0.706  19.238  0.1097 -0.8862  0.4148
 4925TIP3    H138970   1.167   0.619  19.254 -0.5105 -1.0272  1.0500
 4925TIP3    H238971   1.036   0.695  19.245 -0.1308 -0.5847 -1.5568
 4926TIP3   OH238972   0.039   7.233  19.675  0.7419 -0.1546 -0.1502
 4926TIP3    H138973  -0.051   7.259  19.699  0.6077  0.5344 -1.3067
 4926TIP3    H238974   0.059   7.287  19.599  1.4094 -1.7230 -1.1204
 4927TIP3   OH238975   4.816   7.660  19.398 -0.0271 -0.5990  0.1007
 4927TIP3    H138976   4.873   7.589  19.368  0.8400  0.6859 -1.4591
 4927TIP3    H238977   4.877   7.725  19.434 -0.8045 -0.5676  1.4310
 4928TIP3   OH238978   3.787   7.286  18.901 -0.2011  0.0020  0.4399
 4928TIP3    H138979   3.841   7.364  18.906  2.5307 -1.7485  0.1375
 4928TIP3    H238980   3.761   7.269  18.992  0.2074  0.5630  0.6669
 4929TIP3   OH238981   5.742   4.200  18.880 -0.6748 -0.3002 -0.3602
 4929TIP3    H138982   5.650   4.200  18.853 -1.1346  0.7727  1.0224
 4929TIP3    H238983   5.739   4.181  18.974  0.3022  1.7704  0.1487
 4930TIP3   OH238984   2.603   2.176  17.721 -0.3034 -0.6372 -0.4394
 4930TIP3    H138985   2.698   2.174  17.733 -0.2585  1.3582 -0.1794
 4930TIP3    H238986   2.590   2.167  17.627  0.1976 -0.0850 -0.5666
 4931TIP3   OH238987   0.142   3.536  17.299  0.3625  0.2248  0.0380
 4931TIP3    H138988   0.060   3.487  17.292  0.9240 -0.8877  0.9113
 4931TIP3    H238989   0.163   3.559  17.209 -1.2091  1.0626 -0.1496
 4932TIP3   OH238990   6.770   2.514  18.855 -0.3316  0.0586 -0.1990
 4932TIP3    H138991   6.722   2.441  18.894 -1.2280 -1.1757 -3.2436
 4932TIP3    H238992   6.855   2.513  18.897 -0.9353 -1.6140  1.0805
 4933TIP3   OH238993   1.108   3.350  19.063 -0.0455 -0.0225 -0.9143
 4933TIP3    H138994   1.167   3.367  18.990  0.9950 -0.1573 -0.1321
 4933TIP3    H238995   1.042   3.291  19.027  0.3591  0.0319 -1.7796
 4934TIP3   OH238996   4.692   6.486  19.213 -0.1910  0.0594  0.2422
 4934TIP3    H138997   4.752   6.492  19.138 -0.9825 -0.6586 -0.4616
 4934TIP3    H238998   4.684   6.392  19.230 -1.8149  0.0778 -0.2596
 4935TIP3   OH238999   4.552   7.529  17.168  0.0767 -0.4275 -0.0773
 4935TIP3    H139000   4.520   7.519  17.079 -0.0242  1.5102 -0.2946
 4935TIP3    H239001   4.605   7.609  17.167  4.5989 -3.0766  0.3901
 4936TIP3   OH239002   0.756   7.173  17.946 -0.0146  0.0813  0.3110
 4936TIP3    H139003   0.815   7.173  17.871 -1.8297  0.6109 -1.1827
 4936TIP3    H239004   0.807   7.215  18.016  1.1800  1.0436 -1.0622
 4937TIP3   OH239005   3.520   4.373  17.642  0.6584 -0.2495  0.3246
 4937TIP3    H139006   3.513   4.347  17.734  1.3595 -2.3641 -0.1698
 4937TIP3    H239007   3.434   4.407  17.621  0.9377  1.8596  2.1713
 4938TIP3   OH239008   5.783   2.898  17.832 -0.0415  0.4574 -0.1109
 4938TIP3    H139009   5.747   2.915  17.746  1.1340  0.3848 -0.6345
 4938TIP3    H239010   5.797   2.803  17.834  2.9819  0.7933 -1.1310
 4939TIP3   OH239011   5.135   5.932  18.138 -0.3323  0.1760 -0.4041
 4939TIP3    H139012   5.175   5.851  18.169 -0.6420  0.5608  1.0884
 4939TIP3    H239013   5.077   5.959  18.210 -2.0042  0.5183 -1.8001
 4940TIP3   OH239014   7.606   2.151  18.752 -0.1521 -0.2611 -0.5545
 4940TIP3    H139015   7.620   2.145  18.847  1.3418 -1.7985 -0.8112
 4940TIP3    H239016   7.515   2.180  18.743 -0.5066 -0.6250  1.3446
 4941TIP3   OH239017   1.237   1.539  19.106  0.0256  0.0133 -0.6687
 4941TIP3    H139018   1.204   1.473  19.166  0.4388  0.6421  0.2740
 4941TIP3    H239019   1.326   1.558  19.137 -0.4895  1.8428 -0.1813
 4942TIP3   OH239020   4.390   3.764  17.141 -0.7949 -0.2048  0.2703
 4942TIP3    H139021   4.361   3.699  17.077  1.1565  0.9357 -1.9161
 4942TIP3    H239022   4.324   3.833  17.136 -0.7860 -0.2377 -0.3406
 4943TIP3   OH239023   5.645   7.297  17.295  0.3503 -0.6359  0.0829
 4943TIP3    H139024   5.689   7.214  17.275  1.4050  0.1458 -0.9943
 4943TIP3    H239025   5.561   7.271  17.333  0.2406 -2.2228 -1.1287
 4944TIP3   OH239026   5.593   6.944  17.263 -0.0419 -0.2803 -0.2040
 4944TIP3    H139027   5.592   6.860  17.308 -0.0629  0.3330  1.0152
 4944TIP3    H239028   5.517   6.943  17.206 -0.3717 -0.8719  0.2372
 4945TIP3   OH239029   0.837   0.522  18.481 -0.2516 -0.2387 -0.1279
 4945TIP3    H139030   0.876   0.471  18.410  0.9955 -1.3884  1.3129
 4945TIP3    H239031   0.833   0.612  18.447  2.1146 -0.3853 -0.9985
 4946TIP3   OH239032   0.660   3.119  19.006 -0.1703  0.3195 -0.0487
 4946TIP3    H139033   0.688   3.156  19.089  1.1933 -1.7325  0.4830
 4946TIP3    H239034   0.699   3.031  19.004 -3.4959 -1.2954 -1.0083
 4947TIP3   OH239035   7.654   0.118  18.067  0.0265 -0.2066  0.1987
 4947TIP3    H139036   7.674   0.122  17.973  1.1935 -0.0058  0.4487
 4947TIP3    H239037   7.571   0.166  18.075  0.7747  1.2679 -0.4981
 4948TIP3   OH239038   0.793   6.543  18.423  0.0814  0.1433 -0.4722
 4948TIP3    H139039   0.753   6.628  18.407  0.4694  0.0296 -2.2028
 4948TIP3    H239040   0.866   6.561  18.482 -0.2847  0.8862 -0.2402
 4949TIP3   OH239041   3.362   5.959  18.285 -0.0125  0.1097  0.0765
 4949TIP3    H139042   3.291   6.022  18.274 -0.0570  0.0033 -0.2391
 4949TIP3    H239043   3.339   5.910  18.364  0.4449  1.0497  0.8218
 4950TIP3   OH239044   3.175   6.666  19.729  0.0466  0.2352 -0.0250
 4950TIP3    H139045   3.085   6.680  19.699  0.3759  1.8261 -0.3953
 4950TIP3    H239046   3.228   6.673  19.650  0.4882 -1.0687  0.1311
 4951TIP3   OH239047   7.325   2.545  17.911  0.0592 -0.4188  0.6576
 4951TIP3    H139048   7.342   2.542  17.817 -0.3930 -0.0713  0.5575
 4951TIP3    H239049   7.333   2.638  17.934 -1.2404 -0.2876  0.6712
 4952TIP3   OH239050   2.414   5.313  18.127 -0.7805  0.1216  0.3445
 4952TIP3    H139051   2.469   5.238  18.152 -0.4441  0.7605  1.5895
 4952TIP3    H239052   2.380   5.290  18.040  0.5024 -0.8064  0.0691
 4953TIP3   OH239053   6.365   5.021  18.035 -0.5818  0.0314  1.0353
 4953TIP3    H139054   6.290   5.076  18.059  0.4728  2.1740 -0.2481
 4953TIP3    H239055   6.435   5.050  18.093  0.0967  0.3247  0.0864
 4954TIP3   OH239056   1.840   3.692  16.676  0.1436  0.0074 -0.2087
 4954TIP3    H139057   1.753   3.681  16.713 -0.6949 -0.7170 -2.2357
 4954TIP3    H239058   1.896   3.712  16.751 -1.5992 -0.3727  1.2606
 4955TIP3   OH239059   4.216   3.184  16.824  0.1446  0.0902  0.3206
 4955TIP3    H139060   4.121   3.173  16.827  0.2001 -0.3384  0.6611
 4955TIP3    H239061   4.236   3.196  16.731 -0.4630  2.3244  0.4140
 4956TIP3   OH239062   7.452   6.722  18.789  0.3654  0.6937  0.5298
 4956TIP3    H139063   7.459   6.757  18.700 -0.2860  2.4544  1.1250
 4956TIP3    H239064   7.543   6.718  18.820  0.6493 -0.4142 -0.3413
 4957TIP3   OH239065   7.421   5.384  18.595 -0.5459 -0.1748 -0.2141
 4957TIP3    H139066   7.372   5.461  18.567  0.3399  0.1674 -0.8644
 4957TIP3    H239067   7.362   5.339  18.656 -1.3836  0.5885 -0.4376
 4958TIP3   OH239068   3.489   0.669  17.724  0.2435 -0.5070  0.3683
 4958TIP3    H139069   3.514   0.645  17.813 -1.8335  2.6619  2.0244
 4958TIP3    H239070   3.536   0.750  17.706 -0.7857 -0.0874 -0.6087
 4959TIP3   OH239071   2.555   1.073  18.477 -0.0103  0.3281  0.5726
 4959TIP3    H139072   2.477   1.031  18.511 -0.0757  0.0169  0.0523
 4959TIP3    H239073   2.554   1.161  18.515  0.0371 -0.0789  1.5253
 4960TIP3   OH239074   1.858   6.454  18.687  0.5748  0.0836  0.0264
 4960TIP3    H139075   1.819   6.435  18.602 -0.8045 -2.3279  1.0931
 4960TIP3    H239076   1.859   6.370  18.732  1.8179  1.1730  2.2010
 4961TIP3   OH239077   6.669   0.627  17.951  0.5737  0.4385 -0.3016
 4961TIP3    H139078   6.693   0.552  17.896 -0.2353  0.5136 -0.7694
 4961TIP3    H239079   6.608   0.591  18.015  0.0406  0.7374 -0.6422
 4962TIP3   OH239080   2.442   1.015  18.206  0.0369 -0.8817  0.4064
 4962TIP3    H139081   2.461   1.060  18.288  2.0437  0.5213 -0.7173
 4962TIP3    H239082   2.361   1.056  18.174 -0.3646 -0.9483  1.3139
 4963TIP3   OH239083   5.196   3.392  18.046 -0.3496  0.3629 -0.8580
 4963TIP3    H139084   5.160   3.413  17.959  3.5606  0.9145 -2.5819
 4963TIP3    H239085   5.252   3.316  18.030 -0.5854 -0.3951  1.5813
 4964TIP3   OH239086   1.343   7.374  18.587  0.4857  0.1255  0.1645
 4964TIP3    H139087   1.429   7.334  18.572 -0.0504 -0.9910  0.0195
 4964TIP3    H239088   1.295   7.309  18.639  0.2124  1.3410  1.5044
 4965TIP3   OH239089   4.173   3.981  18.818 -0.0214  0.1872  0.5807
 4965TIP3    H139090   4.243   3.927  18.856  0.4707  1.5518  1.7363
 4965TIP3    H239091   4.093   3.932  18.836  0.4997 -0.7435  0.4744
 4966TIP3   OH239092   0.425   0.619  19.161  0.2682 -0.2598 -0.6772
 4966TIP3    H139093   0.380   0.698  19.130 -0.2464  0.0624  0.8086
 4966TIP3    H239094   0.384   0.600  19.245  0.0261 -2.4283 -1.2322
 4967TIP3   OH239095   0.562   2.129  18.652  0.0662  0.2272 -0.3408
 4967TIP3    H139096   0.624   2.087  18.712  0.3259 -0.9292 -1.3614
 4967TIP3    H239097   0.578   2.223  18.662  0.0706  0.0821  1.3981
 4968TIP3   OH239098   6.390   6.044  18.213  0.1397  0.1629  0.0497
 4968TIP3    H139099   6.327   6.076  18.148  0.1148  0.6454  0.3057
 4968TIP3    H239100   6.336   6.000  18.279  0.3208 -2.3754 -1.3628
 4969TIP3   OH239101   6.547   3.526  18.493 -0.2849  0.2883  0.4618
 4969TIP3    H139102   6.627   3.553  18.538 -0.4041 -1.6767  1.9649
 4969TIP3    H239103   6.477   3.573  18.538 -0.2480 -0.3658  1.2042
 4970TIP3   OH239104   3.219   3.968  17.753  0.2689  0.2641 -0.1030
 4970TIP3    H139105   3.232   3.885  17.707  0.0628  0.2447 -0.1313
 4970TIP3    H239106   3.147   4.011  17.705 -0.1116  0.1385  0.3422
 4971TIP3   OH239107   1.808   2.896  17.523  0.0690  0.0904 -0.0068
 4971TIP3    H139108   1.736   2.858  17.472 -0.4512  2.0053 -0.8026
 4971TIP3    H239109   1.887   2.858  17.485 -0.3375  1.0731 -1.9965
 4972TIP3   OH239110   2.340   3.188  18.279  0.4175 -0.0689 -0.7564
 4972TIP3    H139111   2.410   3.253  18.294  1.2108 -0.7095 -1.5494
 4972TIP3    H239112   2.356   3.157  18.190 -0.2101 -1.0540 -0.5372
 4973TIP3   OH239113   4.337   2.837  17.027 -0.4445  0.2957 -0.5841
 4973TIP3    H139114   4.364   2.923  17.058  0.3845 -0.2400  0.2293
 4973TIP3    H239115   4.413   2.804  16.978 -0.5082 -0.2374 -0.3319
 4974TIP3   OH239116   1.014   0.915  18.591  0.1804  0.1490 -0.4434
 4974TIP3    H139117   0.995   0.856  18.518 -0.3990  1.1921 -1.1720
 4974TIP3    H239118   1.040   0.858  18.663 -1.9470 -1.1328 -0.6124
 4975TIP3   OH239119   1.863   2.736  16.724  0.1464  0.2774 -0.5634
 4975TIP3    H139120   1.807   2.808  16.694 -0.3472  0.6465  1.1419
 4975TIP3    H239121   1.942   2.779  16.755  0.6839 -0.1057 -1.3673
 4976TIP3   OH239122   1.439   5.291  19.023  0.0619 -0.3295 -0.5548
 4976TIP3    H139123   1.385   5.352  18.972  0.4773  0.4415 -0.0831
 4976TIP3    H239124   1.507   5.346  19.061  0.1525 -1.0166  0.2826
 4977TIP3   OH239125   5.679   4.497  17.102 -0.6386 -0.0964 -0.7290
 4977TIP3    H139126   5.593   4.512  17.062 -0.5240 -0.0531 -0.9606
 4977TIP3    H239127   5.683   4.559  17.174 -0.8948 -0.2545 -0.5778
 4978TIP3   OH239128   6.525   5.069  19.196 -0.1711  0.0586 -0.6122
 4978TIP3    H139129   6.482   5.098  19.116  2.6334 -0.0609 -2.2982
 4978TIP3    H239130   6.583   4.999  19.168  1.7559  0.7751  1.2892
 4979TIP3   OH239131   5.398   5.825  19.548 -0.2462  0.2919  0.2523
 4979TIP3    H139132   5.304   5.823  19.564  0.0257 -1.2207  2.0109
 4979TIP3    H239133   5.433   5.753  19.600  1.8501  0.5141 -0.7240
 4980TIP3   OH239134   7.604   1.240  19.031  0.4506  0.0530 -0.2914
 4980TIP3    H139135   7.560   1.157  19.014  1.0065 -0.4672  0.6717
 4980TIP3    H239136   7.696   1.216  19.042  0.8759  1.0109 -1.5147
 4981TIP3   OH239137   5.641   4.276  19.293 -0.1464 -0.3915 -0.0801
 4981TIP3    H139138   5.666   4.365  19.318  2.0917 -0.8051 -0.6969
 4981TIP3    H239139   5.559   4.287  19.244  0.0179  1.3007 -0.0323
 4982TIP3   OH239140   3.973   3.633  18.121  0.1830 -0.0485 -0.0489
 4982TIP3    H139141   3.943   3.724  18.130  1.3694  0.3560  0.0485
 4982TIP3    H239142   4.011   3.629  18.033  0.1050 -0.4630 -0.0649
 4983TIP3   OH239143   6.002   4.787  18.486  0.2672  0.1821 -0.1007
 4983TIP3    H139144   6.095   4.796  18.466  0.6781 -3.1640 -0.3332
 4983TIP3    H239145   6.000   4.745  18.572 -1.1095  1.0542  0.3438
 4984TIP3   OH239146   6.439   2.955  19.133 -0.3793 -0.4056 -0.0105
 4984TIP3    H139147   6.436   3.051  19.130  1.4366 -0.3021  0.5801
 4984TIP3    H239148   6.379   2.932  19.204  1.2165  0.4941  1.7160
 4985TIP3   OH239149   3.703   6.575  16.472  0.5728 -0.3504 -0.6827
 4985TIP3    H139150   3.708   6.660  16.429  0.7758  0.5856  1.1269
 4985TIP3    H239151   3.794   6.551  16.489  0.4439  0.2612  1.0160
 4986TIP3   OH239152   2.294   6.912  18.406  0.1633  0.0979 -0.1322
 4986TIP3    H139153   2.244   6.865  18.340 -1.1193  0.1277  0.7900
 4986TIP3    H239154   2.347   6.975  18.356  0.0525 -0.6299 -1.1928
 4987TIP3   OH239155   6.091   3.149  17.340 -0.2097  0.1384 -0.2760
 4987TIP3    H139156   6.103   3.207  17.416 -0.9093  0.3152 -0.2872
 4987TIP3    H239157   6.034   3.199  17.281 -0.3806 -0.3473 -0.5274
 4988TIP3   OH239158   2.897   7.391  18.666 -0.0287  0.0001 -0.0437
 4988TIP3    H139159   2.942   7.308  18.683 -0.6300 -0.2141  0.5621
 4988TIP3    H239160   2.921   7.447  18.740 -1.3049 -0.3586  0.6762
 4989TIP3   OH239161   3.216   2.243  17.314  0.0275 -0.1963 -0.1386
 4989TIP3    H139162   3.190   2.208  17.229  0.2291 -0.1231 -0.2287
 4989TIP3    H239163   3.150   2.310  17.333 -1.0033 -1.3511  0.5423
 4990TIP3   OH239164   2.950   4.183  19.044  0.4537 -0.7056  0.4283
 4990TIP3    H139165   3.012   4.161  18.975  0.1754  2.0267 -0.8122
 4990TIP3    H239166   2.976   4.271  19.072 -0.9296 -0.7906  2.1441
 4991TIP3   OH239167   1.422   3.389  19.259 -0.2026 -0.4273 -0.3942
 4991TIP3    H139168   1.378   3.448  19.198 -0.0539  0.5244  0.3834
 4991TIP3    H239169   1.378   3.404  19.343 -0.2995 -1.5881 -0.2134
 4992TIP3   OH239170   3.497   1.054  19.548 -0.4958 -0.4407 -0.4833
 4992TIP3    H139171   3.542   0.970  19.558 -0.0930 -0.2221 -0.4599
 4992TIP3    H239172   3.455   1.048  19.462 -0.3014 -0.5902 -0.5700
 4993TIP3   OH239173   1.269   7.348  17.489 -0.2731  0.3988  0.5312
 4993TIP3    H139174   1.234   7.407  17.422  0.7383 -0.4950 -0.8349
 4993TIP3    H239175   1.242   7.261  17.460  0.5353 -0.0326  1.0678
 4994TIP3   OH239176   4.867   5.296  16.611 -0.0473 -0.4569 -0.4885
 4994TIP3    H139177   4.784   5.299  16.564  0.6424 -1.8185 -1.8566
 4994TIP3    H239178   4.858   5.363  16.680 -1.1814  1.4332 -2.3599
 4995TIP3   OH239179   2.611   7.230  18.547 -0.0597 -0.3594 -0.3734
 4995TIP3    H139180   2.602   7.325  18.536  0.0388 -0.3550 -0.4183
 4995TIP3    H239181   2.547   7.192  18.487 -0.3359 -0.3158 -0.1129
 4996TIP3   OH239182   5.348   4.811  19.129  0.2859 -0.1195 -0.3907
 4996TIP3    H139183   5.279   4.854  19.181  0.1243 -1.9403  1.0332
 4996TIP3    H239184   5.309   4.800  19.042 -0.7937 -0.0664  0.0607
 4997TIP3   OH239185   6.124   6.397  16.947  0.1256  0.1600 -0.4346
 4997TIP3    H139186   6.202   6.348  16.919 -0.5107 -1.3305  0.2910
 4997TIP3    H239187   6.151   6.489  16.942  2.3271 -0.3374  0.8357
 4998TIP3   OH239188   3.286   6.144  19.541  0.0452  0.4411  0.2162
 4998TIP3    H139189   3.247   6.095  19.614  0.4032 -0.5277 -0.2301
 4998TIP3    H239190   3.368   6.179  19.576 -0.1801  0.6741  0.5173
 4999TIP3   OH239191   2.474   3.486  17.882 -0.1482  0.4628  0.0290
 4999TIP3    H139192   2.392   3.492  17.931  0.0020  1.0704  0.2189
 4999TIP3    H239193   2.495   3.577  17.859  0.7394  0.3694  0.4291
 5000TIP3   OH239194   1.501   2.682  19.375  0.3234  0.4926  0.5261
 5000TIP3    H139195   1.574   2.742  19.389  0.6182 -0.3497  3.1325
 5000TIP3    H239196   1.538   2.595  19.393 -0.4624 -0.3580 -1.6882
 5001TIP3   OH239197   0.817   3.376  18.642 -0.3644 -0.1663  0.0245
 5001TIP3    H139198   0.724   3.355  18.645 -0.1098 -1.2594  2.0174
 5001TIP3    H239199   0.844   3.355  18.552 -1.5232 -2.2665  0.1114
 5002TIP3   OH239200   0.672   6.909  17.989  0.3579  0.0684 -0.0227
 5002TIP3    H139201   0.714   6.868  17.913  1.6616 -0.4283  0.9240
 5002TIP3    H239202   0.692   7.002  17.980 -1.7169  0.4397 -1.6242
 5003TIP3   OH239203   2.834   1.051  17.470  0.5088  0.1935 -0.0410
 5003TIP3    H139204   2.826   1.024  17.379 -0.8958  1.3711 -0.3144
 5003TIP3    H239205   2.751   1.025  17.510  1.0196 -0.1174  0.8554
 5004TIP3   OH239206   0.891   3.710  18.355  0.0185  0.5223 -0.3922
 5004TIP3    H139207   0.984   3.703  18.334  0.3266 -0.8476  1.1473
 5004TIP3    H239208   0.855   3.626  18.328 -0.4592  0.4897  0.3166
 5005TIP3   OH239209   6.302   4.517  18.844  0.4229 -0.1278 -0.4932
 5005TIP3    H139210   6.248   4.513  18.765  1.2742 -1.7742 -1.0443
 5005TIP3    H239211   6.254   4.463  18.907  0.0002  0.7760 -0.0133
 5006TIP3   OH239212   7.292   2.166  16.897  0.0878  0.0595  0.4086
 5006TIP3    H139213   7.386   2.173  16.880  0.4281  1.3780  2.4758
 5006TIP3    H239214   7.270   2.076  16.873  1.2426  0.4887 -2.7213
 5007TIP3   OH239215   0.878   5.050  16.741 -0.0144 -0.1966 -0.5097
 5007TIP3    H139216   0.917   5.137  16.752 -0.8722  0.1164  0.1182
 5007TIP3    H239217   0.784   5.064  16.746 -0.1853 -1.0940 -0.9563
 5008TIP3   OH239218   5.277   0.468  18.829 -0.0756  0.1015  0.2493
 5008TIP3    H139219   5.363   0.445  18.866 -0.3184  0.3594  0.9906
 5008TIP3    H239220   5.265   0.560  18.852 -1.0407 -0.2275  1.1526
 5009TIP3   OH239221   5.811   3.147  17.925  0.0113  0.0045 -0.1841
 5009TIP3    H139222   5.801   3.129  18.018  1.1543  1.1192  0.1839
 5009TIP3    H239223   5.778   3.068  17.881 -2.1600  0.1247  1.0771
 5010TIP3   OH239224   0.128   3.442  18.212 -0.4102 -0.2728 -0.0291
 5010TIP3    H139225   0.200   3.402  18.164 -1.0208 -1.7031  0.2188
 5010TIP3    H239226   0.085   3.370  18.257 -1.0295  0.7765  1.1315
 5011TIP3   OH239227   2.371   6.455  17.025  0.0684 -0.1168 -0.0479
 5011TIP3    H139228   2.463   6.439  17.048  0.4337  2.0088  0.1927
 5011TIP3    H239229   2.368   6.439  16.930  0.1695 -2.1768  0.2522
 5012TIP3   OH239230   1.764   1.517  19.295  0.2407  0.3368  0.2868
 5012TIP3    H139231   1.747   1.483  19.383 -0.4382  3.5963  1.5473
 5012TIP3    H239232   1.811   1.446  19.251 -0.9057 -2.0784  2.6654
 5013TIP3   OH239233   4.245   4.692  18.899 -0.1351 -0.4966 -0.0740
 5013TIP3    H139234   4.328   4.733  18.873 -0.6616  0.1340 -0.8189
 5013TIP3    H239235   4.181   4.728  18.838 -1.0905 -0.4243  0.9398
 5014TIP3   OH239236   2.407   0.219  19.081 -0.3491  0.2120  0.3681
 5014TIP3    H139237   2.418   0.140  19.134 -1.3266 -0.8461 -0.9573
 5014TIP3    H239238   2.347   0.194  19.011  0.2550  1.8033 -0.7892
 5015TIP3   OH239239   3.303   6.741  19.497  0.0078 -0.0487 -0.3298
 5015TIP3    H139240   3.299   6.653  19.458 -1.9871  0.5044 -1.5261
 5015TIP3    H239241   3.396   6.763  19.494  0.3990 -1.5932 -1.2591
 5016TIP3   OH239242   3.274   3.629  16.912  0.5998 -0.8021  0.4170
 5016TIP3    H139243   3.351   3.641  16.968  2.0620  0.1590 -1.6711
 5016TIP3    H239244   3.200   3.656  16.967  2.0230  0.8161  1.6556
 5017TIP3   OH239245   7.434   6.826  18.522 -0.0948 -0.0019 -0.1024
 5017TIP3    H139246   7.453   6.884  18.448 -1.3585  0.5490 -0.0222
 5017TIP3    H239247   7.384   6.880  18.583 -1.5026 -1.2152 -0.1308
 5018TIP3   OH239248   2.805   0.166  18.634 -0.0651 -0.0947  0.2963
 5018TIP3    H139249   2.898   0.180  18.650 -0.1197  1.0753 -0.2744
 5018TIP3    H239250   2.792   0.072  18.644  1.1757 -0.2653  0.3976
 5019TIP3   OH239251   7.074   6.055  18.497 -0.1126 -0.2428  0.4195
 5019TIP3    H139252   7.161   6.052  18.536 -0.1566 -0.0822  0.5285
 5019TIP3    H239253   7.060   6.147  18.476  0.1993 -0.4203 -0.6223
 5020TIP3   OH239254   2.410   4.633  17.558 -0.0607 -0.5000  0.4052
 5020TIP3    H139255   2.404   4.699  17.627  0.4579  0.1280 -0.1356
 5020TIP3    H239256   2.340   4.571  17.578  0.1365 -0.3897  1.5546
 5021TIP3   OH239257   5.667   7.214  19.526  0.4168  0.3879  0.0466
 5021TIP3    H139258   5.672   7.288  19.587 -0.5687  0.1351  0.4566
 5021TIP3    H239259   5.735   7.154  19.555 -0.0638  0.2525  0.9391
 5022TIP3   OH239260   1.038   0.524  16.814  0.4282  0.8208 -0.5620
 5022TIP3    H139261   1.065   0.495  16.727  1.8427 -1.3739  0.5473
 5022TIP3    H239262   0.959   0.473  16.833 -0.2197  1.7209 -0.7437
 5023TIP3   OH239263   1.527   6.183  17.815 -0.7369  0.4471  0.3929
 5023TIP3    H139264   1.453   6.131  17.786 -1.3400  1.4374  0.0974
 5023TIP3    H239265   1.509   6.202  17.907 -1.1608  1.1639  0.1745
 5024TIP3   OH239266   2.294   0.189  17.343  0.1409 -0.3110 -0.1665
 5024TIP3    H139267   2.279   0.268  17.395  0.1880 -1.4035  1.5823
 5024TIP3    H239268   2.230   0.126  17.375 -0.4132 -0.7778 -2.0698
 5025TIP3   OH239269   4.997   3.655  18.336  0.4229 -0.6347 -0.3701
 5025TIP3    H139270   5.083   3.640  18.375  0.3937 -0.4766 -0.2460
 5025TIP3    H239271   5.013   3.722  18.269  0.1403  0.4500  0.6133
 5026TIP3   OH239272   0.466   4.662  18.488  0.0387 -0.5313 -0.0517
 5026TIP3    H139273   0.408   4.606  18.437 -1.3158 -0.2753  1.1476
 5026TIP3    H239274   0.435   4.751  18.470  1.1543 -0.2493 -0.6975
 5027TIP3   OH239275   5.672   3.451  17.280  0.0994  0.1515  0.7522
 5027TIP3    H139276   5.624   3.424  17.359  0.0974  0.2521  0.7857
 5027TIP3    H239277   5.661   3.546  17.277 -2.0867 -0.0784 -0.7602
 5028TIP3   OH239278   3.832   3.534  16.612  0.4408 -0.6254 -0.6199
 5028TIP3    H139279   3.859   3.443  16.599 -0.7867 -1.1812  0.5525
 5028TIP3    H239280   3.864   3.557  16.698 -2.5084 -1.2849  0.8064
 5029TIP3   OH239281   7.413   1.958  17.335 -0.0746  0.0677  0.2467
 5029TIP3    H139282   7.419   2.034  17.392  2.0006 -0.7058  1.1877
 5029TIP3    H239283   7.403   1.884  17.395  2.1990 -0.7713 -0.2962
 5030TIP3   OH239284   1.897   6.187  17.882  0.5293 -0.0676  0.4627
 5030TIP3    H139285   1.864   6.192  17.972  2.1616 -0.4398  1.1107
 5030TIP3    H239286   1.969   6.124  17.886  0.8101  0.1219 -1.0488
 5031TIP3   OH239287   0.355   2.101  17.228  0.2009  0.1553 -0.1999
 5031TIP3    H139288   0.331   2.165  17.160 -0.2655 -0.2302 -0.4020
 5031TIP3    H239289   0.317   2.137  17.309 -0.6311 -0.1871 -0.4263
 5032TIP3   OH239290   0.774   0.814  18.825 -0.2491  0.2755  0.3947
 5032TIP3    H139291   0.688   0.843  18.855 -0.5703 -0.6692  0.4117
 5032TIP3    H239292   0.833   0.884  18.851 -1.0053  0.9327  0.3991
 5033TIP3   OH239293   4.467   6.995  18.768 -0.2161  0.0162  0.5340
 5033TIP3    H139294   4.561   6.979  18.759  0.1349  1.7236  0.8436
 5033TIP3    H239295   4.435   7.002  18.677  0.3812  1.5507  0.4127
 5034TIP3   OH239296   6.578   4.870  18.814  0.2558 -0.3377 -0.0286
 5034TIP3    H139297   6.672   4.857  18.826  0.4113  1.2464  0.6418
 5034TIP3    H239298   6.540   4.859  18.901  0.0816  0.9566  0.0742
 5035TIP3   OH239299   1.206   6.612  19.462  0.3229  0.4301  0.3252
 5035TIP3    H139300   1.215   6.700  19.427 -0.3300  0.2751 -0.2540
 5035TIP3    H239301   1.119   6.611  19.502 -0.0069 -0.1799 -0.3788
 5036TIP3   OH239302   6.585   6.232  17.920  0.2086 -0.2974  0.1130
 5036TIP3    H139303   6.517   6.176  17.883 -0.7528 -0.5097  2.0761
 5036TIP3    H239304   6.608   6.292  17.850 -1.1759 -0.9710 -0.9576
 5037TIP3   OH239305   3.306   4.954  19.203  0.5058 -0.2796  0.1384
 5037TIP3    H139306   3.259   5.036  19.221  2.6591  0.8702  0.8845
 5037TIP3    H239307   3.253   4.886  19.246 -0.9877  0.7716  0.0543
 5038TIP3   OH239308   6.719   1.973  17.387  0.4180 -0.3336 -0.1623
 5038TIP3    H139309   6.675   1.901  17.432 -0.3826  0.3559  0.2085
 5038TIP3    H239310   6.726   1.945  17.296 -2.3122  0.1458 -0.6180
 5039TIP3   OH239311   0.774   6.263  17.129  0.6818 -0.4086  0.4722
 5039TIP3    H139312   0.770   6.167  17.137  0.8033 -0.5539 -1.0319
 5039TIP3    H239313   0.782   6.279  17.035 -1.1689  1.1495  0.5293
 5040TIP3   OH239314   0.928   4.033  17.147  0.1944  0.0046  0.7005
 5040TIP3    H139315   0.934   4.000  17.058  1.5077  0.5476  0.5728
 5040TIP3    H239316   0.834   4.032  17.167 -0.1348  0.1420 -0.7820
 5041TIP3   OH239317   7.064   6.211  18.787  0.2077  0.0686  0.3318
 5041TIP3    H139318   7.156   6.209  18.812  0.4191  2.0898 -0.1010
 5041TIP3    H239319   7.059   6.278  18.719 -1.6328  0.2466  0.5947
 5042TIP3   OH239320   0.277   5.268  16.681  0.0314 -0.4480 -0.0428
 5042TIP3    H139321   0.313   5.180  16.685 -0.3826 -0.6421 -0.4779
 5042TIP3    H239322   0.223   5.269  16.601  0.7862  0.4792 -0.5674
 5043TIP3   OH239323   2.643   4.624  18.245 -0.2074  0.1078  0.0777
 5043TIP3    H139324   2.578   4.572  18.198  1.2435 -0.2521 -1.6740
 5043TIP3    H239325   2.668   4.569  18.319 -1.5809  0.0915  0.5538
 5044TIP3   OH239326   3.037   3.582  18.717 -0.1866  0.3089  0.1608
 5044TIP3    H139327   2.949   3.579  18.679 -0.2063  3.2851 -0.2134
 5044TIP3    H239328   3.023   3.566  18.811 -0.8623 -0.9773 -0.1326
 5045TIP3   OH239329   5.451   4.186  18.152 -0.0069 -0.5357 -0.4076
 5045TIP3    H139330   5.373   4.134  18.133  0.7644 -1.9991  0.2366
 5045TIP3    H239331   5.518   4.121  18.173  1.2059  0.7144 -0.2848
 5046TIP3   OH239332   4.817   1.104  19.591 -0.0822 -0.1271  0.0750
 5046TIP3    H139333   4.816   1.199  19.595  1.9958  0.1924 -3.2877
 5046TIP3    H239334   4.747   1.081  19.530 -0.3737 -0.7692  0.6326
 5047TIP3   OH239335   6.891   6.492  19.259  0.4486 -0.0647  0.0599
 5047TIP3    H139336   6.876   6.425  19.192  0.0722  0.0265  0.0540
 5047TIP3    H239337   6.804   6.526  19.279  0.7009  0.9574 -0.4882
 5048TIP3   OH239338   4.727   6.670  17.572 -0.6428 -0.4647 -0.2480
 5048TIP3    H139339   4.641   6.712  17.571  0.4703  2.0722  1.0689
 5048TIP3    H239340   4.732   6.626  17.657 -0.3423  0.1005  0.0304
 5049TIP3   OH239341   7.473   6.707  17.444 -0.0735  0.2245 -0.2479
 5049TIP3    H139342   7.529   6.664  17.508  0.5196  1.0234 -0.2169
 5049TIP3    H239343   7.515   6.689  17.360 -0.0405  0.4105 -0.2718
 5050TIP3   OH239344   3.396   0.156  17.906 -0.2133 -0.4362 -0.0234
 5050TIP3    H139345   3.404   0.081  17.964  0.8960  1.0678  1.8975
 5050TIP3    H239346   3.303   0.157  17.881 -0.3097 -2.2208  0.1338
 5051TIP3   OH239347   1.001   4.514  19.407 -0.1683  0.0780 -0.6847
 5051TIP3    H139348   0.919   4.470  19.383 -1.9347  2.0545  1.2849
 5051TIP3    H239349   1.022   4.481  19.494 -0.0500  1.1337 -0.3028
 5052TIP3   OH239350   0.948   5.754  17.787 -0.6144  0.0587  0.2615
 5052TIP3    H139351   0.894   5.675  17.794  1.1334 -1.3712 -1.2382
 5052TIP3    H239352   1.038   5.723  17.797  0.2403  1.5709 -1.8449
 5053TIP3   OH239353   3.278   4.508  17.602  0.1575 -0.0243 -0.7169
 5053TIP3    H139354   3.228   4.549  17.673  0.5427  0.3982 -0.6850
 5053TIP3    H239355   3.222   4.436  17.573  0.3022 -0.6668  0.4988
 5054TIP3   OH239356   2.254   5.418  17.651  0.2283 -0.5825  0.5643
 5054TIP3    H139357   2.178   5.382  17.605 -0.4514  0.4498  0.8304
 5054TIP3    H239358   2.326   5.360  17.628 -0.3650 -0.8315 -0.7726
 5055TIP3   OH239359   3.327   5.943  18.902  0.0168 -0.0672 -0.2853
 5055TIP3    H139360   3.347   6.029  18.939 -1.3808 -0.7865  2.4331
 5055TIP3    H239361   3.264   5.960  18.832 -1.7951  1.0885  1.5081
 5056TIP3   OH239362   4.049   7.476  17.996 -0.4487 -0.2539  0.4219
 5056TIP3    H139363   4.014   7.390  17.972 -1.0030 -0.0882  0.6289
 5056TIP3    H239364   4.118   7.458  18.059 -0.3501 -0.5645  0.2272
 5057TIP3   OH239365   2.630   1.082  18.736  0.7724  0.2475  0.2852
 5057TIP3    H139366   2.674   1.053  18.656  0.3642 -1.4930  0.6475
 5057TIP3    H239367   2.604   1.000  18.779 -0.4010  1.1907  1.4143
 5058TIP3   OH239368   0.772   5.836  18.333  0.1758  0.2694  0.5298
 5058TIP3    H139369   0.683   5.858  18.361  0.2179  1.2314 -0.0574
 5058TIP3    H239370   0.793   5.756  18.382 -0.2915  1.0740  2.1290
 5059TIP3   OH239371   0.141   5.539  17.445 -0.3417  0.3837 -0.0880
 5059TIP3    H139372   0.234   5.535  17.464 -0.3809  0.4526  0.1218
 5059TIP3    H239373   0.136   5.550  17.350 -0.1500 -0.3062 -0.1889
 5060TIP3   OH239374   7.588   1.811  17.741  0.0193  0.0653  0.3430
 5060TIP3    H139375   7.657   1.870  17.773  0.2753  1.2631 -2.1381
 5060TIP3    H239376   7.622   1.778  17.658 -1.8821 -0.2901 -0.3475
 5061TIP3   OH239377   2.316   1.673  18.868  0.6735  0.0822  0.5579
 5061TIP3    H139378   2.264   1.731  18.924 -0.0922 -0.3442  0.3089
 5061TIP3    H239379   2.298   1.703  18.779  0.5583 -0.3035  0.4467
 5062TIP3   OH239380   6.002   2.664  17.416  0.1310  0.0120 -0.1433
 5062TIP3    H139381   5.909   2.663  17.394  0.0523  0.9696  0.0754
 5062TIP3    H239382   6.039   2.731  17.359  0.7171 -0.4609 -0.3298
 5063TIP3   OH239383   1.642   7.521  17.823 -0.0666 -0.3074 -0.6138
 5063TIP3    H139384   1.700   7.518  17.747  1.0406 -0.2716  0.1933
 5063TIP3    H239385   1.591   7.440  17.819  0.9638 -0.9655 -0.6550
 5064TIP3   OH239386   0.977   4.921  17.565 -0.3093  0.3850  0.4042
 5064TIP3    H139387   1.037   4.932  17.491  0.3373  2.9753  1.1991
 5064TIP3    H239388   1.035   4.918  17.641 -1.0802  0.2337  0.9912
 5065TIP3   OH239389   1.010   1.387  17.445 -0.1467  0.2041  0.3113
 5065TIP3    H139390   1.032   1.333  17.521  1.5547  0.6790  0.1800
 5065TIP3    H239391   1.033   1.334  17.370  0.6640  0.7495  0.1685
 5066TIP3   OH239392   4.796   1.725  17.041 -0.1520 -0.1204  0.2122
 5066TIP3    H139393   4.727   1.725  16.974  2.2530 -1.2887 -2.4501
 5066TIP3    H239394   4.810   1.632  17.060  1.2260  0.0517  0.0924
 5067TIP3   OH239395   7.261   2.368  18.229  0.2595  0.3409 -0.2166
 5067TIP3    H139396   7.350   2.397  18.246 -0.0509  0.7203  0.8348
 5067TIP3    H239397   7.206   2.425  18.283 -0.4461 -1.4293  1.0548
 5068TIP3   OH239398   0.751   4.196  18.614  0.8832 -0.0829  0.1593
 5068TIP3    H139399   0.803   4.173  18.690  1.0034 -0.8172 -0.1300
 5068TIP3    H239400   0.805   4.170  18.539  0.0759 -0.9725 -0.1402
 5069TIP3   OH239401   4.892   2.403  17.818  0.1863 -0.2533 -0.6204
 5069TIP3    H139402   4.847   2.323  17.791  1.3860 -0.4726 -2.0926
 5069TIP3    H239403   4.975   2.372  17.854 -0.3050  0.2168  1.0151
 5070TIP3   OH239404   3.227   7.342  18.644  0.1941  0.1248 -0.8228
 5070TIP3    H139405   3.254   7.375  18.730 -3.2495 -0.0177  0.4664
 5070TIP3    H239406   3.236   7.247  18.652 -2.5007 -0.1149  0.4453
 5071TIP3   OH239407   3.930   5.715  17.697  0.4589 -0.0170 -0.4159
 5071TIP3    H139408   3.988   5.660  17.644  0.3311 -1.5131  0.9231
 5071TIP3    H239409   3.846   5.669  17.696  0.8434 -0.9093  2.2507
 5072TIP3   OH239410   4.820   3.787  19.468  0.0038 -0.5111 -0.0459
 5072TIP3    H139411   4.790   3.837  19.393 -2.4536 -1.9272 -0.1012
 5072TIP3    H239412   4.836   3.699  19.434 -0.7176 -1.0594  0.9785
 5073TIP3   OH239413   3.472   3.788  17.434  0.1075  0.1639 -0.6953
 5073TIP3    H139414   3.387   3.758  17.466  0.3933 -1.7213 -1.5614
 5073TIP3    H239415   3.526   3.796  17.513  0.0247 -1.7648 -0.4009
 5074TIP3   OH239416   5.032   6.333  18.035  0.3728  0.7437 -0.2803
 5074TIP3    H139417   4.945   6.304  18.009  0.5628 -1.1774  1.0182
 5074TIP3    H239418   5.016   6.410  18.089 -0.8564 -1.0915  2.2105
 5075TIP3   OH239419   4.278   6.784  17.273 -0.3012  0.2802 -0.4606
 5075TIP3    H139420   4.293   6.689  17.269  2.6418  0.6821 -1.4659
 5075TIP3    H239421   4.296   6.814  17.184 -1.3498  1.8146 -0.1907
 5076TIP3   OH239422   0.163   2.608  19.051  0.3336 -0.1777 -0.0621
 5076TIP3    H139423   0.103   2.533  19.044  0.2670 -0.2070  0.7373
 5076TIP3    H239424   0.242   2.580  19.006 -0.4893  0.1298 -1.7897
 5077TIP3   OH239425   0.735   3.391  17.491 -0.5446 -0.3821 -0.2652
 5077TIP3    H139426   0.756   3.472  17.538 -1.5332 -0.7140  0.8106
 5077TIP3    H239427   0.814   3.338  17.497 -0.6908 -0.4758  1.2273
 5078TIP3   OH239428   0.555   5.628  19.252  0.3199  0.3135  0.4075
 5078TIP3    H139429   0.522   5.634  19.162  0.2224  0.3317  0.4451
 5078TIP3    H239430   0.644   5.595  19.242 -0.0168 -0.6269  0.3565
 5079TIP3   OH239431   7.245   1.946  18.807 -0.6388 -0.1071  0.2254
 5079TIP3    H139432   7.217   2.019  18.862 -1.0696 -0.5972  0.6734
 5079TIP3    H239433   7.294   1.889  18.866 -0.1217 -0.0817 -0.1712
 5080TIP3   OH239434   1.743   2.437  18.925 -0.6624 -0.2633  0.3210
 5080TIP3    H139435   1.724   2.464  18.835 -0.0272  2.5986  0.9452
 5080TIP3    H239436   1.658   2.439  18.969 -0.8816 -1.0386 -0.0621
 5081TIP3   OH239437   6.131   0.553  17.085 -0.2835  0.6680 -0.0342
 5081TIP3    H139438   6.181   0.561  17.167 -0.3602 -2.5031  0.4536
 5081TIP3    H239439   6.194   0.575  17.017  1.3069 -1.3265  0.6888
 5082TIP3   OH239440   6.515   4.709  18.560 -0.0940  0.2140  0.0150
 5082TIP3    H139441   6.504   4.766  18.636 -0.4680  0.9571 -0.5721
 5082TIP3    H239442   6.581   4.753  18.506 -1.3128  0.8171 -1.0655
 5083TIP3   OH239443   0.940   7.296  18.115  0.2981  0.1348 -0.2183
 5083TIP3    H139444   0.991   7.348  18.052  1.3629  2.6251  2.4828
 5083TIP3    H239445   0.989   7.214  18.122  0.4575  0.0067 -2.1335
 5084TIP3   OH239446   3.506   4.143  16.463 -0.1356 -0.2869  0.2569
 5084TIP3    H139447   3.589   4.164  16.506  0.0184 -1.0704  0.3688
 5084TIP3    H239448   3.524   4.062  16.415 -1.0906 -1.0156  1.0769
 5085TIP3   OH239449   2.720   6.746  19.037  0.2350  0.4392  0.2085
 5085TIP3    H139450   2.669   6.802  18.979 -0.2552 -0.0595  0.1434
 5085TIP3    H239451   2.728   6.663  18.989  1.3655  0.5975  0.0927
 5086TIP3   OH239452   4.859   3.917  19.205 -0.6990  0.3813  0.3041
 5086TIP3    H139453   4.948   3.919  19.168 -0.8787 -0.8438 -0.2373
 5086TIP3    H239454   4.853   3.999  19.255  0.3453  1.0186 -0.5431
 5087TIP3   OH239455   5.298   2.071  19.130 -0.5609  0.1676 -0.1719
 5087TIP3    H139456   5.255   2.041  19.209  2.1902  0.4101  1.5283
 5087TIP3    H239457   5.360   2.001  19.107 -0.2397  0.7650 -1.2336
 5088TIP3   OH239458   1.248   5.419  18.111  0.8289  0.7462  0.0235
 5088TIP3    H139459   1.210   5.471  18.181  0.8690  0.9174 -0.0790
 5088TIP3    H239460   1.176   5.366  18.077  0.5886  1.3355 -0.4123
 5089TIP3   OH239461   2.819   6.897  17.396  0.4435 -0.1185  0.4607
 5089TIP3    H139462   2.914   6.882  17.396  0.1012 -3.0042  0.2418
 5089TIP3    H239463   2.794   6.892  17.303 -0.3285 -3.9540  0.6833
 5090TIP3   OH239464   5.959   2.421  17.602  0.2088  0.5525  0.0251
 5090TIP3    H139465   5.920   2.338  17.629 -0.9654  1.2104  0.3829
 5090TIP3    H239466   6.043   2.396  17.562 -0.1649 -0.8051  0.0535
 5091TIP3   OH239467   5.754   5.382  16.422  0.0768  0.0336 -0.4969
 5091TIP3    H139468   5.798   5.449  16.370  2.0987 -1.3778 -0.7291
 5091TIP3    H239469   5.693   5.340  16.361 -1.3087  1.6627 -0.3141
 5092TIP3   OH239470   2.420   7.249  17.891 -0.5446  0.3959  0.4227
 5092TIP3    H139471   2.436   7.333  17.935 -1.4908  2.6904 -3.2101
 5092TIP3    H239472   2.335   7.220  17.924  0.1100  0.4103  2.2490
 5093TIP3   OH239473   5.193   7.631  19.060  0.4834  0.1603  0.1091
 5093TIP3    H139474   5.258   7.683  19.013  0.3977  1.6767  1.5900
 5093TIP3    H239475   5.233   7.545  19.069  1.8751  0.7762  0.1087
 5094TIP3   OH239476   6.971   0.540  19.030  0.3835 -0.2765  0.4218
 5094TIP3    H139477   6.994   0.631  19.013  1.5194 -0.1130  2.4907
 5094TIP3    H239478   6.945   0.505  18.945  0.8517  1.7072 -0.5879
 5095TIP3   OH239479   0.770   7.331  19.704 -0.0165 -0.0483  0.2580
 5095TIP3    H139480   0.724   7.259  19.747 -2.1227  0.1072 -1.5663
 5095TIP3    H239481   0.731   7.410  19.743 -0.5195  0.0827 -0.4917
 5096TIP3   OH239482   2.528   0.454  17.349  0.1697 -0.4542  0.5277
 5096TIP3    H139483   2.436   0.429  17.354  0.1032 -0.5453 -0.8005
 5096TIP3    H239484   2.541   0.479  17.258  1.1497  0.8032  0.9764
 5097TIP3   OH239485   5.296   2.662  19.296  0.6755  0.0177  0.0048
 5097TIP3    H139486   5.309   2.753  19.322  0.0386 -0.3737  1.7913
 5097TIP3    H239487   5.379   2.637  19.256  0.1943  1.9581 -2.4591
 5098TIP3   OH239488   0.030   0.032  17.492 -0.3940  0.4011  0.1539
 5098TIP3    H139489   0.076  -0.053  17.491  0.0001  0.6050 -0.9210
 5098TIP3    H239490  -0.061   0.010  17.510  0.0522 -0.0468  1.9908
 5099TIP3   OH239491   0.769   3.897  17.472 -0.1505 -0.1885 -0.4915
 5099TIP3    H139492   0.858   3.908  17.437  0.5676 -0.0169  1.2760
 5099TIP3    H239493   0.759   3.802  17.482 -0.4687 -0.2586 -1.3743
 5100TIP3   OH239494   3.647   6.693  18.062  0.0491  0.4807 -0.3098
 5100TIP3    H139495   3.655   6.745  17.981  1.2331 -0.1614 -0.6366
 5100TIP3    H239496   3.569   6.640  18.048 -0.3325  1.1038 -0.6025
 5101TIP3   OH239497   1.424   5.815  19.091  0.1945 -0.5788  0.0920
 5101TIP3    H139498   1.339   5.801  19.049  0.4617  2.5307 -1.8136
 5101TIP3    H239499   1.405   5.874  19.164  0.4631 -1.8381  1.2269
 5102TIP3   OH239500   2.468   2.036  17.899  0.0755  0.0680  0.9026
 5102TIP3    H139501   2.388   2.081  17.927  0.3763  1.7848 -0.8125
 5102TIP3    H239502   2.496   2.083  17.821  0.4836 -3.0727 -1.0146
 5103TIP3   OH239503   7.418   0.137  19.175  0.1038  0.2552 -0.6171
 5103TIP3    H139504   7.400   0.229  19.159  1.1404  1.0713  2.2619
 5103TIP3    H239505   7.507   0.123  19.143  0.1600  0.4116 -0.5277
 5104TIP3   OH239506   0.243   5.038  18.370 -0.1684 -0.4655 -0.0363
 5104TIP3    H139507   0.238   4.960  18.425  0.0736 -0.9726 -0.7050
 5104TIP3    H239508   0.278   5.106  18.427 -1.3357 -0.5661  0.8307
 5105TIP3   OH239509   3.061   6.125  16.714 -0.0264  0.0576 -0.8280
 5105TIP3    H139510   3.132   6.072  16.750 -0.1973 -0.8690 -1.8107
 5105TIP3    H239511   3.100   6.211  16.700  0.2864  0.1933  0.6819
 5106TIP3   OH239512   5.177   3.604  19.018 -0.0761  0.1525  0.1240
 5106TIP3    H139513   5.165   3.509  19.011  2.1065 -0.3260  1.6234
 5106TIP3    H239514   5.235   3.626  18.945 -1.4606  0.5845 -0.8900
 5107TIP3   OH239515   6.566   1.218  18.137 -0.3243 -0.0975 -0.1268
 5107TIP3    H139516   6.559   1.123  18.140 -0.7675 -0.0769 -0.3875
 5107TIP3    H239517   6.530   1.242  18.051  1.1509  0.1862 -0.6860
 5108TIP3   OH239518   4.095   3.014  18.819  0.3054  0.4527 -0.1882
 5108TIP3    H139519   4.006   3.026  18.787  0.0689  3.3176  1.2807
 5108TIP3    H239520   4.086   2.997  18.912  1.2655 -1.5715 -0.3979
 5109TIP3   OH239521   6.412   0.132  16.562  0.3389  0.0920 -0.3316
 5109TIP3    H139522   6.466   0.192  16.615 -0.2097  0.0130  0.3314
 5109TIP3    H239523   6.428   0.046  16.601  0.2810 -0.0340 -0.5879
 5110TIP3   OH239524   5.867   5.428  17.269  0.1360 -0.3837 -0.0500
 5110TIP3    H139525   5.811   5.449  17.344  1.0251 -1.0765  0.8261
 5110TIP3    H239526   5.851   5.499  17.207  0.7204  1.1778  1.5214
 5111TIP3   OH239527   4.168   0.615  19.387 -0.2710 -0.7175  0.3510
 5111TIP3    H139528   4.079   0.649  19.402 -1.5935 -3.3794 -0.7869
 5111TIP3    H239529   4.162   0.523  19.411  1.8715 -1.2777 -1.0361
 5112TIP3   OH239530   1.522   2.405  17.718  0.0167  0.0870 -0.2079
 5112TIP3    H139531   1.565   2.484  17.752 -1.6437  0.3286  1.4262
 5112TIP3    H239532   1.575   2.381  17.641  1.3784  1.9675  0.0714
 5113TIP3   OH239533   7.341   3.837  18.527 -0.1025 -0.4463 -0.0513
 5113TIP3    H139534   7.374   3.894  18.597 -0.2808 -0.1667 -0.1900
 5113TIP3    H239535   7.246   3.840  18.538 -0.1084 -0.7828 -0.0127
 5114TIP3   OH239536   1.011   1.254  18.847  0.2332  0.4899  0.2636
 5114TIP3    H139537   0.917   1.274  18.841 -0.3055 -1.4555  1.3740
 5114TIP3    H239538   1.044   1.318  18.911 -0.2935  1.2551 -0.2060
 5115TIP3   OH239539   4.327   1.285  18.050 -0.0520 -0.1456  0.3682
 5115TIP3    H139540   4.286   1.350  17.993  1.7024  0.8391  0.1518
 5115TIP3    H239541   4.287   1.202  18.024  1.0348  0.1535 -2.7320
 5116TIP3   OH239542   0.443   0.666  19.717  0.2636 -0.2219 -0.5941
 5116TIP3    H139543   0.348   0.657  19.703  0.3948  0.8886 -2.6540
 5116TIP3    H239544   0.473   0.577  19.736 -1.2292 -0.5272  0.5231
 5117TIP3   OH239545   5.359   5.368  19.414 -0.0773 -0.2231 -0.1828
 5117TIP3    H139546   5.345   5.345  19.506 -0.9959 -2.0862 -0.7504
 5117TIP3    H239547   5.453   5.360  19.401  0.2203  1.1357  0.8260
 5118TIP3   OH239548   7.075   4.764  19.365  0.4164 -0.2897 -0.2445
 5118TIP3    H139549   7.093   4.670  19.366  1.1622 -0.1734 -1.2802
 5118TIP3    H239550   7.160   4.805  19.352  0.0939  0.5363  0.1496
 5119TIP3   OH239551   6.500   4.585  17.561  0.2168 -0.0650  0.4108
 5119TIP3    H139552   6.553   4.632  17.496  1.3294 -1.7973 -0.0154
 5119TIP3    H239553   6.554   4.584  17.640  0.9832 -2.0133 -0.0848
 5120TIP3   OH239554   6.493   5.371  18.328 -0.4422  0.2017  0.4352
 5120TIP3    H139555   6.417   5.383  18.271 -0.2032 -1.8402 -0.3761
 5120TIP3    H239556   6.564   5.418  18.284 -1.2151  2.3619  1.3349
 5121TIP3   OH239557   1.405   7.309  19.257  0.2500 -0.3225  0.1812
 5121TIP3    H139558   1.422   7.322  19.164  0.0378 -0.4278  0.1249
 5121TIP3    H239559   1.349   7.231  19.260 -0.9417  0.5063  0.2875
 5122TIP3   OH239560   7.492   6.718  16.733  0.1965  0.0649  0.3818
 5122TIP3    H139561   7.545   6.718  16.653  0.4766  0.1040  0.5678
 5122TIP3    H239562   7.555   6.710  16.804 -0.1515 -2.2032  0.5204
 5123TIP3   OH239563   2.355   5.975  17.565  0.8697  0.2475 -0.2270
 5123TIP3    H139564   2.327   5.978  17.474  0.6375 -1.5074 -0.2321
 5123TIP3    H239565   2.297   6.037  17.610 -0.2998 -0.2862 -0.9487
 5124TIP3   OH239566   1.179   1.582  18.541  0.5027  0.0665  1.0651
 5124TIP3    H139567   1.250   1.581  18.605  0.9292 -0.8422  0.5889
 5124TIP3    H239568   1.211   1.528  18.469  0.4261  1.8268 -0.3571
 5125TIP3   OH239569   3.322   2.976  17.401 -0.0215  0.4634 -0.1695
 5125TIP3    H139570   3.247   3.034  17.388 -0.5417 -0.1198  0.1645
 5125TIP3    H239571   3.398   3.035  17.402 -0.5004  1.0953 -0.2066
 5126TIP3   OH239572   2.899   6.981  17.803  0.2325  0.3032  0.4314
 5126TIP3    H139573   2.812   7.019  17.813 -0.0259 -0.4569  1.2093
 5126TIP3    H239574   2.884   6.901  17.752  0.2193 -0.6372  1.8307
 5127TIP3   OH239575   2.386   3.649  19.356  0.3711 -0.1861 -0.1327
 5127TIP3    H139576   2.365   3.561  19.388 -0.3778  0.7498  2.0641
 5127TIP3    H239577   2.340   3.654  19.272 -1.4856 -1.1019  0.7645
 5128TIP3   OH239578   2.644   3.484  17.022  0.1391 -0.2560 -0.1680
 5128TIP3    H139579   2.580   3.414  17.012  0.7714 -0.8735  0.0210
 5128TIP3    H239580   2.707   3.470  16.951  0.1561  0.2506 -0.2579
 5129TIP3   OH239581   0.969   4.547  18.939 -0.0637 -0.3852  0.3962
 5129TIP3    H139582   1.048   4.515  18.896 -0.5981 -3.3113  1.3583
 5129TIP3    H239583   1.000   4.590  19.019  0.5673 -1.4789  0.7518
 5130TIP3   OH239584   1.925   4.134  18.097 -0.2983 -0.2325 -0.2328
 5130TIP3    H139585   1.896   4.189  18.169 -2.3057 -0.7241 -0.6102
 5130TIP3    H239586   1.944   4.049  18.138 -0.7399 -0.2995 -0.1558
 5131TIP3   OH239587   2.626   6.619  18.612  0.3217  0.1175 -0.0449
 5131TIP3    H139588   2.661   6.577  18.534  0.5611  1.0976 -0.4828
 5131TIP3    H239589   2.552   6.564  18.639 -1.0899  0.8415 -2.1599
 5132TIP3   OH239590   0.663   7.571  19.059 -0.5772 -0.2980 -0.2623
 5132TIP3    H139591   0.612   7.628  19.117 -0.2529 -0.0199 -0.2480
 5132TIP3    H239592   0.650   7.607  18.972  0.2290  0.2724 -0.1703
 5133TIP3   OH239593   6.821   3.096  17.632  0.2178 -0.3668 -0.4093
 5133TIP3    H139594   6.753   3.115  17.697  0.2160  0.6245 -0.6745
 5133TIP3    H239595   6.859   3.013  17.659 -0.7727 -0.6875  0.0246
 5134TIP3   OH239596   4.894   0.758  18.439 -0.5854 -0.2953  0.6054
 5134TIP3    H139597   4.963   0.788  18.380  0.2901 -1.7909  0.8071
 5134TIP3    H239598   4.817   0.808  18.413  0.1804  0.2611 -0.7124
 5135TIP3   OH239599   2.955   7.215  17.582  0.4391  0.6448 -0.1728
 5135TIP3    H139600   2.935   7.256  17.498  1.5528 -0.8360 -1.2042
 5135TIP3    H239601   2.883   7.154  17.597 -0.4238  1.8116  0.6155
 5136TIP3   OH239602   1.423   7.296  17.055  0.4466  0.2228 -0.7570
 5136TIP3    H139603   1.469   7.364  17.005  0.3110  1.0538  0.2008
 5136TIP3    H239604   1.491   7.232  17.075  0.6705  0.2745 -1.3272
 5137TIP3   OH239605   5.570   0.343  18.260  0.5845  0.3978  0.1671
 5137TIP3    H139606   5.634   0.392  18.311  0.8465 -0.4748  0.7025
 5137TIP3    H239607   5.532   0.281  18.322  2.1271 -1.8808 -1.0150
 5138TIP3   OH239608   7.537   5.265  18.252 -0.4888 -0.1088 -0.5413
 5138TIP3    H139609   7.466   5.227  18.201  0.3894 -1.5747 -0.7161
 5138TIP3    H239610   7.602   5.195  18.260  0.1023  0.5823  1.2286
 5139TIP3   OH239611   1.474   5.782  17.283 -0.7276  0.0227  0.5311
 5139TIP3    H139612   1.394   5.734  17.304 -0.3590  0.2452  2.6967
 5139TIP3    H239613   1.444   5.860  17.236 -1.5375 -1.0517 -0.8076
 5140TIP3   OH239614   2.128   2.030  17.943  0.6612  0.3115  0.3067
 5140TIP3    H139615   2.167   2.021  17.856  1.9110  0.9515  0.7807
 5140TIP3    H239616   2.068   2.103  17.935 -1.0743 -1.1355 -0.6255
 5141TIP3   OH239617   2.297   0.574  19.343  0.4698 -0.1359 -0.0605
 5141TIP3    H139618   2.232   0.510  19.371  0.5781  0.3928  1.4795
 5141TIP3    H239619   2.258   0.616  19.266 -0.2058 -1.0673 -0.2389
 5142TIP3   OH239620   5.339   4.031  19.296  0.1130 -0.0429 -0.2977
 5142TIP3    H139621   5.364   4.114  19.337 -1.2591  0.3616 -0.2300
 5142TIP3    H239622   5.422   3.989  19.275  0.8390  1.2136 -0.0583
 5143TIP3   OH239623   1.259   3.238  17.678 -0.5588  0.1580 -0.3546
 5143TIP3    H139624   1.324   3.168  17.673  0.4749  1.1345 -1.1791
 5143TIP3    H239625   1.299   3.304  17.735 -1.3381  0.2770  0.0706
 5144TIP3   OH239626   4.718   5.120  19.176  0.0245 -0.2679 -0.3364
 5144TIP3    H139627   4.683   5.189  19.232 -1.3587 -0.9019 -0.3841
 5144TIP3    H239628   4.732   5.045  19.235  0.9167 -0.1613 -0.4002
 5145TIP3   OH239629   3.173   2.395  17.775 -0.1262 -0.3322 -0.1583
 5145TIP3    H139630   3.225   2.461  17.821 -0.2575  0.6966 -1.4300
 5145TIP3    H239631   3.226   2.315  17.781 -0.4915 -0.4751  2.4073
 5146TIP3   OH239632   1.048   6.764  17.543  0.5363 -0.0023  0.0027
 5146TIP3    H139633   1.112   6.775  17.473  1.2791 -0.5451  0.5780
 5146TIP3    H239634   1.048   6.670  17.561 -0.9313 -0.1127 -0.4449
 5147TIP3   OH239635   6.134   1.246  17.889  0.3809 -0.3276  0.4286
 5147TIP3    H139636   6.121   1.152  17.901  0.2539 -0.4809 -0.7285
 5147TIP3    H239637   6.104   1.262  17.799  2.7672  0.3669 -0.3100
 5148TIP3   OH239638   3.777   2.085  18.867 -0.1560 -0.3776 -0.0937
 5148TIP3    H139639   3.689   2.060  18.839 -0.1111 -1.4463  0.6807
 5148TIP3    H239640   3.793   2.168  18.822 -0.4469 -1.5268 -2.5106
 5149TIP3   OH239641   5.462   1.826  18.625 -0.5111 -0.1719  0.0268
 5149TIP3    H139642   5.433   1.905  18.670 -0.9851 -0.4838  0.2740
 5149TIP3    H239643   5.557   1.824  18.638 -0.5769  0.0253  0.5522
 5150TIP3   OH239644   0.679   6.426  18.766  0.1969 -0.0820  0.0913
 5150TIP3    H139645   0.619   6.443  18.694  1.0149 -1.9364 -1.1220
 5150TIP3    H239646   0.746   6.494  18.759  0.5845 -0.5741 -1.3188
 5151TIP3   OH239647   3.654   0.244  18.777  0.2596 -0.0154  0.0124
 5151TIP3    H139648   3.664   0.165  18.829 -0.7185 -0.1639 -0.0038
 5151TIP3    H239649   3.649   0.213  18.687 -1.1039 -0.0498  0.0730
 5152TIP3   OH239650   4.464   2.093  18.138  0.5260  0.5938 -0.4931
 5152TIP3    H139651   4.456   2.034  18.063 -3.1915  0.3323 -0.0515
 5152TIP3    H239652   4.431   2.177  18.106 -0.3754  0.6811  0.6282
 5153TIP3   OH239653   3.561   5.193  19.206 -0.2695 -0.1110 -0.3687
 5153TIP3    H139654   3.647   5.227  19.182 -0.8511  1.0168 -0.9613
 5153TIP3    H239655   3.559   5.104  19.170  0.7129 -0.2215 -0.1698
 5154TIP3   OH239656   4.368   4.096  18.066 -0.4297  0.0321  0.8083
 5154TIP3    H139657   4.387   4.179  18.110 -0.3688 -0.6755  2.2006
 5154TIP3    H239658   4.309   4.050  18.127 -1.5087 -0.4193 -0.5320
 5155TIP3   OH239659   4.956   7.647  17.999  0.1132 -0.5583  0.3181
 5155TIP3    H139660   4.966   7.582  17.930  0.4919  1.1212 -1.2985
 5155TIP3    H239661   5.044   7.655  18.037  0.5394  0.3112 -0.7718
 5156TIP3   OH239662   1.342   0.443  17.708 -0.0572 -0.0415  0.3226
 5156TIP3    H139663   1.257   0.434  17.664  0.4005  0.5201 -0.7146
 5156TIP3    H239664   1.406   0.419  17.641  0.6746  1.0646  0.6042
 5157TIP3   OH239665   1.135   5.476  17.755  0.7405 -0.2636  0.5785
 5157TIP3    H139666   1.109   5.433  17.836 -1.5395 -1.1170 -0.5107
 5157TIP3    H239667   1.179   5.408  17.705 -0.6095 -0.6896 -0.1003
 5158TIP3   OH239668   6.431   2.093  18.047  0.0887 -0.2713  0.6780
 5158TIP3    H139669   6.526   2.080  18.044 -0.0823 -1.4859 -0.1657
 5158TIP3    H239670   6.419   2.185  18.024  1.0487 -0.2039  0.4009
 5159TIP3   OH239671   4.044   7.679  17.020 -0.0501 -0.5441  0.6316
 5159TIP3    H139672   4.115   7.670  17.084  1.3793 -0.1115 -0.8229
 5159TIP3    H239673   4.088   7.678  16.935 -1.7899 -0.1444 -0.3250
 5160TIP3   OH239674   2.830   1.872  17.304  0.4087  0.2627  0.2674
 5160TIP3    H139675   2.884   1.949  17.324 -0.6976  0.7588  1.4587
 5160TIP3    H239676   2.774   1.902  17.232  0.7719  0.1798 -0.0575
 5161TIP3   OH239677   1.699   2.877  19.440  0.0175  0.1792  0.0831
 5161TIP3    H139678   1.781   2.919  19.413  0.3127 -0.2906  0.2323
 5161TIP3    H239679   1.724   2.821  19.513  0.4024 -3.0364 -2.2778
 5162TIP3   OH239680   2.098   4.035  17.003  0.0555  0.1828 -0.2167
 5162TIP3    H139681   2.168   4.097  17.027 -0.6309  1.5134 -1.5028
 5162TIP3    H239682   2.028   4.090  16.968 -0.6551 -1.3198 -1.2681
 5163TIP3   OH239683   4.234   6.838  19.222 -0.3700  0.4857  0.0033
 5163TIP3    H139684   4.187   6.847  19.139  0.1160 -0.8285 -0.4361
 5163TIP3    H239685   4.230   6.745  19.242 -1.0310  0.8481  1.8047
 5164TIP3   OH239686   0.223   1.548  19.379  0.2102 -0.1586  0.1799
 5164TIP3    H139687   0.128   1.563  19.384  0.0513 -1.1893  0.3682
 5164TIP3    H239688   0.234   1.491  19.304  0.5179 -1.2797  1.0561
 5165TIP3   OH239689   1.457   1.723  17.256  0.4170 -0.1040  0.4158
 5165TIP3    H139690   1.395   1.791  17.230 -0.7856 -1.7409 -1.1900
 5165TIP3    H239691   1.532   1.737  17.198  0.5046  0.3088  0.6210
 5166TIP3   OH239692   6.653   5.892  18.123  0.3015  0.5553 -0.4032
 5166TIP3    H139693   6.577   5.940  18.089  0.3811  0.8430 -0.1823
 5166TIP3    H239694   6.723   5.957  18.123  0.0603  0.8542  1.2506
 5167TIP3   OH239695   2.609   5.413  19.064  0.0290 -0.3728  0.2056
 5167TIP3    H139696   2.591   5.392  18.972  1.1433 -0.1355 -0.0881
 5167TIP3    H239697   2.629   5.329  19.104 -0.0822 -0.4342  0.1338
 5168TIP3   OH239698   2.911   7.526  18.235  0.3784  0.4363 -0.7713
 5168TIP3    H139699   2.968   7.477  18.294  1.6413  1.5819 -1.0070
 5168TIP3    H239700   2.927   7.487  18.149  1.3196  1.1768 -0.9453
 5169TIP3   OH239701   5.028   3.936  18.628 -0.2042  0.3947  0.3071
 5169TIP3    H139702   5.006   3.927  18.721 -0.1045 -1.7255  0.1754
 5169TIP3    H239703   4.954   3.985  18.591 -0.7624  0.3400  1.3089
 5170TIP3   OH239704   0.148   2.894  19.032  0.9178  0.1190 -0.1841
 5170TIP3    H139705   0.153   2.808  19.072  1.0526  0.2697  0.1203
 5170TIP3    H239706   0.092   2.881  18.955  0.7532 -0.1906 -0.0133
 5171TIP3   OH239707   5.392   6.190  17.097  0.5157 -0.0819  0.1807
 5171TIP3    H139708   5.440   6.108  17.082  1.0224 -0.0497  1.5319
 5171TIP3    H239709   5.438   6.232  17.169 -0.9266  0.4544  0.8247
 5172TIP3   OH239710   3.447   6.267  17.837  0.4893 -0.4648  0.5198
 5172TIP3    H139711   3.366   6.310  17.809  1.3013  2.0831  1.7773
 5172TIP3    H239712   3.423   6.175  17.848 -1.9664  0.0445 -0.0523
 5173TIP3   OH239713   6.982   1.356  18.163 -0.2491  0.2026 -0.8867
 5173TIP3    H139714   7.053   1.303  18.127  0.3968 -0.4425  1.2063
 5173TIP3    H239715   6.953   1.410  18.089  1.9932  0.0526 -1.9696
 5174TIP3   OH239716   2.456   6.195  18.978  0.8283 -0.3226 -0.5345
 5174TIP3    H139717   2.415   6.281  18.984  0.2910 -0.4364 -2.0477
 5174TIP3    H239718   2.407   6.140  19.040  0.4837  0.2054 -0.3365
 5175TIP3   OH239719   4.766   5.656  17.452  0.0522 -0.3361 -0.3979
 5175TIP3    H139720   4.861   5.656  17.446  0.1088 -0.5000  0.3701
 5175TIP3    H239721   4.737   5.715  17.382  0.6661 -0.9900 -1.2060
 5176TIP3   OH239722   2.628   2.149  17.193  0.3724  0.0450  0.8383
 5176TIP3    H139723   2.556   2.212  17.193  1.0596  0.9130 -0.7615
 5176TIP3    H239724   2.665   2.155  17.105  0.8698 -2.1668  0.8304
 5177TIP3   OH239725   2.750   4.021  18.695 -0.0003  0.0987 -0.7392
 5177TIP3    H139726   2.728   3.939  18.650  0.0229  0.7538 -2.0156
 5177TIP3    H239727   2.842   4.012  18.719 -0.2201 -0.5670 -0.1463
 5178TIP3   OH239728   1.792   7.322  18.501 -0.0898  0.2975 -0.0789
 5178TIP3    H139729   1.845   7.312  18.421  1.8028  1.5418  0.9409
 5178TIP3    H239730   1.804   7.413  18.526  1.0111 -0.4993  2.7041
 5179TIP3   OH239731   4.142   4.286  17.221  1.2135 -0.0271  0.9135
 5179TIP3    H139732   4.140   4.241  17.306  0.9519 -2.3914 -0.2582
 5179TIP3    H239733   4.114   4.219  17.159 -0.3645  2.1370 -0.8439
 5180TIP3   OH239734   7.277   5.681  18.779  0.0866 -0.5575 -0.2386
 5180TIP3    H139735   7.256   5.643  18.694 -1.5716 -1.2050  0.4039
 5180TIP3    H239736   7.221   5.758  18.785  2.1487  1.0711 -0.8043
 5181TIP3   OH239737   2.234   2.641  19.454 -0.3416  0.0952 -0.4607
 5181TIP3    H139738   2.195   2.594  19.528 -0.4275 -0.3594 -0.7946
 5181TIP3    H239739   2.308   2.587  19.428 -0.9446 -0.3054 -1.3902
 5182TIP3   OH239740   1.651   1.834  17.502  0.8020  0.2694  0.4351
 5182TIP3    H139741   1.611   1.866  17.421  0.5813 -2.1828 -0.5207
 5182TIP3    H239742   1.745   1.831  17.483  0.9674  1.5290  0.9884
 5183TIP3   OH239743   1.639   5.922  17.911 -0.2339 -0.2734  0.4872
 5183TIP3    H139744   1.588   5.840  17.912 -2.9104  1.2380  2.2112
 5183TIP3    H239745   1.607   5.969  17.834 -0.5241  0.1369  0.8524
 5184TIP3   OH239746   3.029   7.629  17.283 -0.3502 -0.3325  0.3345
 5184TIP3    H139747   2.968   7.588  17.345  0.3551 -0.9270  0.6428
 5184TIP3    H239748   3.053   7.560  17.222 -2.7051  0.7285 -2.0088
 5185TIP3   OH239749   2.782   3.333  17.679 -0.3979  0.3255 -0.1337
 5185TIP3    H139750   2.854   3.396  17.684  0.6848 -0.8804 -0.1063
 5185TIP3    H239751   2.796   3.274  17.753 -0.1944 -1.1513 -1.3002
 5186TIP3   OH239752   2.335   4.771  18.582 -0.2291  0.0253  0.1254
 5186TIP3    H139753   2.428   4.758  18.560  0.4172  2.0483  1.3708
 5186TIP3    H239754   2.334   4.851  18.634 -2.6142 -0.3921  0.8295
 5187TIP3   OH239755   6.521   4.263  19.199  0.2884 -0.6318  0.3945
 5187TIP3    H139756   6.516   4.220  19.114 -1.3310 -0.1676  0.2123
 5187TIP3    H239757   6.450   4.223  19.249 -0.7897  1.2633  0.4708
 5188TIP3   OH239758   1.144   3.225  16.922  0.2902  0.1248  0.1992
 5188TIP3    H139759   1.067   3.171  16.905  1.2549 -1.4866  0.7524
 5188TIP3    H239760   1.119   3.313  16.893 -1.0221 -0.7758 -1.5831
 5189TIP3   OH239761   2.988   7.151  18.784 -0.3717  0.9321  0.4660
 5189TIP3    H139762   3.056   7.085  18.794 -1.5741 -0.2295  1.2504
 5189TIP3    H239763   3.017   7.223  18.840  1.0119  1.1777 -0.4910
 5190TIP3   OH239764   6.013   2.070  18.143  0.2610  0.0416 -0.3973
 5190TIP3    H139765   6.016   1.979  18.113  2.5794  0.2642 -0.9781
 5190TIP3    H239766   5.970   2.117  18.072  0.0435 -0.4167 -0.5747
 5191TIP3   OH239767   0.001   1.209  18.117  0.3333 -0.2364  0.0307
 5191TIP3    H139768   0.050   1.282  18.079  2.1851 -1.6340 -0.4009
 5191TIP3    H239769   0.068   1.154  18.158 -1.1849 -0.8596  1.8340
 5192TIP3   OH239770   1.741   6.986  19.918  0.0276  0.3959  0.4843
 5192TIP3    H139771   1.767   7.047  19.987  0.1842  0.8334  0.0505
 5192TIP3    H239772   1.710   6.909  19.964 -0.7949  1.0511  1.0708
 5193TIP3   OH239773   5.109   6.462  17.798  0.1932 -0.1729  0.2294
 5193TIP3    H139774   5.160   6.533  17.759  2.0676 -0.5865  1.7989
 5193TIP3    H239775   5.110   6.481  17.892  0.1300 -1.9057  0.6082
 5194TIP3   OH239776   3.784   5.333  19.576 -0.6460  0.0104 -0.3275
 5194TIP3    H139777   3.740   5.381  19.506 -2.3438 -0.9100  0.0498
 5194TIP3    H239778   3.719   5.268  19.604  1.3963 -2.2674 -0.5715
 5195TIP3   OH239779   1.186   4.914  18.743  0.2560  0.2195  0.2240
 5195TIP3    H139780   1.101   4.903  18.701 -0.6876 -0.2620  2.1656
 5195TIP3    H239781   1.234   4.834  18.721 -0.7995 -0.7469  1.3076
 5196TIP3   OH239782   3.215   6.974  18.025 -0.0094  0.2811 -0.0904
 5196TIP3    H139783   3.240   6.961  18.116 -0.5343 -0.5888 -0.0640
 5196TIP3    H239784   3.119   6.979  18.026 -0.1266 -1.1825 -0.7408
 5197TIP3   OH239785   2.110   2.026  18.368  0.2909 -0.1741  0.1398
 5197TIP3    H139786   2.068   1.981  18.442  2.2243  0.4217  1.7154
 5197TIP3    H239787   2.070   2.112  18.366 -1.5721 -1.0006 -1.2137
 5198TIP3   OH239788   4.554   0.991  19.440 -0.2474  0.1308 -0.3460
 5198TIP3    H139789   4.569   0.900  19.412  1.3013  0.3211 -0.2308
 5198TIP3    H239790   4.473   0.987  19.490 -0.5801 -1.0684 -0.9371
 5199TIP3   OH239791   5.270   5.300  18.520  0.0036 -0.4037 -0.1911
 5199TIP3    H139792   5.273   5.259  18.606 -1.8387 -1.2252 -0.4626
 5199TIP3    H239793   5.189   5.351  18.521 -1.5399 -2.5914 -2.3018
 5200TIP3   OH239794   3.226   6.357  18.060  0.2854  0.5452 -0.0697
 5200TIP3    H139795   3.145   6.348  18.008 -0.8678  0.6097  1.6426
 5200TIP3    H239796   3.259   6.268  18.070  1.6841  0.6941 -2.5893
 5201TIP3   OH239797   4.947   2.067  18.871 -0.5743 -0.2737  0.6170
 5201TIP3    H139798   5.026   2.084  18.924 -0.2713  1.0519 -0.1975
 5201TIP3    H239799   4.875   2.097  18.927 -0.2304  1.4541  0.2107
 5202TIP3   OH239800   4.379   4.994  18.631  0.0024  0.6064  0.4985
 5202TIP3    H139801   4.305   5.034  18.677  0.4119  1.9050  0.0979
 5202TIP3    H239802   4.447   5.062  18.634  1.8864 -1.2018  2.5239
 5203TIP3   OH239803   5.496   0.037  17.204 -0.1670 -0.4253  0.2247
 5203TIP3    H139804   5.471   0.113  17.152 -0.7852 -0.4446  0.4780
 5203TIP3    H239805   5.481  -0.038  17.146 -0.6122 -0.4282  0.3367
 5204TIP3   OH239806   0.705   3.818  18.482  0.1105  0.4831 -0.4267
 5204TIP3    H139807   0.786   3.793  18.439  0.8420  1.0986  0.5421
 5204TIP3    H239808   0.683   3.904  18.445 -1.2876 -0.5941 -2.2466
 5205TIP3   OH239809   1.079   3.847  17.461 -0.4572 -0.0885  1.1513
 5205TIP3    H139810   1.119   3.762  17.478 -0.4530 -0.2195  0.5228
 5205TIP3    H239811   1.152   3.909  17.461 -0.2114 -0.3448 -0.1224
 5206TIP3   OH239812   2.967   1.189  17.669  0.4788  0.4777  0.5638
 5206TIP3    H139813   2.930   1.142  17.594 -0.1229  3.1233 -0.9304
 5206TIP3    H239814   3.008   1.121  17.722  0.2068 -1.6253 -1.7318
 5207TIP3   OH239815   2.206   0.565  18.081  0.0634 -0.3798 -0.0345
 5207TIP3    H139816   2.287   0.545  18.034 -1.0787  0.4706 -2.5633
 5207TIP3    H239817   2.156   0.484  18.079  0.7634 -0.8933  1.4916
 5208TIP3   OH239818   2.795   6.224  17.924 -0.2009 -0.3156 -0.0828
 5208TIP3    H139819   2.799   6.243  17.830 -0.2736  1.2503  0.2003
 5208TIP3    H239820   2.721   6.165  17.934 -0.2875 -0.3710 -0.9900
 5209TIP3   OH239821   6.276   4.028  18.304  0.1036  0.6471 -0.4686
 5209TIP3    H139822   6.316   4.106  18.266  2.7554 -0.1150  0.5676
 5209TIP3    H239823   6.182   4.048  18.306  0.3856  2.6525 -2.7774
 5210TIP3   OH239824   7.249   4.334  18.979 -0.1267 -0.0691  0.3189
 5210TIP3    H139825   7.254   4.386  19.059  2.4607  0.0327  0.1775
 5210TIP3    H239826   7.203   4.254  19.005  0.0727  0.2559  1.7276
 5211TIP3   OH239827   7.169   6.297  18.257  1.0210  0.2433  0.4554
 5211TIP3    H139828   7.150   6.269  18.167  0.1140 -1.1204  1.0315
 5211TIP3    H239829   7.090   6.344  18.284  0.6224 -0.7319  1.0462
 5212TIP3   OH239830   2.444   2.007  17.005  0.0176  0.3167  0.7058
 5212TIP3    H139831   2.369   1.996  17.064  1.0395 -0.3717  1.9369
 5212TIP3    H239832   2.455   2.102  16.997 -2.0590  0.4812 -0.9690
 5213TIP3   OH239833   3.629   2.470  19.158  0.0419 -0.1091 -0.3733
 5213TIP3    H139834   3.710   2.433  19.123 -0.5944 -0.5832 -1.4331
 5213TIP3    H239835   3.640   2.469  19.253  0.9659 -0.8692 -0.4753
 5214TIP3   OH239836   2.025   7.336  18.347  0.4493  0.0715  0.2682
 5214TIP3    H139837   2.065   7.365  18.429  0.3810 -1.2459  0.7757
 5214TIP3    H239838   2.066   7.392  18.280 -0.0079  1.6554  1.2420
 5215TIP3   OH239839   2.220   1.137  18.062 -0.4173 -0.0534  0.4574
 5215TIP3    H139840   2.234   1.221  18.104  0.4379  0.3816 -0.6302
 5215TIP3    H239841   2.141   1.148  18.009  0.7818  0.7786 -1.2831
 5216TIP3   OH239842   3.656   3.513  17.952  0.6148  0.2547 -0.2132
 5216TIP3    H139843   3.684   3.541  18.039  2.3145 -1.7377 -0.0311
 5216TIP3    H239844   3.722   3.548  17.893 -0.8116  2.0397 -0.8462
 5217TIP3   OH239845   0.365   7.012  17.012  0.5512  0.2991  0.0308
 5217TIP3    H139846   0.287   6.994  16.960 -1.3258  2.2884  1.9428
 5217TIP3    H239847   0.396   7.096  16.979  0.9543  0.2636  0.3173
 5218TIP3   OH239848   3.680   6.201  18.559 -0.5564  0.3075  0.5582
 5218TIP3    H139849   3.610   6.137  18.570 -0.8122  0.5552  0.3615
 5218TIP3    H239850   3.754   6.150  18.527 -1.0053  0.2391 -0.4128
 5219TIP3   OH239851   4.757   6.812  19.021 -0.4786 -0.7465  0.4866
 5219TIP3    H139852   4.828   6.825  19.084 -0.6678 -1.3209  0.8228
 5219TIP3    H239853   4.677   6.835  19.069 -0.4079  1.8344 -0.4647
 5220TIP3   OH239854   0.071   0.369  19.444  0.0989  0.0110 -0.1523
 5220TIP3    H139855   0.156   0.327  19.429 -0.3882 -1.3762  0.7607
 5220TIP3    H239856   0.091   0.439  19.506  0.5999 -0.2296 -0.0318
 5221TIP3   OH239857   1.180   3.714  19.133  0.4135 -0.1561 -0.5210
 5221TIP3    H139858   1.139   3.674  19.210 -0.6170  0.0670 -0.9381
 5221TIP3    H239859   1.236   3.782  19.169  1.4668 -1.3143  0.1461
 5222TIP3   OH239860   2.588   3.060  16.372  0.3862  0.9020 -0.2201
 5222TIP3    H139861   2.640   3.137  16.394  0.7258  0.9869 -1.2952
 5222TIP3    H239862   2.497   3.087  16.388  0.4257  1.8477 -1.4813
 5223TIP3   OH239863   7.485   1.361  17.749  0.0127  0.1042  0.0482
 5223TIP3    H139864   7.564   1.403  17.784 -0.4426 -0.0170  1.2467
 5223TIP3    H239865   7.480   1.392  17.659  1.4236  0.1232 -0.0550
 5224TIP3   OH239866   4.410   2.834  17.812 -0.5574  0.5477  0.7032
 5224TIP3    H139867   4.382   2.903  17.752 -0.1154 -0.6215 -0.9021
 5224TIP3    H239868   4.502   2.854  17.831  0.1072 -0.5179 -1.1734
 5225TIP3   OH239869   6.877   7.373  17.075 -0.3595 -0.1658  0.5532
 5225TIP3    H139870   6.785   7.347  17.074 -0.3894 -0.1162  1.4438
 5225TIP3    H239871   6.920   7.312  17.015 -1.1080  0.3788 -0.5899
 5226TIP3   OH239872   2.748   5.425  18.150 -0.2198 -0.2102  0.0341
 5226TIP3    H139873   2.720   5.350  18.098  1.1045 -1.4623  1.0407
 5226TIP3    H239874   2.700   5.417  18.232 -1.4835  1.1465 -0.5300
 5227TIP3   OH239875   2.523   4.994  17.967  0.2043  0.3885 -0.1730
 5227TIP3    H139876   2.583   4.992  18.042 -0.3363  0.3245  0.2703
 5227TIP3    H239877   2.572   4.954  17.896  1.0829  1.3346 -0.1210
 5228TIP3   OH239878   1.921   1.114  18.720 -0.4840 -0.1779  0.2727
 5228TIP3    H139879   1.946   1.108  18.812  2.5395 -2.4114 -0.5308
 5228TIP3    H239880   1.848   1.052  18.711 -1.0783  0.3603  1.1920
 5229TIP3   OH239881   4.958   1.659  17.519  0.4371  0.5796 -0.2515
 5229TIP3    H139882   4.974   1.588  17.457  0.9522 -1.2191  1.8117
 5229TIP3    H239883   4.863   1.666  17.524  0.3454 -0.8341  0.4043
 5230TIP3   OH239884   2.132   4.093  19.331 -0.4763  0.1366  0.1341
 5230TIP3    H139885   2.141   4.136  19.417 -0.6512  2.5651 -0.9836
 5230TIP3    H239886   2.211   4.040  19.324  0.1755  0.8870  1.3007
 5231TIP3   OH239887   0.964   1.015  17.693  0.3036 -1.1756  0.3548
 5231TIP3    H139888   0.997   1.101  17.667 -2.0215  0.1939  1.6069
 5231TIP3    H239889   0.980   0.959  17.616  1.2694  0.5229 -0.7457
 5232TIP3   OH239890   6.054   0.056  18.105  0.0241  0.4333 -0.4658
 5232TIP3    H139891   6.118   0.114  18.064 -0.9727 -0.0129 -2.8167
 5232TIP3    H239892   5.988   0.115  18.141  1.0145  0.8390  0.7782
 5233TIP3   OH239893   0.426   5.863  17.639  0.2713  0.0081  0.5670
 5233TIP3    H139894   0.507   5.863  17.587  0.8135  2.6149  1.2273
 5233TIP3    H239895   0.365   5.915  17.587 -1.1104 -2.0369  0.0215
 5234TIP3   OH239896   0.056   2.570  18.720  0.4406  0.1864  0.1179
 5234TIP3    H139897   0.089   2.649  18.763  1.9426 -2.1638  3.7352
 5234TIP3    H239898   0.117   2.556  18.647  2.1161  0.7064  1.3564
 5235TIP3   OH239899   3.841   7.002  17.540 -0.0807  0.9076 -0.2148
 5235TIP3    H139900   3.897   7.067  17.583  0.4325  1.1164 -1.1714
 5235TIP3    H239901   3.899   6.956  17.480 -0.4131 -0.5418  0.5360
 5236TIP3   OH239902   4.215   0.299  18.172 -0.1250  0.3076  0.4559
 5236TIP3    H139903   4.156   0.291  18.097 -1.4836  2.7369  1.1555
 5236TIP3    H239904   4.294   0.340  18.137 -2.0970  4.8818  0.7477
 5237TIP3   OH239905   4.358   2.283  17.622 -0.5628 -0.0953  0.0337
 5237TIP3    H139906   4.422   2.241  17.680  0.0912  1.0333  0.1692
 5237TIP3    H239907   4.411   2.325  17.554 -1.2940 -0.8739 -1.0325
 5238TIP3   OH239908   0.516   0.792  18.878 -0.0976  0.2554 -0.4100
 5238TIP3    H139909   0.461   0.763  18.806  1.4456 -0.6403 -1.3001
 5238TIP3    H239910   0.455   0.825  18.944 -1.7260 -1.4742 -0.9723
 5239TIP3   OH239911   7.586   3.328  19.087  0.0246  0.3079 -0.2392
 5239TIP3    H139912   7.552   3.278  19.012 -0.6656 -0.7184  0.7242
 5239TIP3    H239913   7.658   3.275  19.121  0.3861  0.8054 -0.2179
 5240TIP3   OH239914   0.151   7.480  17.593  0.2539  0.6107 -0.3997
 5240TIP3    H139915   0.223   7.450  17.650 -0.5921 -2.1953 -0.6642
 5240TIP3    H239916   0.103   7.401  17.571 -1.1313  1.9915 -2.7845
 5241TIP3   OH239917   7.553   4.434  18.087 -0.3023  0.1134  0.1965
 5241TIP3    H139918   7.477   4.475  18.128 -0.1011 -0.4906  1.2062
 5241TIP3    H239919   7.624   4.497  18.098 -0.5002  0.4184 -0.2151
 5242TIP3   OH239920   6.268   4.607  17.347  0.0252  0.0938  0.1042
 5242TIP3    H139921   6.286   4.598  17.440  2.6895  0.5397 -0.3023
 5242TIP3    H239922   6.352   4.630  17.307 -0.6971 -1.4507 -2.6161
 5243TIP3   OH239923   0.632   5.083  17.798 -0.1400 -0.9271  0.1217
 5243TIP3    H139924   0.622   4.999  17.752 -0.7997 -2.9856  3.6729
 5243TIP3    H239925   0.570   5.078  17.871  1.2867  1.8223  1.6758
 5244TIP3   OH239926   4.205   6.732  18.647  0.0464 -0.3564  0.6051
 5244TIP3    H139927   4.116   6.760  18.628 -0.1558 -2.0728 -1.2059
 5244TIP3    H239928   4.260   6.797  18.603 -0.3566 -0.5957 -0.2685
 5245TIP3   OH239929   4.368   0.002  18.529  0.6628 -0.2653  0.4392
 5245TIP3    H139930   4.302  -0.053  18.571  1.1173 -1.3180 -0.1688
 5245TIP3    H239931   4.438   0.008  18.593  0.1802  0.4757  0.9079
 5246TIP3   OH239932   7.306   7.613  12.604  0.1585 -0.2721  0.0891
 5246TIP3    H139933   7.371   7.557  12.561 -1.0499 -2.3253  0.8368
 5246TIP3    H239934   7.242   7.631  12.535  0.4309  0.0226 -0.0914
 5247TIP3   OH239935   2.309   0.260  18.338  0.3338 -0.3090  0.2606
 5247TIP3    H139936   2.344   0.294  18.257 -0.1636 -0.1865  0.0931
 5247TIP3    H239937   2.385   0.246  18.394  0.8421 -1.7097 -0.7093
 5248TIP3   OH239938   4.529   5.578  18.832 -0.6671  0.0021 -0.2691
 5248TIP3    H139939   4.434   5.585  18.827 -0.7958 -0.7478  0.8672
 5248TIP3    H239940   4.557   5.660  18.873 -1.0183 -0.6153  1.2521
 5249TIP3   OH239941   1.214   2.027  18.100 -0.0337 -0.1545  0.3219
 5249TIP3    H139942   1.208   1.956  18.165 -1.2792  0.6306  1.1076
 5249TIP3    H239943   1.245   1.984  18.021  2.1253 -1.0530  1.5747
 5250TIP3   OH239944   1.526   2.278  17.210 -0.1741  0.4191 -0.4173
 5250TIP3    H139945   1.532   2.255  17.117 -0.8182 -0.2947 -0.2897
 5250TIP3    H239946   1.432   2.287  17.226 -0.2821 -1.8783  0.7023
 5251TIP3   OH239947   4.418   4.082  18.734 -0.2317 -0.4223  0.0077
 5251TIP3    H139948   4.461   4.100  18.650 -0.2326 -0.5829 -0.0275
 5251TIP3    H239949   4.358   4.010  18.714 -1.0189  0.2477 -0.1136
 5252TIP3   OH239950   0.291   0.588  19.415  0.0826 -0.2790  0.1746
 5252TIP3    H139951   0.261   0.560  19.502 -0.5826 -0.4490 -0.0994
 5252TIP3    H239952   0.261   0.679  19.408  0.3075 -0.2037  0.2008
 5253TIP3   OH239953   4.743   1.757  19.003 -0.0164 -0.4182  0.5922
 5253TIP3    H139954   4.706   1.724  19.085  0.4542  2.1207  1.9153
 5253TIP3    H239955   4.671   1.753  18.941 -1.2582  0.3024  1.9277
 5254TIP3   OH239956   2.716   6.371  17.668 -0.1760  0.1816 -0.2433
 5254TIP3    H139957   2.705   6.310  17.596 -0.5026 -0.4610  0.3421
 5254TIP3    H239958   2.785   6.431  17.638  0.2992 -0.5955 -0.7401
 5255TIP3   OH239959   6.900   0.191  17.329 -0.2756 -0.0741  0.2496
 5255TIP3    H139960   6.874   0.158  17.415  0.9631 -0.3176  0.5559
 5255TIP3    H239961   6.994   0.208  17.338 -0.0818 -0.3018 -1.1180
 5256TIP3   OH239962   4.775   1.175  18.174 -0.2487  0.1563 -0.2448
 5256TIP3    H139963   4.833   1.188  18.099 -0.3481 -0.7746 -0.5036
 5256TIP3    H239964   4.833   1.177  18.250  0.1962 -1.0843 -0.5262
 5257TIP3   OH239965   7.553   3.666  18.849  0.3317 -0.0657  0.4025
 5257TIP3    H139966   7.623   3.622  18.802  2.5441  3.6043 -0.1749
 5257TIP3    H239967   7.473   3.625  18.818  1.8059  0.1016 -4.4273
 5258TIP3   OH239968   4.467   3.913  17.919  0.2460  0.1258  0.1861
 5258TIP3    H139969   4.418   3.832  17.936 -1.3234  0.8916 -0.5470
 5258TIP3    H239970   4.425   3.979  17.973  0.8141  0.6971 -0.0532
 5259TIP3   OH239971   5.449   5.584  19.735  0.1688 -0.8341 -0.4286
 5259TIP3    H139972   5.434   5.567  19.828 -0.8955 -0.0515 -0.4401
 5259TIP3    H239973   5.543   5.569  19.723  0.2373 -1.3841  0.6733
 5260TIP3   OH239974   5.025   3.896  18.183  0.3711  0.5705  0.3205
 5260TIP3    H139975   4.945   3.945  18.203  2.2686  2.8081  3.1843
 5260TIP3    H239976   5.078   3.955  18.130  0.9096 -0.1328  0.0542
 5261TIP3   OH239977   0.534   4.870  17.566  0.6500 -0.0114  0.1683
 5261TIP3    H139978   0.606   4.859  17.503 -0.3491 -0.9843 -0.8535
 5261TIP3    H239979   0.469   4.922  17.519 -0.0314 -0.5883  0.4520
 5262TIP3   OH239980   6.773   2.939  18.347  0.3457  0.7943 -0.5459
 5262TIP3    H139981   6.721   2.859  18.333  0.4310  0.5770  0.3555
 5262TIP3    H239982   6.717   3.010  18.315 -0.4121  0.5334  0.1744
 5263TIP3   OH239983   4.428   0.095  19.573  0.5910  0.0131  0.4081
 5263TIP3    H139984   4.488   0.027  19.606  0.8626  1.2990  2.7720
 5263TIP3    H239985   4.374   0.118  19.649  0.1861  2.1092 -0.4639
 5264TIP3   OH239986   7.392   2.818  17.858  0.3746 -0.1927 -0.0965
 5264TIP3    H139987   7.354   2.795  17.773 -0.0127  2.1033 -0.6140
 5264TIP3    H239988   7.486   2.805  17.847  0.4940  1.4259 -1.4241
 5265TIP3   OH239989   5.980   5.952  18.722  0.2091 -0.3869 -0.0224
 5265TIP3    H139990   6.059   6.003  18.704 -0.9708  2.3111  1.7165
 5265TIP3    H239991   5.967   5.960  18.816 -2.2896 -0.4084 -0.2942
 5266TIP3   OH239992   2.671   0.944  19.591  0.1518  0.6772 -0.1576
 5266TIP3    H139993   2.619   0.986  19.522 -2.7069 -0.1529  1.3117
 5266TIP3    H239994   2.676   1.010  19.660  0.1842  0.3954  0.1097
 5267TIP3   OH239995   2.798   0.018  17.699  0.6856 -1.0288 -0.1794
 5267TIP3    H139996   2.875   0.010  17.643  1.1235 -0.0486  0.2589
 5267TIP3    H239997   2.757   0.101  17.672 -0.2567 -1.5671 -0.4506
 5268TIP3   OH239998   2.752   1.027  19.199  0.2898  0.1854  0.1674
 5268TIP3    H139999   2.747   1.123  19.196 -0.1941  0.1777  0.5152
 5268TIP3    H240000   2.845   1.008  19.213  0.3209  0.6177  0.5662
 5269TIP3   OH240001   4.619   1.253  19.397  0.2776 -0.2252  0.3972
 5269TIP3    H140002   4.602   1.299  19.479 -1.8510 -0.5432  0.1753
 5269TIP3    H240003   4.571   1.171  19.405  1.6894 -1.1753 -0.3822
 5270TIP3   OH240004   1.742   5.530  19.631 -0.1526 -0.5752 -0.0146
 5270TIP3    H140005   1.737   5.559  19.722  2.6898 -0.3560  0.1489
 5270TIP3    H240006   1.761   5.436  19.637  1.1663 -0.3447 -0.3242
 5271TIP3   OH240007   6.912   0.555  16.631  0.3982 -0.5787  0.1427
 5271TIP3    H140008   6.876   0.466  16.633 -2.2766  0.4108  1.5660
 5271TIP3    H240009   6.985   0.553  16.693  1.2315 -2.0674 -0.8409
 5272TIP3   OH240010   6.523   1.499  17.795 -0.5819 -0.1493 -0.3687
 5272TIP3    H140011   6.440   1.486  17.839 -1.0769  0.8363 -0.9790
 5272TIP3    H240012   6.560   1.578  17.835 -0.2197 -0.2378 -0.5177
 5273TIP3   OH240013   4.952   2.297  18.529 -0.5357  0.7845 -0.7516
 5273TIP3    H140014   5.000   2.327  18.607  1.7126 -0.6186 -1.4963
 5273TIP3    H240015   4.997   2.340  18.456 -1.2451  0.4154 -1.4196
 5274TIP3   OH240016   5.213   7.283  17.125  0.3512  0.1506  0.2280
 5274TIP3    H140017   5.305   7.270  17.149  0.0622 -0.6452  0.9733
 5274TIP3    H240018   5.186   7.198  17.089 -1.1003 -0.9978  3.5666
 5275TIP3   OH240019   2.714   4.684  18.970  0.1615 -0.4175  0.2188
 5275TIP3    H140020   2.623   4.654  18.965  0.0051 -0.2417  1.6016
 5275TIP3    H240021   2.765   4.604  18.965 -0.1183 -0.6229  0.5953
 5276TIP3   OH240022   4.722   6.310  17.707 -0.0448 -0.6068  0.0175
 5276TIP3    H140023   4.735   6.265  17.791  0.3864  1.3972  1.1052
 5276TIP3    H240024   4.671   6.388  17.730  0.6398  0.3216 -1.4727
 5277TIP3   OH240025   4.640   2.858  18.579  0.7144 -0.7471  0.1489
 5277TIP3    H140026   4.680   2.851  18.493 -0.0602  0.4055 -0.3279
 5277TIP3    H240027   4.600   2.772  18.594 -0.5040 -0.4666 -1.3415
 5278TIP3   OH240028   5.050   0.896  18.014 -0.3500 -0.2005  0.1541
 5278TIP3    H140029   4.979   0.855  17.964 -0.3060 -0.0664 -0.0228
 5278TIP3    H240030   5.127   0.843  17.993 -0.3604 -0.2315  0.1945
 5279TIP3   OH240031   3.620   5.741  17.607  0.2366 -0.1494 -0.1442
 5279TIP3    H140032   3.573   5.747  17.524  0.3168 -1.5671 -0.3273
 5279TIP3    H240033   3.630   5.831  17.636  0.1218  0.3680 -1.6306
 5280TIP3   OH240034   0.686   3.625  17.280 -0.2959  0.4945  0.0165
 5280TIP3    H140035   0.779   3.644  17.285 -0.3387  0.9325 -0.6005
 5280TIP3    H240036   0.670   3.610  17.186 -1.2289  2.6047 -0.2378
 5281TIP3   OH240037   1.210   2.063  16.955 -0.4697  0.3915  0.3084
 5281TIP3    H140038   1.192   1.981  16.910  1.3920  0.2382 -0.2134
 5281TIP3    H240039   1.183   2.131  16.894  0.6626  0.1684 -0.4658
 5282TIP3   OH240040   4.772   4.086  17.683 -0.1150  0.0955 -0.1562
 5282TIP3    H140041   4.861   4.092  17.646 -0.2009  0.0145 -0.3785
 5282TIP3    H240042   4.740   4.176  17.681 -0.4530 -0.0313 -1.1267
 5283TIP3   OH240043   1.302   3.557  18.105 -0.1459 -0.0265 -0.2997
 5283TIP3    H140044   1.215   3.586  18.078 -1.2504  0.7264  3.4504
 5283TIP3    H240045   1.286   3.490  18.172  2.2754 -2.0207 -1.5572
 5284TIP3   OH240046   0.420   6.122  17.192  0.1676 -0.4860  0.2850
 5284TIP3    H140047   0.339   6.072  17.183  0.3893 -0.8687  0.3906
 5284TIP3    H240048   0.442   6.147  17.102 -0.7265  0.7023  0.3660
 5285TIP3   OH240049   2.562   3.043  16.964 -0.8799  0.6795 -0.5326
 5285TIP3    H140050   2.518   2.965  16.928 -0.2120 -0.3443  0.7657
 5285TIP3    H240051   2.626   3.067  16.897  0.6648 -1.4687  0.0210
 5286TIP3   OH240052   2.499   0.442  19.574  0.4169  0.0182 -0.0915
 5286TIP3    H140053   2.564   0.405  19.635  0.8766  0.5057 -0.2859
 5286TIP3    H240054   2.544   0.515  19.532 -1.1905  2.3619  1.9900
 5287TIP3   OH240055   4.875   5.607  18.981  0.4342 -0.3051  0.6730
 5287TIP3    H140056   4.806   5.599  19.047  0.7699  0.6259  1.1477
 5287TIP3    H240057   4.953   5.632  19.031  0.6673  0.5169 -0.0856
 5288TIP3   OH240058   5.970   7.409  18.620  0.0831  0.5049  0.2822
 5288TIP3    H140059   5.937   7.485  18.668  1.1188  0.8731  0.4345
 5288TIP3    H240060   5.892   7.356  18.603 -0.8441  2.1043 -0.7649
 5289TIP3   OH240061   2.671   4.913  18.223  0.1694  0.1665  0.7447
 5289TIP3    H140062   2.665   4.820  18.245 -0.2736 -0.0097 -0.0837
 5289TIP3    H240063   2.765   4.930  18.217  0.2489 -0.2661  0.7471
 5290TIP3   OH240064   7.239   4.269  18.649 -0.7978  0.5974 -0.3309
 5290TIP3    H140065   7.263   4.361  18.640 -0.1459  0.4105 -0.4934
 5290TIP3    H240066   7.147   4.271  18.677 -0.9636  1.2807 -0.9079
 5291TIP3   OH240067   4.253   3.220  17.988  0.3340 -0.2468 -0.2163
 5291TIP3    H140068   4.174   3.264  17.955  1.4528  0.6027 -1.8767
 5291TIP3    H240069   4.219   3.147  18.040 -1.5617 -0.1767 -1.2577
 5292TIP3   OH240070   4.635   0.767  18.933 -0.2530  0.3627  0.3794
 5292TIP3    H140071   4.665   0.798  18.847 -0.5375 -1.0285 -0.2401
 5292TIP3    H240072   4.681   0.684  18.945 -1.4492 -0.2419  0.8425
 5293TIP3   OH240073   1.888   4.869  18.716  0.1287  0.0303 -0.2717
 5293TIP3    H140074   1.927   4.821  18.643 -1.3360 -0.3138 -0.8690
 5293TIP3    H240075   1.795   4.844  18.714 -0.2137  1.1202  0.8288
 5294TIP3   OH240076   2.680   6.817  19.508  0.1944 -0.3188 -0.3034
 5294TIP3    H140077   2.587   6.801  19.494  0.1974 -0.6410  0.0350
 5294TIP3    H240078   2.710   6.856  19.426 -0.5548  1.2176  0.1052
 5295TIP3   OH240079   3.579   6.095  17.362 -0.0939  0.1402  0.1065
 5295TIP3    H140080   3.636   6.018  17.353  1.5519  1.0904  1.6959
 5295TIP3    H240081   3.493   6.058  17.384  0.9199 -1.2750  2.0291
 5296TIP3   OH240082   6.114   4.061  19.121 -0.1149 -0.1398  0.0076
 5296TIP3    H140083   6.075   3.996  19.180 -3.0958  0.7353 -0.7898
 5296TIP3    H240084   6.093   4.028  19.033 -0.9148  1.4008 -0.4174
 5297TIP3   OH240085   7.595   6.097  18.357 -0.6125 -0.5916  0.2184
 5297TIP3    H140086   7.545   6.106  18.276  0.7946 -1.9737 -0.8803
 5297TIP3    H240087   7.601   6.002  18.370  0.4434 -0.4164  1.1211
 5298TIP3   OH240088   4.638   6.003  17.401 -0.9740  0.4121  0.2505
 5298TIP3    H140089   4.715   6.059  17.411 -1.0132  0.7284 -1.0293
 5298TIP3    H240090   4.568   6.063  17.373 -0.6546 -0.4237 -2.6139
 5299TIP3   OH240091   2.208   1.524  18.010  0.0201 -0.6136  0.0584
 5299TIP3    H140092   2.234   1.463  17.940  1.3272 -0.5239  0.4384
 5299TIP3    H240093   2.244   1.485  18.090 -0.6317 -0.2149  0.5575
 5300TIP3   OH240094   1.853   4.898  19.367  0.0200  0.6337  0.2509
 5300TIP3    H140095   1.758   4.905  19.364 -0.0596  0.5521  1.7368
 5300TIP3    H240096   1.880   4.895  19.275 -1.4435  0.1274 -0.1897
 5301TIP3   OH240097   7.352   7.010  17.999  0.2398 -0.0088 -0.2764
 5301TIP3    H140098   7.410   6.941  18.031 -0.9316 -1.4833 -1.2181
 5301TIP3    H240099   7.379   7.025  17.909 -0.5794 -0.4401 -0.6027
 5302TIP3   OH240100   3.716   4.049  19.061 -0.1326  0.4966  0.7473
 5302TIP3    H140101   3.694   3.969  19.014 -0.0205  0.0562  1.4352
 5302TIP3    H240102   3.748   4.020  19.146  0.0128  1.2662  0.9704
 5303TIP3   OH240103   6.030   0.296  17.088 -0.1024 -0.1971 -0.3757
 5303TIP3    H140104   5.943   0.316  17.053  0.4533  0.3157 -1.5185
 5303TIP3    H240105   6.072   0.381  17.096  0.2785 -0.4403  0.2283
 5304TIP3   OH240106   1.903   5.002  19.614 -1.3437  0.5912 -0.1472
 5304TIP3    H140107   1.868   4.938  19.676 -0.2219  0.2676  0.1733
 5304TIP3    H240108   1.896   4.959  19.528  0.7224 -0.5975  0.2196
 5305TIP3   OH240109   2.147   0.414  19.045 -0.0504 -0.0968  0.8753
 5305TIP3    H140110   2.213   0.467  19.088 -1.7278  2.4691  0.5123
 5305TIP3    H240111   2.194   0.367  18.976  1.6257  0.3890  1.6530
 5306TIP3   OH240112   0.404   3.718  17.969  0.5208  0.2593 -0.7264
 5306TIP3    H140113   0.448   3.672  18.041  0.1563  0.8050 -0.1530
 5306TIP3    H240114   0.475   3.760  17.921  0.7104  0.4564 -0.2823
 5307TIP3   OH240115   3.981   0.062  17.284  0.5248  0.4685  0.2811
 5307TIP3    H140116   4.018   0.148  17.307 -0.6913  1.2063 -0.4249
 5307TIP3    H240117   3.974   0.065  17.188 -0.6874  0.0836  0.3454
 5308TIP3   OH240118   1.477   1.200  19.239  0.1686  0.1457 -0.5992
 5308TIP3    H140119   1.552   1.191  19.180  1.1687  1.5297  0.4054
 5308TIP3    H240120   1.487   1.128  19.302 -1.4387 -1.9552 -2.5519
 5309TIP3   OH240121   6.321   6.805  18.362  0.4874 -0.4455 -0.1188
 5309TIP3    H140122   6.329   6.731  18.302  2.3247  0.5595 -1.2040
 5309TIP3    H240123   6.411   6.837  18.374 -0.2277  1.5717  0.3236
 5310TIP3   OH240124   4.391   1.925  17.932  0.1302 -0.1371  0.2805
 5310TIP3    H140125   4.398   1.910  17.838 -0.7417  2.8595 -0.3659
 5310TIP3    H240126   4.302   1.899  17.955 -0.7145  1.9576 -0.4201
 5311TIP3   OH240127   2.409   6.462  18.129  0.2469 -0.0951 -0.3773
 5311TIP3    H140128   2.501   6.454  18.103  0.6098  2.2264  0.0008
 5311TIP3    H240129   2.413   6.492  18.220 -0.9368 -1.6790  0.2310
 5312TIP3   OH240130   5.910   5.568  19.554  0.0010  0.7304  0.4767
 5312TIP3    H140131   5.985   5.620  19.527 -0.7684  0.9225 -1.4244
 5312TIP3    H240132   5.838   5.598  19.498 -1.3469  0.0955  1.7772
 5313TIP3   OH240133   4.826   0.525  18.630  0.5583  0.2247 -0.0639
 5313TIP3    H140134   4.746   0.473  18.621 -0.2843  1.2071  1.4040
 5313TIP3    H240135   4.896   0.460  18.639 -0.5053 -0.7298  2.1232
 5314TIP3   OH240136   0.967   2.544  17.768  0.0790 -0.7277 -0.0144
 5314TIP3    H140137   0.902   2.593  17.819  0.9720  1.7118 -1.0710
 5314TIP3    H240138   1.048   2.552  17.819  0.5723  0.2376 -0.9129
 5315TIP3   OH240139   7.151   5.358  17.209 -0.2208  0.6003  0.0686
 5315TIP3    H140140   7.205   5.433  17.235  0.7008  0.0908 -0.3169
 5315TIP3    H240141   7.072   5.366  17.262  0.7527  0.6998  1.5700
 5316TIP3   OH240142   2.199   6.839  19.349  0.5663 -0.0066  0.3195
 5316TIP3    H140143   2.138   6.913  19.340  0.9855  0.2419 -0.5346
 5316TIP3    H240144   2.242   6.833  19.264  0.9804 -0.8523  0.5835
 5317TIP3   OH240145   4.665   6.516  16.972 -0.0408  0.0071  0.4639
 5317TIP3    H140146   4.658   6.490  16.880 -0.4696 -0.0857  0.5229
 5317TIP3    H240147   4.659   6.612  16.970  0.3534  0.0333  0.3598
 5318TIP3   OH240148   3.105   5.062  18.864  0.1468  0.5709  0.9191
 5318TIP3    H140149   3.134   4.980  18.825 -0.6741 -0.5375  2.5305
 5318TIP3    H240150   3.184   5.115  18.872  0.7645 -0.2452  0.3132
 5319TIP3   OH240151   3.949   5.234  19.357 -0.3474  0.2347 -0.3867
 5319TIP3    H140152   3.891   5.241  19.433  0.4494 -0.0825  0.2572
 5319TIP3    H240153   3.998   5.316  19.356  0.8282 -0.4301  0.4366
 5320TIP3   OH240154   6.954   2.767  16.746  0.4619 -0.2965  0.4452
 5320TIP3    H140155   6.943   2.687  16.695  0.4102  0.5733 -0.9684
 5320TIP3    H240156   6.866   2.805  16.751  0.4669 -0.3537  1.2016
 5321TIP3   OH240157   3.296   2.705  17.502  0.0453 -0.1342  0.4537
 5321TIP3    H140158   3.342   2.788  17.514  1.4511 -0.8995  0.4938
 5321TIP3    H240159   3.314   2.680  17.412 -0.0008 -0.6220  0.5763
 5322TIP3   OH240160   1.443   5.727  17.675  0.8740  0.5947 -0.4518
 5322TIP3    H140161   1.479   5.640  17.654 -2.4168 -0.7708 -1.1794
 5322TIP3    H240162   1.479   5.785  17.609  0.9774 -0.8722 -1.7411
 5323TIP3   OH240163   6.548   7.300  18.323 -0.4224  0.1952  0.0413
 5323TIP3    H140164   6.604   7.252  18.384 -1.7115 -1.5796 -0.1198
 5323TIP3    H240165   6.568   7.392  18.341  1.9081 -0.3399  0.5565
 5324TIP3   OH240166   2.347   2.400  18.222  0.0800 -0.5099 -0.0103
 5324TIP3    H140167   2.273   2.344  18.245  0.2045 -0.5137  0.3865
 5324TIP3    H240168   2.422   2.340  18.217  0.4143 -0.2468  1.4191
 5325TIP3   OH240169   4.520   3.588  17.635 -0.3578 -0.0136  0.1300
 5325TIP3    H140170   4.504   3.671  17.590 -0.7323 -0.9028 -1.4784
 5325TIP3    H240171   4.439   3.539  17.624 -0.5902 -0.1694  2.1219
 5326TIP3   OH240172   0.184   1.731  18.655 -0.2710 -0.5268 -0.1916
 5326TIP3    H140173   0.271   1.705  18.686  0.4557  2.2337  0.2665
 5326TIP3    H240174   0.199   1.769  18.569 -0.7490  1.4342  0.5519
 5327TIP3   OH240175   0.347   6.742  18.324 -0.2132 -0.1548  0.5254
 5327TIP3    H140176   0.363   6.775  18.236  1.7653  0.4750  1.0666
 5327TIP3    H240177   0.339   6.647  18.313  0.4414 -0.1273 -0.2906
 5328TIP3   OH240178   5.184   6.180  18.735 -0.0600 -0.4708  0.2237
 5328TIP3    H140179   5.256   6.116  18.741 -1.4471 -2.0453  0.9840
 5328TIP3    H240180   5.194   6.219  18.649  2.1088 -0.1291  0.5670
 5329TIP3   OH240181   2.484   1.821  18.055  0.5790 -0.2084  0.1839
 5329TIP3    H140182   2.489   1.895  17.994 -1.6287 -0.0536  0.0923
 5329TIP3    H240183   2.403   1.835  18.103  0.2766 -2.3748  0.4284
 5330TIP3   OH240184   1.006   6.490  16.773  0.3065  0.4483  0.0678
 5330TIP3    H140185   1.071   6.466  16.838  0.0454  3.3393  1.6003
 5330TIP3    H240186   0.956   6.410  16.758  2.4341 -1.1400  0.9197
 5331TIP3   OH240187   1.918   4.083  19.155 -0.0447  0.2999 -0.0907
 5331TIP3    H140188   1.995   4.082  19.212  0.3576  0.7668 -0.6161
 5331TIP3    H240189   1.862   4.152  19.192 -1.2370 -1.4252  1.5799
 5332TIP3   OH240190   4.486   2.490  17.406  0.1995 -0.1111 -0.2746
 5332TIP3    H140191   4.580   2.474  17.407  0.1908 -0.2543 -0.9236
 5332TIP3    H240192   4.473   2.550  17.332 -0.3644 -1.1384 -1.0378
 5333TIP3   OH240193   7.579   5.506  19.113 -0.4601 -0.4796 -0.2970
 5333TIP3    H140194   7.613   5.560  19.184  1.5929 -1.9652 -0.0502
 5333TIP3    H240195   7.498   5.550  19.086 -0.2187  1.2611  1.5494
 5334TIP3   OH240196   5.959   4.501  19.472 -0.0925 -0.2418  0.2994
 5334TIP3    H140197   5.901   4.506  19.395 -1.8028  0.6110  1.5730
 5334TIP3    H240198   6.041   4.541  19.442 -1.0381  0.9660 -0.8245
 5335TIP3   OH240199   4.853   1.266  19.245 -0.1705 -0.0092 -0.5193
 5335TIP3    H140200   4.791   1.247  19.316  1.5748 -1.8802  0.5904
 5335TIP3    H240201   4.866   1.361  19.250 -2.2756  0.3236 -0.2601
 5336TIP3   OH240202   5.844   7.594  18.817 -0.6764  0.4380 -0.0962
 5336TIP3    H140203   5.841   7.522  18.880 -1.0089  2.6605  2.5853
 5336TIP3    H240204   5.928   7.636  18.831  0.6935 -0.7862 -3.4585
 5337TIP3   OH240205   4.550   4.476  16.933 -0.6182  0.5760  0.4061
 5337TIP3    H140206   4.509   4.457  16.849  0.7520 -0.1609 -0.1252
 5337TIP3    H240207   4.483   4.525  16.982 -1.2461  1.5042 -1.2993
 5338TIP3   OH240208   2.939   6.400  19.399 -0.3996 -0.2061 -0.3774
 5338TIP3    H140209   2.931   6.306  19.388 -1.5456  0.0089 -1.6286
 5338TIP3    H240210   2.867   6.437  19.348  0.4534  1.3809 -0.5162
 5339TIP3   OH240211   4.711   7.222  18.981  0.2276  0.1255  0.0746
 5339TIP3    H140212   4.653   7.286  18.940 -2.4360 -2.8440 -1.1306
 5339TIP3    H240213   4.706   7.242  19.074  0.9370  2.7000 -0.3363
 5340TIP3   OH240214   0.307   3.998  18.564 -0.1554 -0.0639 -0.2768
 5340TIP3    H140215   0.257   3.919  18.543 -0.4752 -0.3649  1.4531
 5340TIP3    H240216   0.343   4.026  18.480 -1.1101 -1.2990 -1.1519
 5341TIP3   OH240217   2.068   6.587  18.780 -0.2062  0.4191  0.6210
 5341TIP3    H140218   2.018   6.658  18.821  2.5612  1.0099  3.3694
 5341TIP3    H240219   2.004   6.517  18.767 -2.4082  2.3055  0.6216
 5342TIP3   OH240220   5.686   4.683  17.293 -0.2559  0.2951  0.6007
 5342TIP3    H140221   5.710   4.686  17.385 -2.5403 -2.4746  1.4099
 5342TIP3    H240222   5.594   4.710  17.291  0.3394  2.5602 -1.2631
 5343TIP3   OH240223   4.153   5.941  18.537 -0.4275  0.2412  0.1642
 5343TIP3    H140224   4.192   6.005  18.477  0.1341  0.3085  0.5916
 5343TIP3    H240225   4.121   5.994  18.611 -1.2106  0.1705 -0.1125
 5344TIP3   OH240226   4.418   4.425  17.837 -0.1396  0.1449 -0.1556
 5344TIP3    H140227   4.507   4.453  17.814 -0.6555  0.8500 -1.4381
 5344TIP3    H240228   4.415   4.332  17.815  0.4960 -0.0728  0.6302
 5345TIP3   OH240229   6.484   6.073  18.723 -0.5992 -0.5749  0.3648
 5345TIP3    H140230   6.446   6.063  18.811  0.9302 -0.0402  1.1189
 5345TIP3    H240231   6.573   6.105  18.739 -0.9047  1.3842 -1.4228
 5346TIP3   OH240232   4.808   5.506  16.842 -0.1668  0.2919  0.0814
 5346TIP3    H140233   4.725   5.550  16.860  0.4097  1.4757 -0.0830
 5346TIP3    H240234   4.796   5.417  16.875 -1.5558  0.4032 -0.1008
 5347TIP3   OH240235   0.340   3.274  19.236 -0.0888 -0.3689  0.5999
 5347TIP3    H140236   0.248   3.272  19.210  0.4441 -2.3236 -1.4523
 5347TIP3    H240237   0.357   3.366  19.257 -1.9849  0.4219 -1.0317
 5348TIP3   OH240238   0.706   6.255  18.410 -0.2073  0.1629  0.2886
 5348TIP3    H140239   0.744   6.340  18.435 -1.3205  1.4266 -1.9730
 5348TIP3    H240240   0.782   6.198  18.398  0.7137  1.4165 -0.0578
 5349TIP3   OH240241   7.433   0.735  18.909 -0.1450 -0.6075  0.1390
 5349TIP3    H140242   7.359   0.678  18.890  0.1549 -0.7528 -0.6179
 5349TIP3    H240243   7.475   0.750  18.824  1.1121 -1.0989  0.6521
 5350TIP3   OH240244   1.651   2.635  17.771  0.7856 -0.2523 -0.1636
 5350TIP3    H140245   1.619   2.673  17.689 -0.5116  0.3526  0.5936
 5350TIP3    H240246   1.722   2.694  17.798  0.4604  0.2066 -0.2880
 5351TIP3   OH240247   5.289   4.937  17.159  0.0437  0.2647  0.1158
 5351TIP3    H140248   5.347   5.012  17.148 -0.5371  0.5496 -1.3710
 5351TIP3    H240249   5.346   4.866  17.187  0.8832  0.8731 -0.0150
 5352TIP3   OH240250   3.978   6.528  16.579 -0.3736  0.1029 -0.4910
 5352TIP3    H140251   4.016   6.444  16.551  0.8930  0.4368  0.1366
 5352TIP3    H240252   3.963   6.517  16.673  0.8623  0.9438 -0.1757
 5353TIP3   OH240253   7.485   7.319  17.604 -0.1152  1.1906 -0.2890
 5353TIP3    H140254   7.576   7.303  17.579  0.3093  1.5369  0.9545
 5353TIP3    H240255   7.441   7.339  17.521  0.2802 -1.7916 -1.3306
 5354TIP3   OH240256   3.863   2.227  17.023  0.7390 -0.0800  0.4831
 5354TIP3    H140257   3.803   2.293  16.988 -0.2586 -0.1359  2.0064
 5354TIP3    H240258   3.834   2.145  16.983  0.7825  0.1205  0.0325
 5355TIP3   OH240259   5.072   4.887  19.228 -0.1711 -0.1702 -0.3961
 5355TIP3    H140260   5.030   4.805  19.255  1.1084 -0.5454  0.5424
 5355TIP3    H240261   5.004   4.934  19.179 -1.5447 -0.9178  0.7312
 5356TIP3   OH240262   0.364   1.121  17.645  0.1208 -0.1065 -0.5316
 5356TIP3    H140263   0.432   1.061  17.614 -0.5910 -0.0911 -2.2252
 5356TIP3    H240264   0.282   1.081  17.617 -0.4141  1.2389 -0.9769
 5357TIP3   OH240265   1.316   0.603  19.710  0.2096 -0.2374  0.3301
 5357TIP3    H140266   1.293   0.635  19.797  2.5166 -1.4601  1.4981
 5357TIP3    H240267   1.399   0.646  19.690 -0.0587 -0.3294 -1.0782
 5358TIP3   OH240268   1.352   3.858  18.456 -0.8553 -0.3799  0.2273
 5358TIP3    H140269   1.338   3.880  18.548  2.5797 -0.4171  0.8943
 5358TIP3    H240270   1.332   3.765  18.450 -0.8243 -0.4470  1.0311
 5359TIP3   OH240271   0.056   4.020  18.325  0.0326 -0.3459 -0.0414
 5359TIP3    H140272   0.147   4.049  18.321 -0.5213  1.8542  1.3243
 5359TIP3    H240273   0.052   3.963  18.401  0.5203 -1.6749 -0.9713
 5360TIP3   OH240274   3.009   2.732  19.300  0.0949 -0.4478  0.3452
 5360TIP3    H140275   3.065   2.751  19.224 -0.2577 -2.9975 -0.6447
 5360TIP3    H240276   3.068   2.689  19.362  0.0229  0.2161  0.8868
 5361TIP3   OH240277   0.963   0.817  17.470 -0.3414 -0.2194  0.0046
 5361TIP3    H140278   1.028   0.765  17.517  0.5438  0.1219 -0.8137
 5361TIP3    H240279   0.884   0.762  17.470  0.0842 -0.8492  0.5862
 5362TIP3   OH240280   0.094   7.423  19.487  0.2800 -0.6848  0.4515
 5362TIP3    H140281   0.006   7.445  19.517 -0.2676 -2.0039 -0.1251
 5362TIP3    H240282   0.123   7.502  19.440 -0.5739 -0.2272  0.6604
 5363TIP3   OH240283   1.164   5.708  18.988  0.1695  0.1337 -0.1540
 5363TIP3    H140284   1.116   5.769  18.931 -1.6759 -1.3452 -0.2457
 5363TIP3    H240285   1.126   5.721  19.075 -1.4044 -1.9706 -0.4694
 5364TIP3   OH240286   3.266   4.249  17.472 -0.4080  0.0455  0.0577
 5364TIP3    H140287   3.252   4.295  17.389  3.1395  1.3806  0.0196
 5364TIP3    H240288   3.214   4.169  17.465 -1.1547  0.6863 -2.9346
 5365TIP3   OH240289   1.235   1.107  18.731  0.1917  0.4945 -0.2182
 5365TIP3    H140290   1.141   1.126  18.740 -0.2653 -0.5710 -2.1415
 5365TIP3    H240291   1.278   1.167  18.793 -1.8484 -0.5029  2.3717
 5366TIP3   OH240292   3.159   1.383  17.670  0.2693 -0.1030  0.2303
 5366TIP3    H140293   3.100   1.309  17.656  0.6066 -0.0558 -1.7776
 5366TIP3    H240294   3.245   1.342  17.684  0.1723 -0.1089  0.8582
 5367TIP3   OH240295   3.857   5.695  19.322  0.3666  0.3954  0.3907
 5367TIP3    H140296   3.889   5.607  19.341  1.1768  0.9036  1.5815
 5367TIP3    H240297   3.921   5.731  19.260  0.2964  0.2987  0.2639
 5368TIP3   OH240298   5.889   5.956  19.313 -0.3876  0.4948 -0.0586
 5368TIP3    H140299   5.875   5.933  19.221  0.6213 -0.6320  0.0306
 5368TIP3    H240300   5.802   5.955  19.351 -1.0017  2.4254 -1.2816
 5369TIP3   OH240301   4.585   3.434  16.622  0.1788  0.4623 -0.2737
 5369TIP3    H140302   4.663   3.467  16.578  0.1299 -0.9545 -1.5321
 5369TIP3    H240303   4.612   3.420  16.712  1.0630  1.0016 -0.4496
 5370TIP3   OH240304   5.758   2.593  18.230 -0.2910  0.1498 -0.0549
 5370TIP3    H140305   5.777   2.673  18.181 -0.1218  0.4024  0.4176
 5370TIP3    H240306   5.669   2.605  18.262 -0.1033  0.3472  0.3970
 5371TIP3   OH240307   6.218   6.389  17.355  0.3795 -0.1154 -0.0323
 5371TIP3    H140308   6.311   6.381  17.378  0.4665 -0.6802 -0.5385
 5371TIP3    H240309   6.214   6.465  17.298  0.5146 -0.0172  0.0897
 5372TIP3   OH240310   6.779   6.650  17.545  0.2022  0.0392 -0.1075
 5372TIP3    H140311   6.762   6.744  17.531  2.0838  0.3060 -0.9171
 5372TIP3    H240312   6.841   6.647  17.618 -0.8429 -0.6780  0.7708
 5373TIP3   OH240313   2.518   2.048  19.432  0.2612 -0.3596 -0.2542
 5373TIP3    H140314   2.547   2.130  19.391 -1.8028 -0.0560 -1.2281
 5373TIP3    H240315   2.515   2.068  19.525  0.9443  0.2881 -0.3550
 5374TIP3   OH240316   1.405   0.886  17.642 -0.4120  0.1256 -0.3350
 5374TIP3    H140317   1.471   0.849  17.700  0.7641 -0.0388 -1.6976
 5374TIP3    H240318   1.385   0.816  17.580 -1.4273  0.3842 -0.3179
 5375TIP3   OH240319   3.746   2.728  17.879 -0.4314  0.7856  0.0688
 5375TIP3    H140320   3.703   2.777  17.949 -0.9651  0.8577 -0.3017
 5375TIP3    H240321   3.802   2.792  17.836 -0.2596  0.7910  0.2949
 5376TIP3   OH240322   7.590   2.267  19.313 -0.2639  0.0191  0.0879
 5376TIP3    H140323   7.558   2.264  19.404  1.2999  0.3581  0.6751
 5376TIP3    H240324   7.682   2.241  19.319  0.2594  1.4444 -1.2130
 5377TIP3   OH240325   0.324   1.436  18.522 -0.0025 -0.5297 -0.0331
 5377TIP3    H140326   0.242   1.403  18.560  0.3821 -1.5102 -0.0137
 5377TIP3    H240327   0.367   1.482  18.594  0.0524 -1.1347  0.3341
 5378TIP3   OH240328   4.376   0.214  17.176 -0.3449  0.3795 -0.2219
 5378TIP3    H140329   4.454   0.159  17.165 -0.4568  0.5737 -2.4450
 5378TIP3    H240330   4.349   0.200  17.267 -1.8246 -5.2051 -1.1611
 5379TIP3   OH240331   7.217   5.176  19.457 -0.0601 -0.2970  0.0669
 5379TIP3    H140332   7.284   5.219  19.404  0.1342  1.2116  1.4632
 5379TIP3    H240333   7.263   5.148  19.536 -1.0170  0.6977  1.0151
 5380TIP3   OH240334   1.505   6.821  18.533  0.3527 -0.9364 -0.0487
 5380TIP3    H140335   1.593   6.790  18.509  0.3589 -0.5129 -0.5908
 5380TIP3    H240336   1.480   6.766  18.607  0.7859 -1.5431 -0.3388
 5381TIP3   OH240337   6.775   4.821  18.445 -0.5614  0.1829  0.2479
 5381TIP3    H140338   6.818   4.752  18.394  1.6585  0.0100  2.1605
 5381TIP3    H240339   6.790   4.901  18.396  0.8127 -0.0912  0.1787
 5382TIP3   OH240340   5.939   3.407  17.456 -0.0692 -0.4973  0.2297
 5382TIP3    H140341   5.960   3.498  17.475 -1.9992 -0.0554  0.4030
 5382TIP3    H240342   5.880   3.411  17.381 -0.2008 -1.6005  0.2622
 5383TIP3   OH240343   4.835   4.914  18.492  0.1598  0.3822  0.1594
 5383TIP3    H140344   4.823   4.955  18.406 -3.1696 -0.0489  0.2926
 5383TIP3    H240345   4.898   4.971  18.536  2.9259 -0.0111 -2.8380
 5384TIP3   OH240346   2.856   0.258  17.989  0.4550 -0.0229 -0.0106
 5384TIP3    H140347   2.854   0.330  18.052 -1.0192  0.7451 -0.8778
 5384TIP3    H240348   2.873   0.301  17.904  2.7155 -1.0632 -0.1599
 5385TIP3   OH240349   4.473   6.215  19.118 -0.8093  0.5917 -0.3718
 5385TIP3    H140350   4.440   6.304  19.133 -0.3336  0.8450 -0.7896
 5385TIP3    H240351   4.560   6.214  19.158 -0.4363  0.6038 -1.1555
 5386TIP3   OH240352   3.174   0.371  19.716 -0.5081  0.0231  0.4181
 5386TIP3    H140353   3.116   0.313  19.765 -1.9842  0.6647 -0.4794
 5386TIP3    H240354   3.209   0.316  19.646 -0.4269 -0.2439  0.6656
 5387TIP3   OH240355   1.803   7.612  18.661 -0.3218  0.0381 -0.2633
 5387TIP3    H140356   1.828   7.660  18.582  1.0134 -0.1840 -0.0037
 5387TIP3    H240357   1.708   7.624  18.668 -0.3289  0.7680 -1.4248
 5388TIP3   OH240358   6.502   6.619  17.538 -0.3704  0.3459  0.4004
 5388TIP3    H140359   6.591   6.653  17.537 -0.3109  0.1840 -0.4145
 5388TIP3    H240360   6.450   6.687  17.581 -0.1283  1.1559 -0.5581
 5389TIP3   OH240361   2.810   2.015  18.269 -0.2839  0.3093  0.0121
 5389TIP3    H140362   2.830   1.997  18.177  0.1516 -0.2531  0.2100
 5389TIP3    H240363   2.785   2.107  18.271 -1.1241  0.1135 -0.8020
 5390TIP3   OH240364   6.668   4.472  17.787 -0.5252  0.4555 -0.0680
 5390TIP3    H140365   6.715   4.554  17.797 -0.8558  0.5766  0.5676
 5390TIP3    H240366   6.721   4.420  17.727  0.1990  0.7515  0.3077
 5391TIP3   OH240367   6.950   7.657  12.135  0.6274 -0.2145 -0.3866
 5391TIP3    H140368   6.907   7.592  12.191  1.5414  1.3453  2.3010
 5391TIP3    H240369   6.878   7.700  12.088 -0.2096 -1.3739 -0.2019
 5392TIP3   OH240370   0.995   0.192  11.933  0.0928  0.2449 -0.0010
 5392TIP3    H140371   0.954   0.162  12.014  1.4278 -0.9566  0.2798
 5392TIP3    H240372   0.945   0.270  11.908 -1.0208  0.0238  1.3902
 5393TIP3   OH240373   2.153   0.249  11.969  0.7706 -0.0167 -0.0730
 5393TIP3    H140374   2.191   0.254  12.057  1.2374 -1.8337 -0.1180
 5393TIP3    H240375   2.221   0.283  11.911  0.3627  1.4303  0.2656
 5394TIP3   OH240376   4.633   6.489  10.388 -0.2552 -0.1103 -0.3712
 5394TIP3    H140377   4.672   6.478  10.301  0.2581  2.0744 -0.4866
 5394TIP3    H240378   4.691   6.552  10.432 -1.2633 -0.1378  1.0635
 5395TIP3   OH240379   4.018   2.254  11.432  0.0388 -0.0658 -0.3373
 5395TIP3    H140380   3.956   2.308  11.382 -0.2632  0.8744  1.0099
 5395TIP3    H240381   4.002   2.278  11.523  1.6711 -0.5890  0.1059
 5396TIP3   OH240382   4.574   7.460  10.619  0.1288  0.0895  0.6525
 5396TIP3    H140383   4.532   7.474  10.534  2.5573  1.3722 -0.4357
 5396TIP3    H240384   4.503   7.466  10.682 -2.0328 -2.3592 -1.3169
 5397TIP3   OH240385   4.366   7.013  10.685  0.0059 -0.6549 -0.0629
 5397TIP3    H140386   4.379   6.941  10.623 -0.7408 -1.3645  0.5848
 5397TIP3    H240387   4.438   7.006  10.746  0.8024  0.1072 -0.8760
 5398TIP3   OH240388   6.499   1.280  12.124  0.4576  0.0398  0.2797
 5398TIP3    H140389   6.492   1.346  12.055  2.1423  1.7213  1.5933
 5398TIP3    H240390   6.429   1.303  12.185  0.2402 -0.1818  0.1131
 5399TIP3   OH240391   6.189   2.014  12.705 -0.7846  0.2255  0.2765
 5399TIP3    H140392   6.270   2.064  12.716  0.6002 -1.7223 -0.6267
 5399TIP3    H240393   6.173   2.016  12.610 -0.0667 -1.9449  0.0749
 5400TIP3   OH240394   6.576   6.023  11.328  0.2480  0.0041 -0.1168
 5400TIP3    H140395   6.666   6.044  11.354  0.3137 -1.4337  0.9255
 5400TIP3    H240396   6.585   5.975  11.246  0.3601  0.6163 -0.4685
 5401TIP3   OH240397   7.454   5.207  12.093  0.2781 -0.6910  0.5645
 5401TIP3    H140398   7.397   5.228  12.020 -1.8585 -0.9302  2.0659
 5401TIP3    H240399   7.472   5.292  12.135  1.2984 -0.5839 -0.0475
 5402TIP3   OH240400   4.435   0.794  11.115 -0.5322 -0.0260  0.3177
 5402TIP3    H140401   4.478   0.879  11.108 -0.1926 -0.2949 -1.1655
 5402TIP3    H240402   4.419   0.783  11.208  1.5974  0.5926  0.8078
 5403TIP3   OH240403   1.977   3.936  11.027 -0.4661 -0.3520 -0.0244
 5403TIP3    H140404   2.072   3.923  11.022 -0.5159 -1.0090  0.5657
 5403TIP3    H240405   1.964   3.984  11.109 -0.7627 -1.6329  0.7021
 5404TIP3   OH240406   2.174   2.988  10.769  0.4269 -0.1349  0.3204
 5404TIP3    H140407   2.201   2.910  10.720 -0.0130 -0.4084  0.4992
 5404TIP3    H240408   2.129   2.953  10.846 -1.4321  0.2772 -0.5187
 5405TIP3   OH240409   6.315   4.950  12.553  0.0749  0.0003  0.1103
 5405TIP3    H140410   6.231   4.992  12.572 -1.1414 -0.6009 -3.2933
 5405TIP3    H240411   6.376   4.990  12.616 -2.8686 -0.4416  3.5981
 5406TIP3   OH240412   0.356   3.069  10.886  0.3803  0.2185  0.1506
 5406TIP3    H140413   0.348   3.029  10.799 -3.3393  1.1069 -0.1067
 5406TIP3    H240414   0.363   2.995  10.946  4.1866 -0.4066 -0.7846
 5407TIP3   OH240415   1.570   0.527  13.629 -0.4638 -0.3175  0.1095
 5407TIP3    H140416   1.572   0.444  13.582  1.2336 -0.7808  0.8953
 5407TIP3    H240417   1.591   0.593  13.563  0.3019 -0.7737 -0.1171
 5408TIP3   OH240418   2.078   3.233  10.843  0.4551 -0.1639 -0.5527
 5408TIP3    H140419   2.134   3.284  10.783 -0.1251 -0.5372 -1.4310
 5408TIP3    H240420   2.095   3.142  10.819 -0.2959 -0.2920 -0.6236
 5409TIP3   OH240421   0.602   5.305  12.203  0.2132  0.1233  0.3106
 5409TIP3    H140422   0.675   5.274  12.256 -0.0583 -2.6236 -0.7360
 5409TIP3    H240423   0.527   5.252  12.232 -1.1114  2.0156  0.5264
 5410TIP3   OH240424   1.122   6.684  11.326  0.1851 -0.3002 -0.0758
 5410TIP3    H140425   1.190   6.750  11.331 -0.7860  0.6360  2.3683
 5410TIP3    H240426   1.071   6.707  11.249  0.6779  1.0019 -0.0309
 5411TIP3   OH240427   1.949   3.440  12.850 -0.1085  0.2420 -0.2799
 5411TIP3    H140428   1.926   3.477  12.765  0.4522  0.3189 -0.4006
 5411TIP3    H240429   1.865   3.420  12.891 -0.3856  0.4294 -0.7524
 5412TIP3   OH240430   4.687   6.059  11.202 -0.2839  0.2287 -0.2850
 5412TIP3    H140431   4.704   6.150  11.226  0.5043 -0.8285  3.9916
 5412TIP3    H240432   4.605   6.063  11.152 -0.8852  3.2019  0.7233
 5413TIP3   OH240433   4.951   4.076  11.988  0.1646  0.4372  0.6516
 5413TIP3    H140434   4.900   4.111  12.061 -1.6904  0.9328 -0.7802
 5413TIP3    H240435   4.937   4.139  11.917 -0.8500 -1.6354 -1.1251
 5414TIP3   OH240436   3.832   7.030  11.959  1.0390  0.2178 -0.2924
 5414TIP3    H140437   3.906   7.085  11.986  1.6219 -0.2557 -0.8704
 5414TIP3    H240438   3.757   7.089  11.958  1.2328  0.5165  1.1331
 5415TIP3   OH240439   7.317   6.488  10.474 -0.2750 -0.3645 -0.0895
 5415TIP3    H140440   7.257   6.550  10.433 -1.1908 -0.7857  0.5807
 5415TIP3    H240441   7.268   6.406  10.480  0.6674 -0.9750 -0.3070
 5416TIP3   OH240442   1.584   7.396  11.356 -0.0926  0.0497  0.0500
 5416TIP3    H140443   1.494   7.365  11.372 -0.7865  0.9369 -1.8422
 5416TIP3    H240444   1.615   7.341  11.283 -0.0465  1.3886 -0.9738
 5417TIP3   OH240445   4.877   5.078  10.496 -0.0215  0.4120  0.2684
 5417TIP3    H140446   4.797   5.129  10.483  1.0974  2.1414 -0.1132
 5417TIP3    H240447   4.870   5.005  10.435 -0.7854  1.1810 -0.5764
 5418TIP3   OH240448   1.766   3.705  12.656  0.0816 -0.6798 -0.2283
 5418TIP3    H140449   1.683   3.665  12.631  0.3805 -2.3250  1.2301
 5418TIP3    H240450   1.832   3.645  12.622  0.7084  0.5564 -1.2646
 5419TIP3   OH240451   5.065   2.423  11.944 -0.3208 -0.1799 -0.3003
 5419TIP3    H140452   4.972   2.433  11.965 -0.3683 -0.5734 -0.3031
 5419TIP3    H240453   5.067   2.421  11.848 -0.4708 -1.4589 -0.3012
 5420TIP3   OH240454   4.321   2.881  10.979  0.5086  0.0714  0.0038
 5420TIP3    H140455   4.393   2.895  11.041  0.9901  0.5633 -0.6601
 5420TIP3    H240456   4.329   2.952  10.915 -0.1179 -0.2992 -0.5007
 5421TIP3   OH240457   1.610   6.333  12.709  0.1023 -0.1778  0.2284
 5421TIP3    H140458   1.663   6.412  12.706  0.1092 -0.2030 -0.7683
 5421TIP3    H240459   1.560   6.340  12.790 -0.2421  1.0691 -0.0750
 5422TIP3   OH240460   0.119   7.525  12.683 -0.0054  0.5571  0.1765
 5422TIP3    H140461   0.045   7.560  12.633 -0.1909  0.8031  0.6211
 5422TIP3    H240462   0.078   7.481  12.757  0.2987  0.7681  0.4695
 5423TIP3   OH240463   3.930   3.806  10.740 -0.5237 -0.0309 -0.2339
 5423TIP3    H140464   3.973   3.740  10.685 -1.1982 -0.1925 -0.5786
 5423TIP3    H240465   3.845   3.819  10.699 -0.9408  0.0334  0.6267
 5424TIP3   OH240466   7.124   2.336  11.902 -0.0563  0.4967 -0.5845
 5424TIP3    H140467   7.135   2.374  11.815 -1.6792  0.8015 -0.6833
 5424TIP3    H240468   7.100   2.245  11.886  0.2105  0.3948 -0.4260
 5425TIP3   OH240469   2.080   0.619  11.639 -0.3580 -0.2905  0.2012
 5425TIP3    H140470   2.083   0.604  11.545  1.4925 -1.8525  0.4600
 5425TIP3    H240471   2.005   0.678  11.651 -1.5835 -1.2649 -2.0569
 5426TIP3   OH240472   3.984   6.832  12.772  0.1466  0.0670 -0.5230
 5426TIP3    H140473   3.919   6.901  12.784 -0.1408 -0.1098 -1.0024
 5426TIP3    H240474   4.063   6.865  12.815 -0.3009  0.2162  0.1982
 5427TIP3   OH240475   4.471   5.886  10.990  0.4441  0.2166  0.8186
 5427TIP3    H140476   4.393   5.844  11.027  0.0359 -0.7736 -1.0389
 5427TIP3    H240477   4.454   5.980  10.999 -0.6275  0.0116  1.1132
 5428TIP3   OH240478   0.909   3.759  12.557  0.4814  0.2239  0.3409
 5428TIP3    H140479   0.842   3.713  12.609  0.2672  1.3453  1.1173
 5428TIP3    H240480   0.870   3.845  12.540  1.3956  0.5971  0.0815
 5429TIP3   OH240481   0.037   5.329  11.694  0.2061  0.3982 -0.4800
 5429TIP3    H140482   0.088   5.316  11.775  1.1821  0.6481 -1.0399
 5429TIP3    H240483  -0.037   5.383  11.721  0.8726  1.0376  0.1269
 5430TIP3   OH240484   3.172   0.519  10.700  0.1740  0.2445  0.0719
 5430TIP3    H140485   3.152   0.426  10.715  1.1820 -0.1295 -0.7554
 5430TIP3    H240486   3.137   0.564  10.777 -0.9191 -0.7352  0.1683
 5431TIP3   OH240487   5.853   4.065  11.250 -0.2649 -0.2776 -0.0859
 5431TIP3    H140488   5.859   4.161  11.246 -0.9248 -0.2548 -0.7230
 5431TIP3    H240489   5.764   4.046  11.221 -0.1101 -1.0924 -0.0346
 5432TIP3   OH240490   5.910   2.832  10.978  0.2104 -0.4892  0.3539
 5432TIP3    H140491   5.972   2.798  10.914 -0.0198 -1.0373  0.4095
 5432TIP3    H240492   5.960   2.897  11.028  0.1512  0.5594 -0.9064
 5433TIP3   OH240493   2.282   7.291  11.030 -0.1048  0.5166  0.0562
 5433TIP3    H140494   2.241   7.331  11.107 -0.6968  2.2531 -1.1120
 5433TIP3    H240495   2.279   7.359  10.963  1.3170 -0.6110 -1.2159
 5434TIP3   OH240496   4.593   5.873  10.694  0.5425  0.7601 -0.0279
 5434TIP3    H140497   4.603   5.847  10.786  0.0349  0.4969 -0.0425
 5434TIP3    H240498   4.499   5.871  10.679  0.6104  1.0086 -0.4993
 5435TIP3   OH240499   5.509   4.543  11.766  0.3185  0.4795 -0.4207
 5435TIP3    H140500   5.528   4.463  11.814  0.9233 -0.1315 -1.6358
 5435TIP3    H240501   5.502   4.611  11.833  0.6673 -0.4319  0.5493
 5436TIP3   OH240502   5.369   1.035  11.335  0.3827  0.1173  0.7542
 5436TIP3    H140503   5.282   1.061  11.306  0.1716 -1.3877  0.0028
 5436TIP3    H240504   5.366   0.940  11.341  1.8806  0.0632  1.0490
 5437TIP3   OH240505   0.879   6.299  10.824  0.0330  0.3657  0.2075
 5437TIP3    H140506   0.974   6.303  10.834 -0.1239  3.1558  1.7481
 5437TIP3    H240507   0.849   6.246  10.898  0.3159  1.0448  0.8229
 5438TIP3   OH240508   0.525   6.993  12.551  0.5252  0.4495 -0.4152
 5438TIP3    H140509   0.543   7.076  12.596 -0.8060  0.4451  0.1740
 5438TIP3    H240510   0.434   6.974  12.572  1.3189 -2.1513  1.0531
 5439TIP3   OH240511   3.586   3.987  12.342  0.4013  0.2169  0.4433
 5439TIP3    H140512   3.494   3.990  12.318  0.1431 -2.6593  0.7423
 5439TIP3    H240513   3.622   4.071  12.312 -2.1907  1.2306 -0.0253
 5440TIP3   OH240514   1.616   7.113  12.911 -0.2944  1.0230  0.2049
 5440TIP3    H140515   1.678   7.176  12.949 -2.3383  2.6845  0.9809
 5440TIP3    H240516   1.556   7.167  12.859  1.0547 -0.9414 -3.7431
 5441TIP3   OH240517   7.336   6.173  10.953  0.3556  0.1355 -0.0379
 5441TIP3    H140518   7.426   6.148  10.933 -0.0430 -1.1344 -0.3733
 5441TIP3    H240519   7.299   6.095  10.994 -1.0540  0.0692 -1.3694
 5442TIP3   OH240520   5.750   5.490  12.606  0.1818 -0.1642  0.6741
 5442TIP3    H140521   5.777   5.546  12.533 -1.1389 -1.4446 -0.8759
 5442TIP3    H240522   5.762   5.544  12.684  0.7441  1.5840 -0.5693
 5443TIP3   OH240523   3.265   5.465  10.574 -0.2337 -0.3667 -0.0925
 5443TIP3    H140524   3.215   5.420  10.505 -1.5719  0.3822  0.3394
 5443TIP3    H240525   3.198   5.510  10.626  0.8930  0.4939  0.6661
 5444TIP3   OH240526   0.524   1.379  10.897  0.3432 -0.0868 -0.5846
 5444TIP3    H140527   0.571   1.372  10.980  0.0940 -1.0154 -0.5081
 5444TIP3    H240528   0.543   1.297  10.851 -0.0546  0.1357 -1.1664
 5445TIP3   OH240529   2.788   2.151  11.936  0.2161 -0.7814 -0.2333
 5445TIP3    H140530   2.750   2.239  11.938  0.8403 -0.4369 -1.6587
 5445TIP3    H240531   2.873   2.160  11.980  0.4332 -0.5735 -0.6857
 5446TIP3   OH240532   2.028   3.023  12.303  0.0253  0.0737 -0.7872
 5446TIP3    H140533   2.096   3.045  12.367  0.1327  0.7424 -1.1270
 5446TIP3    H240534   1.954   3.079  12.326 -0.2196 -0.2554 -0.7618
 5447TIP3   OH240535   3.018   6.984  10.811 -0.0927 -0.3392  0.5696
 5447TIP3    H140536   3.107   7.016  10.827  0.0542 -0.8608  0.8168
 5447TIP3    H240537   3.028   6.889  10.805 -0.4642 -0.3066 -0.6044
 5448TIP3   OH240538   7.316   6.719  10.958  0.2274  0.3684 -0.5418
 5448TIP3    H140539   7.354   6.677  10.881  0.2727  0.4490 -0.5630
 5448TIP3    H240540   7.391   6.755  11.005  0.1181  1.1184 -0.9303
 5449TIP3   OH240541   5.291   3.970  10.736  0.3687  0.0741 -0.0142
 5449TIP3    H140542   5.307   3.912  10.811 -0.7239  0.5219  0.5707
 5449TIP3    H240543   5.312   3.915  10.660 -1.5721 -1.4507  0.4768
 5450TIP3   OH240544   0.655   2.357  12.095 -0.0026  0.1481  0.5589
 5450TIP3    H140545   0.630   2.431  12.151  1.4804  0.3352  1.0312
 5450TIP3    H240546   0.643   2.390  12.006 -0.9602  0.3632  0.7585
 5451TIP3   OH240547   7.136   0.034  11.688  0.1912  0.0225 -0.4542
 5451TIP3    H140548   7.118   0.018  11.595 -0.2487 -0.7727 -0.2465
 5451TIP3    H240549   7.079  -0.028  11.734  0.5974  0.2274  0.3415
 5452TIP3   OH240550   0.335   4.523  12.247 -0.6469 -0.2945  0.4469
 5452TIP3    H140551   0.245   4.553  12.255 -1.7429 -3.2844  0.6752
 5452TIP3    H240552   0.349   4.515  12.153 -0.7591 -0.1759  0.4196
 5453TIP3   OH240553   3.964   6.529  12.365 -0.0667 -0.8834 -0.0344
 5453TIP3    H140554   3.980   6.581  12.444  0.0001 -0.0064 -0.6065
 5453TIP3    H240555   4.042   6.543  12.310 -0.0779 -1.5429 -0.2285
 5454TIP3   OH240556   0.179   5.318  10.422 -0.0675 -0.1105  0.8604
 5454TIP3    H140557   0.240   5.363  10.481 -0.2999 -0.4050  1.3283
 5454TIP3    H240558   0.194   5.360  10.336 -0.9953  1.5662  1.4744
 5455TIP3   OH240559   5.310   6.061  12.649 -0.1059  0.1665 -0.7127
 5455TIP3    H140560   5.288   6.062  12.742 -1.7587 -3.6776 -0.8958
 5455TIP3    H240561   5.393   6.014  12.644  1.0996  2.2191 -1.1140
 5456TIP3   OH240562   4.316   4.870  12.974  0.5473 -0.1890  0.0355
 5456TIP3    H140563   4.394   4.895  13.022 -0.4176  3.1612  0.1691
 5456TIP3    H240564   4.244   4.886  13.035 -0.3994 -0.2851 -1.0167
 5457TIP3   OH240565   2.743   4.185  12.731 -0.2467  0.0504 -0.2644
 5457TIP3    H140566   2.710   4.267  12.768 -1.1040 -0.7943  0.9445
 5457TIP3    H240567   2.744   4.200  12.637 -0.6505  1.3494 -0.0921
 5458TIP3   OH240568   7.114   3.103  12.105  0.2991 -0.5405  0.3250
 5458TIP3    H140569   7.079   3.014  12.104  2.9619 -1.7109 -0.2201
 5458TIP3    H240570   7.098   3.135  12.193  0.5855 -2.1664  1.0010
 5459TIP3   OH240571   4.524   3.498  11.324 -0.2692  0.0893  0.0975
 5459TIP3    H140572   4.519   3.404  11.345  0.8587 -0.2536 -1.0486
 5459TIP3    H240573   4.551   3.539  11.406 -2.5134 -0.3184  1.1273
 5460TIP3   OH240574   4.961   2.167  12.223 -0.3842 -0.3115  0.3223
 5460TIP3    H140575   4.899   2.232  12.257 -0.1879  0.0152  0.0605
 5460TIP3    H240576   5.047   2.209  12.232 -0.1462 -0.9507  1.1284
 5461TIP3   OH240577   2.563   3.479  11.217  0.4224  0.0129  0.1563
 5461TIP3    H140578   2.483   3.496  11.167  0.2573 -0.1003  0.3824
 5461TIP3    H240579   2.616   3.424  11.159  0.9388  1.2150 -0.5691
 5462TIP3   OH240580   4.289   2.114  11.251 -0.1985 -0.2166  0.0642
 5462TIP3    H140581   4.328   2.161  11.177  2.3495  1.4342  2.2664
 5462TIP3    H240582   4.232   2.179  11.293  0.1827 -0.3768  0.8430
 5463TIP3   OH240583   7.444   4.309  10.550 -0.6502 -0.0035 -0.0321
 5463TIP3    H140584   7.358   4.308  10.591 -1.0741 -0.3739 -0.9001
 5463TIP3    H240585   7.458   4.400  10.524 -0.6849  0.0952  0.2918
 5464TIP3   OH240586   2.103   5.813  11.832 -0.6358 -0.0202  0.0102
 5464TIP3    H140587   2.032   5.871  11.861  0.9091  2.5793 -1.0839
 5464TIP3    H240588   2.085   5.797  11.740 -0.2288 -0.0318 -0.0684
 5465TIP3   OH240589   5.943   3.161  12.246 -0.2504  0.0854 -0.0774
 5465TIP3    H140590   5.953   3.245  12.290 -0.4912  0.3749 -0.5603
 5465TIP3    H240591   5.872   3.175  12.183  0.9216  0.0697 -1.4486
 5466TIP3   OH240592   4.726   2.243  11.340 -0.1717 -0.3168 -0.2801
 5466TIP3    H140593   4.697   2.333  11.348 -2.2837 -0.9402 -0.4436
 5466TIP3    H240594   4.781   2.229  11.417  2.0582  1.7019 -1.3665
 5467TIP3   OH240595   0.250   0.527  11.204 -0.4528 -0.3553 -0.1553
 5467TIP3    H140596   0.246   0.574  11.120  1.4388 -1.6152 -1.0076
 5467TIP3    H240597   0.229   0.437  11.182  1.5176 -1.0059  0.3963
 5468TIP3   OH240598   7.422   5.763  12.691 -0.5477 -0.5154  0.3118
 5468TIP3    H140599   7.478   5.719  12.627 -1.6861 -1.1858 -0.2624
 5468TIP3    H240600   7.481   5.822  12.739  0.6663 -1.3299 -0.1373
 5469TIP3   OH240601   6.340   5.822  10.559 -0.0987  0.0802 -0.1068
 5469TIP3    H140602   6.343   5.730  10.582  1.4325  0.1283 -0.0266
 5469TIP3    H240603   6.278   5.861  10.621 -0.3760 -0.7939  0.1705
 5470TIP3   OH240604   1.330   0.183  11.659  0.0044  0.1186  0.4695
 5470TIP3    H140605   1.405   0.187  11.601 -1.9611  0.3737 -2.2311
 5470TIP3    H240606   1.305   0.274  11.674  0.2902  0.0451  1.4883
 5471TIP3   OH240607   3.442   3.989  10.940 -0.1624  0.1201  0.1706
 5471TIP3    H140608   3.388   4.062  10.908 -0.2434 -0.0162 -0.0113
 5471TIP3    H240609   3.379   3.928  10.978  0.1069  1.2201  2.5185
 5472TIP3   OH240610   6.093   5.529  12.840 -0.4667  0.0514 -0.4875
 5472TIP3    H140611   6.129   5.611  12.873  1.0885 -0.9427  0.4643
 5472TIP3    H240612   5.998   5.543  12.837 -0.4560  1.1372  1.8666
 5473TIP3   OH240613   7.014   2.958  11.001 -0.3532  0.1950 -0.8833
 5473TIP3    H140614   7.064   2.925  11.075 -1.5824 -1.7219 -0.8254
 5473TIP3    H240615   7.061   2.926  10.924  0.6109  1.7130 -0.9724
 5474TIP3   OH240616   1.430   5.239  10.928 -0.6080 -0.0157  0.2682
 5474TIP3    H140617   1.362   5.173  10.919 -0.4648  0.0575 -1.6226
 5474TIP3    H240618   1.497   5.198  10.983 -1.7733 -0.3676  1.4924
 5475TIP3   OH240619   6.586   6.508  11.414 -0.0494  0.1596  0.3690
 5475TIP3    H140620   6.621   6.534  11.329 -1.6938 -0.9919 -0.7442
 5475TIP3    H240621   6.591   6.412  11.413  0.7287  0.1583  1.9761
 5476TIP3   OH240622   0.936   0.532  12.179  0.3503 -0.1052 -0.1984
 5476TIP3    H140623   0.966   0.614  12.140 -1.1993 -0.1940 -1.6836
 5476TIP3    H240624   0.949   0.544  12.273 -0.9011  2.3189 -0.2546
 5477TIP3   OH240625   5.991   1.189  11.489 -0.3285  0.4804 -0.0240
 5477TIP3    H140626   5.895   1.197  11.496 -0.2717  1.2460 -0.0421
 5477TIP3    H240627   6.013   1.120  11.552 -0.7877  1.0161  0.7528
 5478TIP3   OH240628   5.048   7.350  10.563 -0.2553 -0.0991  0.2262
 5478TIP3    H140629   5.021   7.436  10.595  0.0648  0.5172 -1.1117
 5478TIP3    H240630   5.144   7.356  10.558 -0.1948 -0.6997  0.5522
 5479TIP3   OH240631   3.930   7.093  11.679  0.5414  0.2875 -0.5745
 5479TIP3    H140632   3.964   7.024  11.622 -0.4007 -1.4454  0.8555
 5479TIP3    H240633   3.995   7.102  11.748 -0.3841 -0.8431  0.4846
 5480TIP3   OH240634   0.993   6.433  12.063 -0.6080  0.5382 -0.1017
 5480TIP3    H140635   1.041   6.350  12.057 -0.8224  0.3167  1.1726
 5480TIP3    H240636   0.994   6.455  12.156 -3.5942  0.1701  0.0916
 5481TIP3   OH240637   1.938   1.149  12.441  0.5893  0.1466  0.2406
 5481TIP3    H140638   1.957   1.095  12.364  1.1468  0.6022  0.0530
 5481TIP3    H240639   1.874   1.213  12.410 -1.3221 -1.3752  0.8662
 5482TIP3   OH240640   0.914   3.337  12.161  0.4350  0.8579  0.5935
 5482TIP3    H140641   0.903   3.400  12.231 -4.1895  0.7577  0.2458
 5482TIP3    H240642   0.874   3.378  12.084  1.3652 -0.7687 -0.8494
 5483TIP3   OH240643   4.672   5.508  10.777  0.1829 -0.5445  0.2426
 5483TIP3    H140644   4.640   5.451  10.847 -1.3238 -0.7659 -0.5851
 5483TIP3    H240645   4.656   5.597  10.809 -1.9163 -0.6428 -0.3760
 5484TIP3   OH240646   1.794   3.483  12.369  0.0769  0.3478 -0.4583
 5484TIP3    H140647   1.755   3.434  12.296  0.4851 -0.1185 -0.3650
 5484TIP3    H240648   1.738   3.560  12.378 -0.3294  0.1085 -0.8768
 5485TIP3   OH240649   4.896   7.341  12.418 -0.2536 -0.4100 -0.2071
 5485TIP3    H140650   4.935   7.280  12.355 -0.5056 -0.2517 -0.5103
 5485TIP3    H240651   4.957   7.415  12.421  0.4982 -1.0385  0.7868
 5486TIP3   OH240652   4.345   2.706  11.648 -0.1399 -0.0975 -0.3161
 5486TIP3    H140653   4.379   2.736  11.564 -1.2170 -2.5405 -1.7362
 5486TIP3    H240654   4.306   2.784  11.688 -1.1868  0.7936 -2.8998
 5487TIP3   OH240655   3.476   1.865  12.036 -0.3273  0.0098 -0.0098
 5487TIP3    H140656   3.559   1.912  12.047 -0.5416  0.3234  0.2829
 5487TIP3    H240657   3.463   1.861  11.941  0.5606 -0.9999 -0.1088
 5488TIP3   OH240658   0.683   5.724  10.409  0.7481  0.4568 -0.2266
 5488TIP3    H140659   0.677   5.786  10.482 -0.5369 -0.6457  0.6438
 5488TIP3    H240660   0.774   5.695  10.409  0.7988  0.5891  0.8336
 5489TIP3   OH240661   3.795   2.288  12.656 -0.1809 -0.0725  0.2251
 5489TIP3    H140662   3.815   2.205  12.612  0.0276  0.0581  0.0663
 5489TIP3    H240663   3.714   2.319  12.614 -0.8769 -0.7366  1.0568
 5490TIP3   OH240664   2.647   2.244  10.874 -0.0909 -0.0367  0.4449
 5490TIP3    H140665   2.596   2.165  10.892 -0.4998 -0.4063 -2.0467
 5490TIP3    H240666   2.732   2.212  10.845 -0.7716  0.2875 -2.1608
 5491TIP3   OH240667   0.985   4.075  11.702 -0.0931 -0.1756 -0.3491
 5491TIP3    H140668   0.894   4.103  11.693 -0.4549 -0.3369  2.1337
 5491TIP3    H240669   1.024   4.139  11.762  0.9720 -1.0367 -0.0857
 5492TIP3   OH240670   2.565   6.795  11.041  0.3792 -0.0047 -0.1233
 5492TIP3    H140671   2.545   6.749  10.959 -0.0037 -0.9630  0.4893
 5492TIP3    H240672   2.539   6.885  11.025  1.8095  0.2062 -1.6187
 5493TIP3   OH240673   0.030   5.101  12.077  0.1105  0.0056 -0.0978
 5493TIP3    H140674   0.044   5.172  12.014 -0.1126  0.1026 -0.0401
 5493TIP3    H240675  -0.053   5.124  12.120  0.2872 -0.0354  0.2615
 5494TIP3   OH240676   1.975   6.967  11.981  0.5487  0.0382  0.5181
 5494TIP3    H140677   2.053   7.015  12.008  1.1592 -0.4835 -0.2477
 5494TIP3    H240678   2.006   6.910  11.910 -0.1423 -1.4616  1.3738
 5495TIP3   OH240679   3.790   2.640  10.744 -0.3050  0.4269  0.1701
 5495TIP3    H140680   3.859   2.612  10.804  1.1178 -0.1987 -1.6621
 5495TIP3    H240681   3.799   2.735  10.738  2.8687  0.1680 -2.6636
 5496TIP3   OH240682   6.037   1.502  11.662  0.0098 -0.2926 -0.5313
 5496TIP3    H140683   6.098   1.571  11.635 -0.4667  1.0696  1.5860
 5496TIP3    H240684   6.030   1.445  11.585  3.9311 -0.5787 -0.8787
 5497TIP3   OH240685   0.046   1.159  11.977  0.6866 -0.1816 -0.2747
 5497TIP3    H140686   0.110   1.210  11.927  0.8769  0.2921  0.4301
 5497TIP3    H240687   0.092   1.137  12.058  0.0347 -0.0378  0.1422
 5498TIP3   OH240688   2.178   1.485  11.891 -0.5965  0.2894 -0.9111
 5498TIP3    H140689   2.222   1.439  11.819  1.5296 -0.3648  0.7006
 5498TIP3    H240690   2.127   1.416  11.934  2.0156 -0.5959  1.0615
 5499TIP3   OH240691   5.050   7.680  11.068 -0.1940  0.5428  0.0770
 5499TIP3    H140692   5.093   7.682  11.154 -1.0083 -2.0467  0.6701
 5499TIP3    H240693   5.025   7.771  11.051 -0.3089  1.1145  2.7763
 5500TIP3   OH240694   1.066   4.261  11.872 -0.1235  0.0214 -0.3739
 5500TIP3    H140695   1.100   4.348  11.893 -2.5604  1.2127 -1.1011
 5500TIP3    H240696   1.131   4.201  11.910  2.6879  2.0850 -1.5475
 5501TIP3   OH240697   0.134   1.735  11.777 -0.2925 -0.4620  0.1135
 5501TIP3    H140698   0.038   1.735  11.785 -0.2728 -0.3025  0.3534
 5501TIP3    H240699   0.152   1.668  11.711 -0.4996 -1.2404  0.8374
 5502TIP3   OH240700   3.583   4.387  12.662  0.5139 -0.0317  0.5298
 5502TIP3    H140701   3.672   4.372  12.695  0.9848 -0.8484 -1.0129
 5502TIP3    H240702   3.527   4.372  12.738  1.6227 -0.6803  1.2475
 5503TIP3   OH240703   1.182   7.178  12.039  0.2394  0.0700 -0.6575
 5503TIP3    H140704   1.183   7.162  12.133 -2.4743 -2.1605 -0.8831
 5503TIP3    H240705   1.253   7.123  12.005 -0.3893 -1.1229 -0.1051
 5504TIP3   OH240706   0.396   0.022  12.156  0.5404 -0.5223 -0.7150
 5504TIP3    H140707   0.488   0.035  12.134  0.6400 -1.1203 -0.6567
 5504TIP3    H240708   0.348   0.041  12.075  0.6984 -0.0687 -0.7061
 5505TIP3   OH240709   4.101   3.949  11.293  0.6773 -0.1422 -0.1063
 5505TIP3    H140710   4.157   4.026  11.292 -0.5405  0.7840 -0.2958
 5505TIP3    H240711   4.094   3.924  11.385  1.8210 -0.6094 -0.1343
 5506TIP3   OH240712   6.192   7.404  12.896  0.1705  0.3638 -0.0445
 5506TIP3    H140713   6.236   7.329  12.937 -0.0222 -1.3221 -2.6635
 5506TIP3    H240714   6.259   7.442  12.839 -0.5553  0.3714 -0.9123
 5507TIP3   OH240715   4.803   2.888  11.129  0.2550 -0.2617  0.5938
 5507TIP3    H140716   4.741   2.841  11.073 -2.1306  1.2206  1.8163
 5507TIP3    H240717   4.855   2.819  11.170 -0.3166 -1.5533 -0.7581
 5508TIP3   OH240718   0.439   0.778  12.029 -0.1782 -0.1145 -0.2293
 5508TIP3    H140719   0.503   0.748  11.964 -0.3847  0.2975 -0.6290
 5508TIP3    H240720   0.492   0.802  12.105 -0.0021 -1.4766  0.1141
 5509TIP3   OH240721   1.366   3.170  12.054  0.2326 -0.5886  0.7807
 5509TIP3    H140722   1.461   3.174  12.039  0.2345 -0.5156  0.8109
 5509TIP3    H240723   1.328   3.200  11.971  0.2218 -1.3527  0.5013
 5510TIP3   OH240724   2.582   4.610  13.304  0.2435  0.1140 -0.4342
 5510TIP3    H140725   2.638   4.664  13.248  0.8122 -0.5347 -0.5057
 5510TIP3    H240726   2.520   4.569  13.243  0.8479 -0.5740 -0.6111
 5511TIP3   OH240727   3.003   4.902  11.598 -0.0925 -0.1114  0.2403
 5511TIP3    H140728   3.088   4.862  11.582 -0.4932 -0.2916 -1.6466
 5511TIP3    H240729   3.009   4.936  11.687  2.2845  0.7408 -0.1822
 5512TIP3   OH240730   2.090   6.523  12.984 -0.0389 -0.5245  0.6502
 5512TIP3    H140731   2.034   6.516  13.061 -1.3893  1.5548 -0.0404
 5512TIP3    H240732   2.083   6.615  12.958  1.9387 -0.7219 -0.8166
 5513TIP3   OH240733   2.183   3.987  11.459 -0.3134  0.3778 -0.2872
 5513TIP3    H140734   2.162   3.898  11.430 -1.2088  0.8989 -1.2921
 5513TIP3    H240735   2.183   3.981  11.555  0.9927 -0.9967 -0.3324
 5514TIP3   OH240736   4.330   6.567  13.118  0.2383 -0.0437 -0.5903
 5514TIP3    H140737   4.245   6.576  13.162 -0.1131 -0.0276 -1.2483
 5514TIP3    H240738   4.393   6.607  13.178  0.1639 -2.2414  1.0393
 5515TIP3   OH240739   5.741   7.592  11.852  0.1693  0.5913  0.0127
 5515TIP3    H140740   5.749   7.546  11.769 -1.3351 -0.1748  0.2597
 5515TIP3    H240741   5.728   7.523  11.917 -4.0013  1.2607  0.1774
 5516TIP3   OH240742   2.859   0.353  11.074 -0.3323  0.2018  0.3612
 5516TIP3    H140743   2.794   0.361  11.004  1.3484  1.0970 -1.1997
 5516TIP3    H240744   2.920   0.286  11.041 -0.4058 -0.5922  1.7652
 5517TIP3   OH240745   6.850   3.941  18.564 -0.6617  0.3068 -0.2202
 5517TIP3    H140746   6.884   4.008  18.623  0.7769 -0.6581  0.1176
 5517TIP3    H240747   6.783   3.895  18.615  0.0791 -0.0709  0.4290
 5518TIP3   OH240748   3.474   0.890  12.496 -0.0581 -0.0460 -0.5723
 5518TIP3    H140749   3.487   0.883  12.591  1.5784  1.5321 -0.6063
 5518TIP3    H240750   3.407   0.957  12.486 -0.3924 -0.3723 -0.5376
 5519TIP3   OH240751   3.645   4.109  12.799 -0.1874 -0.2638  0.2930
 5519TIP3    H140752   3.631   4.055  12.877 -1.5394 -0.2540  0.0811
 5519TIP3    H240753   3.564   4.101  12.750  0.5049  0.0434 -0.9402
 5520TIP3   OH240754   3.192   2.423  12.189  0.1824 -0.0722 -0.0017
 5520TIP3    H140755   3.236   2.456  12.110 -0.0986 -0.4727 -0.3288
 5520TIP3    H240756   3.239   2.465  12.261  1.1934 -0.6037 -0.3349
 5521TIP3   OH240757   5.597   6.198  11.370 -0.1499  0.1259 -0.9778
 5521TIP3    H140758   5.538   6.167  11.438  0.3217  1.6507  0.1739
 5521TIP3    H240759   5.674   6.142  11.378 -1.1150 -1.4170 -2.0308
 5522TIP3   OH240760   2.951   0.124  11.311  0.3892 -0.0522  0.2200
 5522TIP3    H140761   2.958   0.042  11.360  1.2532 -0.9388 -1.3353
 5522TIP3    H240762   2.898   0.181  11.368  0.8659 -1.2202  1.9120
 5523TIP3   OH240763   5.157   5.234  13.097 -0.0795 -0.1451 -0.4832
 5523TIP3    H140764   5.185   5.146  13.073 -0.1766  0.3312 -2.6000
 5523TIP3    H240765   5.074   5.246  13.050  0.7585  1.6333 -1.5852
 5524TIP3   OH240766   1.521   2.966  11.304 -0.0049  0.0348  0.0549
 5524TIP3    H140767   1.578   2.909  11.253  0.8245  1.9966 -1.3783
 5524TIP3    H240768   1.565   2.976  11.388  1.9321  1.5450 -1.0387
 5525TIP3   OH240769   5.654   5.168  12.515 -0.7912 -0.1295  0.6985
 5525TIP3    H140770   5.677   5.216  12.436 -1.0019 -0.3344  0.5122
 5525TIP3    H240771   5.739   5.148  12.556 -0.5504 -1.6144 -0.4183
 5526TIP3   OH240772   6.260   0.364  12.969 -0.7332 -0.5079 -0.1933
 5526TIP3    H140773   6.209   0.355  13.050 -0.3251  1.1705  0.2817
 5526TIP3    H240774   6.228   0.445  12.930 -0.5987 -1.0635 -1.5097
 5527TIP3   OH240775   2.270   3.164  12.070 -0.7318 -0.6612  0.3298
 5527TIP3    H140776   2.287   3.230  12.136 -0.5871 -1.3714  1.0128
 5527TIP3    H240777   2.323   3.191  11.995 -1.0681  0.2644  0.4113
 5528TIP3   OH240778   0.421   6.785  11.030 -0.3722 -0.8711 -0.3098
 5528TIP3    H140779   0.514   6.770  11.045 -0.4342 -1.6172 -0.6300
 5528TIP3    H240780   0.381   6.698  11.039 -0.9301 -0.6866 -0.9427
 5529TIP3   OH240781   0.573   0.446  18.068  0.1285  0.1767  0.6018
 5529TIP3    H140782   0.581   0.357  18.033 -1.3559 -0.2983  1.3885
 5529TIP3    H240783   0.544   0.434  18.158  4.8668  1.3187  2.5726
 5530TIP3   OH240784   5.198   5.841  12.176  0.1565  0.0917 -0.3570
 5530TIP3    H140785   5.290   5.819  12.194  0.0986  1.4404  2.0395
 5530TIP3    H240786   5.151   5.805  12.252 -0.8330  2.1981  0.0885
 5531TIP3   OH240787   5.058   7.062  11.323 -0.6424 -0.2479 -0.2634
 5531TIP3    H140788   4.979   7.115  11.316 -0.0254  0.8227  0.4891
 5531TIP3    H240789   5.075   7.032  11.234 -0.4599  1.6725 -0.9247
 5532TIP3   OH240790   6.173   0.648  13.056  0.4292 -0.1311 -0.0301
 5532TIP3    H140791   6.098   0.667  12.999  0.6382  1.4928  0.2038
 5532TIP3    H240792   6.236   0.717  13.037  1.1853 -0.5243  0.9898
 5533TIP3   OH240793   4.169   0.463  10.531 -0.5734  0.5377  0.6125
 5533TIP3    H140794   4.260   0.435  10.528 -0.4893  0.7076  1.4623
 5533TIP3    H240795   4.166   0.543  10.478 -0.5937 -0.4114 -0.8851
 5534TIP3   OH240796   2.123   4.472  12.327  0.5692  0.0818  0.0355
 5534TIP3    H140797   2.033   4.503  12.331  0.6600  0.2729  0.8857
 5534TIP3    H240798   2.126   4.400  12.389  0.9177 -0.1591 -0.2582
 5535TIP3   OH240799   2.800   0.469  12.224 -0.3049 -0.1111 -0.3808
 5535TIP3    H140800   2.837   0.410  12.289 -0.9805  0.2341  0.3275
 5535TIP3    H240801   2.858   0.546  12.226 -0.0798 -0.2756 -0.4981
 5536TIP3   OH240802   2.954   6.981  12.040  0.1781  0.0242  0.2200
 5536TIP3    H140803   2.967   6.945  11.952  0.5938  2.1464 -0.6546
 5536TIP3    H240804   3.029   6.947  12.090  1.7443  1.2663 -1.1352
 5537TIP3   OH240805   5.565   1.350  12.277  0.1348  0.2002 -0.2954
 5537TIP3    H140806   5.593   1.351  12.369 -0.2530  1.9405 -0.1787
 5537TIP3    H240807   5.488   1.293  12.277  0.9885 -1.0123  0.1661
 5538TIP3   OH240808   5.158   2.433  12.440 -0.6031 -0.1955  0.2744
 5538TIP3    H140809   5.173   2.412  12.348  0.4831  0.7648  0.2154
 5538TIP3    H240810   5.236   2.482  12.468 -1.5013  0.7244  1.3222
 5539TIP3   OH240811   7.666   0.770  10.853 -0.1091  0.2862 -0.5183
 5539TIP3    H140812   7.605   0.843  10.840 -1.8495 -0.9587  0.2638
 5539TIP3    H240813   7.702   0.786  10.941 -0.5577  0.1691 -0.3084
 5540TIP3   OH240814   7.181   1.519  12.855  0.1273 -0.1187 -0.1871
 5540TIP3    H140815   7.175   1.425  12.840 -1.0823 -0.1676  0.5166
 5540TIP3    H240816   7.262   1.545  12.811  0.7376 -1.5622  0.0287
 5541TIP3   OH240817   3.138   0.141  11.911  0.1588 -0.5591  0.0113
 5541TIP3    H140818   3.114   0.191  11.832  0.5652  1.0020  0.8318
 5541TIP3    H240819   3.232   0.152  11.918 -0.1716  1.7875  2.2363
 5542TIP3   OH240820   2.600   3.681  12.283  0.0152  0.3123 -1.1789
 5542TIP3    H140821   2.560   3.639  12.207 -0.0247  1.2081 -1.6612
 5542TIP3    H240822   2.655   3.612  12.321 -2.1767 -1.0542 -0.3060
 5543TIP3   OH240823   2.347   5.363  10.940  0.0163  0.1937 -0.0493
 5543TIP3    H140824   2.304   5.438  10.982  0.0849 -0.3114  0.9443
 5543TIP3    H240825   2.402   5.402  10.872  0.8694  1.1457  1.1439
 5544TIP3   OH240826   4.479   0.855  11.938  0.3090  0.0957  0.1450
 5544TIP3    H140827   4.446   0.816  11.857 -0.7248  0.1773  0.5074
 5544TIP3    H240828   4.440   0.801  12.008  1.4409 -0.1711  0.5921
 5545TIP3   OH240829   4.180   7.384  11.341 -0.9252 -0.5328  0.1330
 5545TIP3    H140830   4.169   7.376  11.247  2.8991  0.1189 -0.5401
 5545TIP3    H240831   4.153   7.474  11.361 -0.2612 -0.1406 -0.6680
 5546TIP3   OH240832   4.363   3.220  10.426  0.1547 -0.2091  0.1078
 5546TIP3    H140833   4.452   3.187  10.415  0.3542  0.6079 -0.8597
 5546TIP3    H240834   4.346   3.271  10.347 -1.3985 -0.8346 -0.0041
 5547TIP3   OH240835   3.446   6.468  11.130 -0.3648 -0.0498 -0.1007
 5547TIP3    H140836   3.472   6.556  11.103  1.0087 -0.3922  0.0131
 5547TIP3    H240837   3.525   6.415  11.117 -0.5317 -0.8249  1.8021
 5548TIP3   OH240838   4.605   1.626  11.276 -0.3873  0.1447  0.0293
 5548TIP3    H140839   4.634   1.637  11.367 -2.2897 -0.4065  0.7403
 5548TIP3    H240840   4.588   1.715  11.245  0.6598  0.3701  0.0404
 5549TIP3   OH240841   4.677   4.573  12.818 -0.6143  0.1894  0.3470
 5549TIP3    H140842   4.654   4.547  12.907 -0.2491 -2.6035 -0.2979
 5549TIP3    H240843   4.606   4.539  12.764 -0.2677  0.8721 -0.5697
 5550TIP3   OH240844   0.853   6.575  11.183  0.1405  0.8374 -0.0106
 5550TIP3    H140845   0.920   6.623  11.134 -0.9115  1.3305 -1.0273
 5550TIP3    H240846   0.849   6.489  11.141  1.7027 -0.0463  1.5177
 5551TIP3   OH240847   1.075   4.159  11.031 -0.4160 -0.1119 -0.2492
 5551TIP3    H140848   1.163   4.124  11.042 -0.5450 -0.2207  0.5046
 5551TIP3    H240849   1.023   4.084  11.001 -0.4955 -0.3447  0.4540
 5552TIP3   OH240850   5.823   4.063  10.954  0.2618 -0.2192  0.3147
 5552TIP3    H140851   5.820   4.083  10.860 -2.2563 -1.4932  0.0291
 5552TIP3    H240852   5.793   4.143  10.997  0.2512 -0.0239 -0.0554
 5553TIP3   OH240853   4.455   1.302  12.299  0.3487  0.2602 -0.1953
 5553TIP3    H140854   4.370   1.305  12.256  0.1794 -0.9449  0.0287
 5553TIP3    H240855   4.518   1.308  12.227  0.0824  0.6070 -0.4063
 5554TIP3   OH240856   6.297   5.023  11.635 -0.1592  0.4297  0.5581
 5554TIP3    H140857   6.273   5.024  11.728 -3.8933 -2.7861 -0.1035
 5554TIP3    H240858   6.313   4.931  11.616  1.0913  1.0897 -1.9299
 5555TIP3   OH240859   2.276   3.699  11.925  0.2394  0.0947  0.1548
 5555TIP3    H140860   2.299   3.782  11.966  0.8435  0.0065 -0.0061
 5555TIP3    H240861   2.181   3.706  11.910  0.1098  0.3478  1.0375
 5556TIP3   OH240862   2.175   5.084  11.523  0.2451  0.1007 -0.0132
 5556TIP3    H140863   2.264   5.056  11.542 -0.1699 -0.8123  0.6921
 5556TIP3    H240864   2.134   5.009  11.480 -0.3083  0.3386  0.0812
 5557TIP3   OH240865   3.198   6.197  10.768 -0.9889  0.2671  0.9039
 5557TIP3    H140866   3.276   6.183  10.821 -0.4860  1.1233  0.4172
 5557TIP3    H240867   3.173   6.288  10.787 -0.5633  0.7251 -0.5991
 5558TIP3   OH240868   4.322   1.592  11.355 -0.5761 -0.0352  0.1269
 5558TIP3    H140869   4.408   1.576  11.317 -0.4171 -0.8430  0.7915
 5558TIP3    H240870   4.338   1.604  11.448 -1.1801 -0.2484  0.2676
 5559TIP3   OH240871   0.253   2.394  12.642 -0.3753  0.8705  0.0961
 5559TIP3    H140872   0.181   2.380  12.581  0.2624  1.3556 -0.7906
 5559TIP3    H240873   0.275   2.486  12.633  1.1149  0.4812 -0.5164
 5560TIP3   OH240874   3.162   7.531  11.204 -0.5885 -0.3368 -0.3887
 5560TIP3    H140875   3.247   7.535  11.248 -0.7785 -0.3170 -0.0235
 5560TIP3    H240876   3.183   7.546  11.112 -0.1844 -0.4185 -0.3149
 5561TIP3   OH240877   3.866   5.624  12.117  0.2201 -0.4995 -0.6782
 5561TIP3    H140878   3.882   5.666  12.033 -0.4013  0.3724 -0.3748
 5561TIP3    H240879   3.787   5.667  12.151  0.2999 -1.0311  0.2165
 5562TIP3   OH240880   7.639   2.785  11.142 -0.4546 -0.4501  0.4299
 5562TIP3    H140881   7.680   2.728  11.207 -2.2955 -0.0551  2.0357
 5562TIP3    H240882   7.679   2.870  11.155 -0.0175 -0.6232  0.2444
 5563TIP3   OH240883   4.756   6.303  11.281  0.2914 -0.4117 -0.2611
 5563TIP3    H140884   4.756   6.392  11.317  0.3220 -0.5749  0.1382
 5563TIP3    H240885   4.814   6.254  11.338 -0.3626 -0.8890  0.0115
 5564TIP3   OH240886   1.421   7.532  11.964  0.0160  0.1427 -0.0877
 5564TIP3    H140887   1.510   7.557  11.991  0.2233 -0.5915 -0.0654
 5564TIP3    H240888   1.372   7.528  12.046  0.7471 -2.4922  0.3014
 5565TIP3   OH240889   1.628   2.368  10.845 -0.7097 -0.1600 -0.1857
 5565TIP3    H140890   1.651   2.373  10.938 -0.0908 -0.7204 -0.2988
 5565TIP3    H240891   1.536   2.342  10.844 -1.0070  0.8146  0.2725
 5566TIP3   OH240892   5.844   2.822  11.781 -0.5894  0.5571  0.3368
 5566TIP3    H140893   5.872   2.791  11.867 -0.1048 -1.7984 -0.6131
 5566TIP3    H240894   5.761   2.777  11.765  0.2682 -0.5450 -1.2071
 5567TIP3   OH240895   1.011   4.096  12.490 -0.4129 -0.5653 -0.4876
 5567TIP3    H140896   1.057   4.099  12.574  2.3130 -2.3675 -1.7458
 5567TIP3    H240897   0.940   4.033  12.503 -0.2283 -0.5694  0.5386
 5568TIP3   OH240898   7.230   6.411  11.104 -0.1306  0.4566  0.0994
 5568TIP3    H140899   7.247   6.333  11.051 -0.7300 -0.7670  1.6355
 5568TIP3    H240900   7.134   6.415  11.110 -0.1011  1.3240  0.0182
 5569TIP3   OH240901   4.311   7.139  12.613  0.1294  0.0165 -0.2858
 5569TIP3    H140902   4.371   7.154  12.686 -0.4705  0.0077  0.2285
 5569TIP3    H240903   4.267   7.223  12.601 -0.7621 -0.3490  0.2950
 5570TIP3   OH240904   6.852   2.587  11.150 -0.5318 -0.3857  0.3192
 5570TIP3    H140905   6.786   2.585  11.081  1.4549  0.5542 -1.7125
 5570TIP3    H240906   6.802   2.605  11.230 -2.6826  0.7481 -1.1860
 5571TIP3   OH240907   6.573   1.861  11.930  0.0104  0.1073  0.3095
 5571TIP3    H140908   6.531   1.863  12.015 -0.3611  0.1336  0.1287
 5571TIP3    H240909   6.507   1.825  11.871  0.7493 -1.2924  0.2934
 5572TIP3   OH240910   0.430   3.787  10.678 -0.3699  0.3023  0.0620
 5572TIP3    H140911   0.335   3.801  10.673 -0.2711  0.8128 -0.7634
 5572TIP3    H240912   0.441   3.692  10.677 -0.8729  0.2439 -0.0163
 5573TIP3   OH240913   6.980   1.482  10.612  0.4489  0.2460 -0.3494
 5573TIP3    H140914   6.980   1.388  10.597  0.1307 -0.0748  1.4641
 5573TIP3    H240915   7.059   1.498  10.664 -0.5711  0.6437  1.1211
 5574TIP3   OH240916   4.039   6.058  11.774  0.4831  0.0419 -0.3610
 5574TIP3    H140917   4.044   6.145  11.814 -1.0322 -0.9001  2.1077
 5574TIP3    H240918   3.966   6.064  11.712  0.4293  0.5492 -0.2533
 5575TIP3   OH240919   4.162   1.829  11.856 -0.2435 -0.0644  0.2046
 5575TIP3    H140920   4.233   1.880  11.894 -0.4334  0.2475  0.1434
 5575TIP3    H240921   4.090   1.892  11.845 -0.6097 -0.4251  0.4894
 5576TIP3   OH240922   2.529   7.512  12.760 -0.1197 -0.1367  0.1822
 5576TIP3    H140923   2.610   7.462  12.767  0.2142  0.3385 -0.2395
 5576TIP3    H240924   2.496   7.492  12.673 -0.1988  0.0534  0.1675
 5577TIP3   OH240925   1.072   5.828  11.196  0.3432 -0.0320  0.0720
 5577TIP3    H140926   0.985   5.796  11.220  0.1290 -0.4153 -1.1664
 5577TIP3    H240927   1.056   5.909  11.148  0.8218  1.3303  2.0655
 5578TIP3   OH240928   0.972   4.693  11.005  0.0696 -0.2121 -0.5049
 5578TIP3    H140929   0.977   4.688  11.100 -0.3062  1.3720 -0.3812
 5578TIP3    H240930   0.970   4.601  10.977  0.8343 -0.7121  0.9550
 5579TIP3   OH240931   3.549   0.670  10.982 -0.2487  0.4602 -0.4459
 5579TIP3    H140932   3.535   0.722  10.903  0.1059  0.0958 -0.7531
 5579TIP3    H240933   3.546   0.579  10.952  1.3608  0.3299 -0.3073
 5580TIP3   OH240934   3.621   3.212  11.587 -0.5175  0.1510 -0.2842
 5580TIP3    H140935   3.681   3.266  11.536 -0.3363  0.6856  0.4798
 5580TIP3    H240936   3.547   3.196  11.528 -0.3004  0.7233 -0.7214
 5581TIP3   OH240937   3.872   6.475  11.406 -0.3285 -0.6630 -0.2224
 5581TIP3    H140938   3.864   6.472  11.502  1.9693 -0.4314  0.0202
 5581TIP3    H240939   3.889   6.567  11.386  1.5951 -1.0474 -0.5692
 5582TIP3   OH240940   6.320   6.784  11.003  0.5522 -0.2378 -0.5048
 5582TIP3    H140941   6.401   6.827  10.975 -0.3539  2.5785  0.8491
 5582TIP3    H240942   6.251   6.826  10.951 -0.3662 -0.1481  0.7438
 5583TIP3   OH240943   6.137   3.115  11.405  0.5207  0.2243  0.1664
 5583TIP3    H140944   6.062   3.065  11.374 -0.1408  1.6903 -0.7237
 5583TIP3    H240945   6.204   3.103  11.337  0.8642 -0.5503  0.6347
 5584TIP3   OH240946   0.283   2.459  12.184  0.1466 -1.4469  0.0271
 5584TIP3    H140947   0.289   2.400  12.259 -0.5760 -1.7087 -0.1192
 5584TIP3    H240948   0.257   2.402  12.111 -0.1707 -1.0097 -0.1993
 5585TIP3   OH240949   0.417   5.113  11.353  0.3598 -0.4686  0.0172
 5585TIP3    H140950   0.430   5.204  11.379  0.3088  0.4467 -2.8391
 5585TIP3    H240951   0.498   5.068  11.380 -0.0879  0.0779  2.5109
 5586TIP3   OH240952   7.107   7.298  11.706 -0.3555 -0.1779  0.0324
 5586TIP3    H140953   7.127   7.301  11.612 -1.0612  1.7457 -0.0986
 5586TIP3    H240954   7.072   7.210  11.719 -1.2989 -0.1307 -1.7632
 5587TIP3   OH240955   4.590   7.039  12.186 -0.3114  0.2623  0.1216
 5587TIP3    H140956   4.511   6.989  12.204  0.7234 -0.9021  1.6419
 5587TIP3    H240957   4.619   7.071  12.271  1.2177  0.1071 -0.3065
 5588TIP3   OH240958   5.422   0.358  10.972  0.0886 -0.3178  0.2489
 5588TIP3    H140959   5.362   0.387  10.903  0.0261  1.0215  0.8443
 5588TIP3    H240960   5.402   0.414  11.047 -1.5610 -3.3035  2.2473
 5589TIP3   OH240961   0.059   2.414  11.735  0.2529  0.1430  0.3082
 5589TIP3    H140962   0.019   2.351  11.675  0.2182  1.4724 -1.1265
 5589TIP3    H240963   0.108   2.360  11.797 -1.6787 -1.3955  0.5817
 5590TIP3   OH240964   4.379   4.235  12.043  0.0474  0.0723 -0.0148
 5590TIP3    H140965   4.332   4.173  11.986 -0.4621 -0.0208  0.4960
 5590TIP3    H240966   4.471   4.224  12.019 -0.1294 -0.1823 -0.6081
 5591TIP3   OH240967   2.218   6.208  13.354 -0.0788  0.0225 -0.2272
 5591TIP3    H140968   2.194   6.149  13.283  0.1043  0.3274 -0.5486
 5591TIP3    H240969   2.194   6.161  13.434  0.5229 -0.6916 -0.4550
 5592TIP3   OH240970   4.321   1.425  10.635  0.1739  0.1494  0.1282
 5592TIP3    H140971   4.300   1.348  10.687  0.2372 -0.3888 -0.6350
 5592TIP3    H240972   4.240   1.446  10.589  0.3821  0.0588 -0.2799
 5593TIP3   OH240973   1.996   2.694  12.080 -0.2238 -0.2273 -0.3229
 5593TIP3    H140974   1.930   2.763  12.081  0.2253  0.2244 -1.0229
 5593TIP3    H240975   2.003   2.666  12.172 -0.4979  0.5756 -0.0477
 5594TIP3   OH240976   6.026   4.973  11.121  0.5887 -0.0388 -0.2660
 5594TIP3    H140977   6.103   4.944  11.072  1.1982  0.0045  0.6545
 5594TIP3    H240978   6.046   4.952  11.212 -0.4567  0.0533 -0.0011
 5595TIP3   OH240979   4.168   2.144  11.721 -0.6762 -0.2141 -0.6242
 5595TIP3    H140980   4.166   2.203  11.796  0.0882 -3.2589  2.0322
 5595TIP3    H240981   4.255   2.158  11.683 -1.9843  3.2348 -2.8195
 5596TIP3   OH240982   1.919   2.134  11.757  0.4609 -0.1387  0.4195
 5596TIP3    H140983   1.909   2.199  11.826  0.1659 -0.5010  0.7181
 5596TIP3    H240984   1.896   2.051  11.798 -1.4113 -0.1565 -0.5406
 5597TIP3   OH240985   4.825   2.947  10.714  0.3644 -0.0699  0.2367
 5597TIP3    H140986   4.732   2.926  10.722 -0.5214  2.1300 -2.6940
 5597TIP3    H240987   4.854   2.903  10.635  1.7287 -0.3243  0.8405
 5598TIP3   OH240988   3.824   2.852  11.137  0.4931 -0.3969 -0.0757
 5598TIP3    H140989   3.832   2.757  11.147  1.2360 -0.3614 -0.2759
 5598TIP3    H240990   3.893   2.888  11.193  0.8128 -0.0094 -0.7110
 5599TIP3   OH240991   3.796   7.085  13.422 -0.2251 -0.4023  0.2181
 5599TIP3    H140992   3.735   7.022  13.384 -0.3474 -1.0839  1.4707
 5599TIP3    H240993   3.753   7.170  13.413 -0.0488 -0.4718 -1.5195
 5600TIP3   OH240994   7.190   0.055  12.380 -0.2849 -0.0622 -0.4144
 5600TIP3    H140995   7.127  -0.017  12.379  0.5745 -0.8354 -0.6140
 5600TIP3    H240996   7.190   0.089  12.291 -3.3379  2.6336  0.4159
 5601TIP3   OH240997   5.633   4.167  12.896 -0.0229  0.0818  0.0254
 5601TIP3    H140998   5.711   4.136  12.940  0.6622  0.9625 -0.5290
 5601TIP3    H240999   5.632   4.120  12.812 -0.9518 -1.0820  0.6604
 5602TIP3   OH241000   1.618   6.707  11.570 -0.4711 -0.1827  0.5628
 5602TIP3    H141001   1.621   6.727  11.476  0.7076  0.5086  0.7262
 5602TIP3    H241002   1.524   6.704  11.591 -0.7443  0.9766 -0.3679
 5603TIP3   OH241003   3.290   2.586  11.087  0.2812 -0.3146  0.2729
 5603TIP3    H141004   3.279   2.497  11.122 -1.3816 -0.9253 -1.6225
 5603TIP3    H241005   3.315   2.638  11.163  3.6818 -2.7454  1.0572
 5604TIP3   OH241006   5.431   1.389  11.431 -0.3680 -0.2638 -0.1407
 5604TIP3    H141007   5.356   1.401  11.372 -0.3921 -1.4371 -0.3902
 5604TIP3    H241008   5.392   1.377  11.517 -0.4480 -0.3796 -0.1916
 5605TIP3   OH241009   5.388   7.089  11.847 -0.1888 -0.0633 -0.2275
 5605TIP3    H141010   5.387   7.075  11.753 -1.7557  0.4457 -0.3242
 5605TIP3    H241011   5.449   7.024  11.881  1.0029  0.2806 -1.6549
 5606TIP3   OH241012   6.215   4.636  11.000  0.4503 -0.0898 -0.0743
 5606TIP3    H141013   6.267   4.574  10.949 -0.0378 -0.4347 -0.1657
 5606TIP3    H241014   6.256   4.637  11.086 -0.3772 -1.6552  0.3772
 5607TIP3   OH241015   6.152   2.080  10.856 -0.3991 -0.5589  0.3412
 5607TIP3    H141016   6.161   2.000  10.805  1.9761 -0.1773  0.0454
 5607TIP3    H241017   6.066   2.114  10.833  0.3265 -0.6743 -3.0588
 5608TIP3   OH241018   2.992   1.080  12.495 -0.0872  0.2533 -0.2996
 5608TIP3    H141019   3.000   1.175  12.503 -1.5300  0.2759  1.7466
 5608TIP3    H241020   3.015   1.047  12.583 -0.6491 -1.1908 -0.6635
 5609TIP3   OH241021   3.970   0.698  11.528  0.0960 -0.2671  0.5777
 5609TIP3    H141022   3.917   0.657  11.596  0.3170  0.5040  1.2368
 5609TIP3    H241023   3.916   0.694  11.450 -0.8098  0.2043  1.1606
 5610TIP3   OH241024   2.226   0.865  12.120 -0.1362  0.3588 -0.0521
 5610TIP3    H141025   2.314   0.854  12.153  0.1884  1.3557 -0.5451
 5610TIP3    H241026   2.170   0.869  12.198  0.3113  0.1767  0.2751
 5611TIP3   OH241027   2.021   1.800  11.402  0.1813 -0.4920 -0.3636
 5611TIP3    H141028   1.941   1.847  11.426  0.7886 -0.4053  1.6714
 5611TIP3    H241029   2.003   1.767  11.314 -1.5388  0.7127 -0.5339
 5612TIP3   OH241030   1.920   4.023  13.060  0.3976  0.5326 -0.2497
 5612TIP3    H141031   1.843   3.994  13.012  0.2926 -1.0650  0.8059
 5612TIP3    H241032   1.986   3.956  13.042  0.9334  0.8851  0.3448
 5613TIP3   OH241033   6.243   7.450  10.898  0.0092  0.3654 -0.4956
 5613TIP3    H141034   6.330   7.485  10.880  0.2434  0.7339  1.1852
 5613TIP3    H241035   6.230   7.465  10.991 -0.7450 -2.1608 -0.1173
 5614TIP3   OH241036   3.391   2.501  12.973  0.1656 -0.4865 -0.1603
 5614TIP3    H141037   3.327   2.571  12.983  0.7228  0.2944 -1.7920
 5614TIP3    H241038   3.358   2.431  13.030 -0.6089  0.9224  1.2054
 5615TIP3   OH241039   5.905   2.370  11.757 -0.0201 -0.2764  0.1887
 5615TIP3    H141040   5.899   2.427  11.834 -0.6223 -0.9622  0.6679
 5615TIP3    H241041   5.914   2.282  11.793  1.0639 -0.4786 -0.5461
 5616TIP3   OH241042   6.182   2.066  12.445 -0.2811  0.2614  0.6593
 5616TIP3    H141043   6.246   2.083  12.376  0.4784  0.7899  1.4605
 5616TIP3    H241044   6.097   2.079  12.403  0.1836  2.0443  0.1670
 5617TIP3   OH241045   2.461   7.432  11.466  0.3110  0.6976 -0.0858
 5617TIP3    H141046   2.485   7.481  11.545 -0.6570 -0.0772  0.7244
 5617TIP3    H241047   2.366   7.443  11.459  0.3152  0.3234 -0.8571
 5618TIP3   OH241048   4.309   5.337  11.853  0.0969 -0.2315  0.0974
 5618TIP3    H141049   4.275   5.247  11.858  1.6854 -0.9539 -1.1083
 5618TIP3    H241050   4.294   5.363  11.762 -2.2324  1.5663  0.9236
 5619TIP3   OH241051   0.746   4.839  10.924 -0.4047  0.0636  0.4362
 5619TIP3    H141052   0.691   4.767  10.893  0.3189 -0.2916 -0.0459
 5619TIP3    H241053   0.833   4.800  10.935 -0.2377  0.6249  1.1677
 5620TIP3   OH241054   5.413   2.683  12.672 -0.3321  0.1804  0.4199
 5620TIP3    H141055   5.376   2.608  12.718 -1.0923  0.4555  0.2579
 5620TIP3    H241056   5.343   2.748  12.670  0.8156  1.5803  2.0342
 5621TIP3   OH241057   7.309   5.388  10.449 -0.6549 -0.3183  0.1963
 5621TIP3    H141058   7.271   5.301  10.459  1.5034 -1.2349  0.9979
 5621TIP3    H241059   7.375   5.394  10.518 -0.5237  1.8361 -0.0506
 5622TIP3   OH241060   3.504   0.267  10.646 -0.7337 -0.3792  0.1376
 5622TIP3    H141061   3.585   0.220  10.666 -0.7326 -1.2993 -1.8429
 5622TIP3    H241062   3.436   0.200  10.648 -0.8604 -0.3558 -1.8973
 5623TIP3   OH241063   2.605   2.512  10.826  0.0760  0.1800 -0.1794
 5623TIP3    H141064   2.636   2.422  10.834 -0.2118  0.2369  2.4216
 5623TIP3    H241065   2.685   2.565  10.827  0.1670  0.0532  1.0719
 5624TIP3   OH241066   4.309   4.393  10.602  0.4776 -0.3606  0.1634
 5624TIP3    H141067   4.219   4.381  10.631  0.1681 -2.2767 -1.3740
 5624TIP3    H241068   4.342   4.304  10.589  2.1762  0.3256 -0.5197
 5625TIP3   OH241069   6.704   1.591  12.624 -0.3154  0.5099  0.3429
 5625TIP3    H141070   6.730   1.538  12.548  1.1822  0.8513  0.5789
 5625TIP3    H241071   6.694   1.680  12.589 -0.4776  0.5132  0.3941
 5626TIP3   OH241072   3.415   2.414  13.514  0.1745  0.5430 -0.4613
 5626TIP3    H141073   3.484   2.462  13.560 -0.5847 -0.7725  2.3029
 5626TIP3    H241074   3.452   2.326  13.501 -0.6718  0.0513  0.3603
 5627TIP3   OH241075   0.623   4.599  12.033  0.0126  0.9392  0.1172
 5627TIP3    H141076   0.617   4.688  12.069  0.4506  0.3576  1.7385
 5627TIP3    H241077   0.533   4.566  12.035 -0.0809  1.1803 -0.0471
 5628TIP3   OH241078   0.399   3.169  11.879  0.3997  0.0455  0.5901
 5628TIP3    H141079   0.417   3.141  11.789  1.0219 -0.2092  0.7861
 5628TIP3    H241080   0.422   3.093  11.933 -3.3958 -1.1701  0.7620
 5629TIP3   OH241081   3.403   5.264  11.891 -0.0357 -0.2214  0.6441
 5629TIP3    H141082   3.468   5.303  11.949  0.1082  0.6418 -0.0784
 5629TIP3    H241083   3.343   5.219  11.950  1.5059 -1.5173  1.3049
 5630TIP3   OH241084   4.287   6.907  11.845 -0.1172 -0.2992 -0.0077
 5630TIP3    H141085   4.249   6.871  11.925 -0.0542 -1.4042 -0.4502
 5630TIP3    H241086   4.276   6.837  11.780  1.3392 -0.0940 -0.5272
 5631TIP3   OH241087   7.073   1.565  11.234  0.1718  0.6409 -0.4760
 5631TIP3    H141088   7.060   1.495  11.169  0.7736 -1.3776  1.4403
 5631TIP3    H241089   6.996   1.560  11.291  0.4944  1.1658  0.0193
 5632TIP3   OH241090   6.140   2.199  11.420  0.0919  0.2910 -0.5559
 5632TIP3    H141091   6.233   2.179  11.430 -0.2684 -0.8322  0.8834
 5632TIP3    H241092   6.127   2.279  11.470  0.4572  1.0213 -1.6011
 5633TIP3   OH241093   4.990   7.591  10.639  0.2738  0.2734 -0.4966
 5633TIP3    H141094   5.023   7.657  10.579 -1.2645  2.3820  0.8447
 5633TIP3    H241095   5.047   7.597  10.715  1.0188 -1.0258 -0.9217
 5634TIP3   OH241096   4.071   5.456  11.207  0.2095 -0.4650 -0.4640
 5634TIP3    H141097   4.018   5.431  11.282  1.4607 -0.2771  0.5163
 5634TIP3    H241098   4.081   5.375  11.157 -1.9090 -0.2658 -1.2916
 5635TIP3   OH241099   4.106   0.482  10.814  0.2577 -0.1075 -0.0345
 5635TIP3    H141100   4.162   0.480  10.736  1.8456 -0.1788  1.0523
 5635TIP3    H241101   4.093   0.575  10.832  1.8363 -0.0270  0.8958
 5636TIP3   OH241102   7.372   5.037  12.384 -0.2236  0.2215  0.5173
 5636TIP3    H141103   7.449   4.984  12.365 -0.8147 -0.1341 -0.9257
 5636TIP3    H241104   7.316   4.980  12.437 -0.2319 -0.0847  0.1759
 5637TIP3   OH241105   4.028   1.450  12.136  0.3747  0.3099 -0.5103
 5637TIP3    H141106   3.970   1.411  12.070  0.1823 -1.1567  0.4888
 5637TIP3    H241107   3.979   1.527  12.167 -0.5204 -0.2400 -0.5234
 5638TIP3   OH241108   2.076   7.253  11.823 -0.7156  0.2995 -0.1803
 5638TIP3    H141109   2.074   7.162  11.854 -1.6940  0.3229 -0.1394
 5638TIP3    H241110   2.139   7.296  11.881  0.1907 -0.4726 -0.5663
 5639TIP3   OH241111   4.947   6.058  10.861  0.7308  0.5713 -0.9013
 5639TIP3    H141112   4.955   5.989  10.796  0.5900  1.7228 -2.1727
 5639TIP3    H241113   4.884   6.119  10.823 -1.8918 -0.2802  1.7023
 5640TIP3   OH241114   4.117   6.905  12.067  0.3449  0.3625  0.2235
 5640TIP3    H141115   4.058   6.905  12.143  0.1076  0.6330  0.0416
 5640TIP3    H241116   4.204   6.892  12.105  0.2760  0.8920  0.5847
 5641TIP3   OH241117   1.573   3.104  12.695 -0.0758 -0.6584  0.3554
 5641TIP3    H141118   1.628   3.092  12.772  1.7298  0.9680 -0.5989
 5641TIP3    H241119   1.487   3.126  12.731  0.7757  0.2981  1.9360
 5642TIP3   OH241120   3.242   5.115  11.089 -0.2677 -1.0552 -0.2861
 5642TIP3    H141121   3.208   5.031  11.120 -1.4917 -0.5922 -0.3301
 5642TIP3    H241122   3.221   5.116  10.996 -2.4526  0.2812  0.1488
 5643TIP3   OH241123   7.366   5.327  13.276 -0.2839 -0.5990  0.6163
 5643TIP3    H141124   7.336   5.287  13.358  0.8014 -0.3797  1.1513
 5643TIP3    H241125   7.287   5.362  13.235 -0.7782 -0.2388  1.8405
 5644TIP3   OH241126   1.818   5.061  13.020 -0.4687 -0.2286  0.3859
 5644TIP3    H141127   1.759   5.086  12.949 -0.6615 -2.2838 -0.2486
 5644TIP3    H241128   1.764   5.006  13.077 -0.2845  1.2788  2.1123
 5645TIP3   OH241129   0.604   0.760  11.407  0.5834 -0.1982 -0.1676
 5645TIP3    H141130   0.556   0.779  11.488  0.2059  0.2939 -0.5010
 5645TIP3    H241131   0.671   0.697  11.433 -0.2453 -0.9170  0.3089
 5646TIP3   OH241132   4.037   4.325  10.868  0.3126 -0.2804 -0.7113
 5646TIP3    H141133   4.086   4.251  10.830 -0.7584 -1.1628 -0.4051
 5646TIP3    H241134   3.994   4.289  10.945 -0.1763  0.6894 -0.5141
 5647TIP3   OH241135   2.488   4.463  12.451 -0.4526  0.2229 -0.1688
 5647TIP3    H141136   2.543   4.541  12.445 -0.6598  0.3896  0.0646
 5647TIP3    H241137   2.402   4.491  12.419 -0.0622 -0.3956 -1.8533
 5648TIP3   OH241138   4.027   1.723  12.376 -0.8568  0.1135  0.3350
 5648TIP3    H141139   3.963   1.691  12.313 -0.7737 -2.8773  1.5804
 5648TIP3    H241140   3.975   1.750  12.452 -0.8907  2.7603 -0.5430
 5649TIP3   OH241141   4.874   7.294  10.304 -0.3388  0.0400 -0.4786
 5649TIP3    H141142   4.889   7.279  10.397  0.4671 -0.7126 -0.7242
 5649TIP3    H241143   4.959   7.283  10.263 -0.1419  2.7519 -1.0450
 5650TIP3   OH241144   1.891   6.979  13.075  0.1315 -0.3065  0.3516
 5650TIP3    H141145   1.879   6.944  13.163 -2.9473  0.6913  0.4722
 5650TIP3    H241146   1.929   7.066  13.089 -0.4910 -0.0886  0.7321
 5651TIP3   OH241147   3.022   2.466  12.767  0.4559  0.4917 -0.0850
 5651TIP3    H141148   3.101   2.434  12.724 -0.1553 -3.2356  1.1792
 5651TIP3    H241149   2.963   2.487  12.694  1.2728 -0.4960 -1.0729
 5652TIP3   OH241150   0.180   6.868  12.120 -0.7104 -0.1264 -0.2698
 5652TIP3    H141151   0.202   6.833  12.205 -1.2120 -0.4050 -0.2522
 5652TIP3    H241152   0.216   6.957  12.120 -0.5228 -0.2041  0.1488
 5653TIP3   OH241153   4.968   1.435  11.664  0.4490 -0.1730 -0.1928
 5653TIP3    H141154   5.002   1.446  11.576  2.7892 -1.7619  0.4255
 5653TIP3    H241155   4.924   1.351  11.663 -0.2952  0.2060 -0.0512
 5654TIP3   OH241156   7.363   5.676  10.373 -0.0079  0.2577 -0.3655
 5654TIP3    H141157   7.455   5.674  10.347 -0.1223 -0.8369 -0.7179
 5654TIP3    H241158   7.348   5.591  10.416 -0.8734  0.3948 -0.3756
 5655TIP3   OH241159   5.961   0.572  11.825  0.5279  0.0036  0.4572
 5655TIP3    H141160   5.879   0.599  11.784  0.2243  0.3401  1.2694
 5655TIP3    H241161   5.935   0.532  11.908  1.2405  1.2270  1.3004
 5656TIP3   OH241162   2.127   1.561  10.947  0.1718  0.0119 -0.0737
 5656TIP3    H141163   2.121   1.575  10.852 -0.6358  0.2624  0.0123
 5656TIP3    H241164   2.221   1.547  10.962  0.4172  0.7537 -0.8045
 5657TIP3   OH241165   1.906   4.857  11.815  0.1739  0.3668  0.0334
 5657TIP3    H141166   1.866   4.933  11.771  2.4957  0.6567 -1.7787
 5657TIP3    H241167   1.885   4.783  11.757  1.3953  0.3696 -0.4357
 5658TIP3   OH241168   6.469   6.368  10.571 -0.4351  0.0065 -0.3322
 5658TIP3    H141169   6.457   6.349  10.478  0.8191 -2.1759 -0.1163
 5658TIP3    H241170   6.380   6.373  10.607 -0.9537  1.5528 -1.7119
 5659TIP3   OH241171   2.753   7.520  12.404  0.3266 -0.0383  0.2296
 5659TIP3    H141172   2.695   7.532  12.329  1.6917 -1.4734 -1.1456
 5659TIP3    H241173   2.755   7.426  12.419 -0.0526  0.2236  2.2407
 5660TIP3   OH241174   4.540   1.922  10.610 -0.2140  0.0527 -0.2594
 5660TIP3    H141175   4.590   1.915  10.692  0.2131 -2.4843 -0.6301
 5660TIP3    H241176   4.608   1.922  10.541 -0.6070  0.7629 -0.6493
 5661TIP3   OH241177   6.742   6.329  13.433 -0.1619  0.5425  0.1143
 5661TIP3    H141178   6.653   6.334  13.397 -0.7292 -0.9980  1.1684
 5661TIP3    H241179   6.782   6.255  13.388 -0.0385  0.1313  0.8858
 5662TIP3   OH241180   7.369   0.405  12.952 -0.4087  0.2703 -0.2146
 5662TIP3    H141181   7.338   0.483  12.999  0.3744  0.1685  0.5033
 5662TIP3    H241182   7.449   0.380  12.998 -1.8299 -2.3427  1.0839
 5663TIP3   OH241183   1.002   6.192  11.150  0.1024 -0.2468  0.0905
 5663TIP3    H141184   1.070   6.259  11.151  0.2041 -0.3481  1.1583
 5663TIP3    H241185   0.983   6.176  11.242 -1.3074 -0.2977 -0.1891
 5664TIP3   OH241186   4.616   4.969  11.715  0.0229 -0.3540 -0.0794
 5664TIP3    H141187   4.542   5.023  11.687  0.6238 -0.1069 -1.2698
 5664TIP3    H241188   4.693   5.017  11.687  0.6693 -0.4915  1.3722
 5665TIP3   OH241189   5.267   3.029  10.458 -0.4353 -0.0137  0.1630
 5665TIP3    H141190   5.232   3.040  10.546  0.4980  0.9672  0.4253
 5665TIP3    H241191   5.346   3.083  10.456 -0.6173  0.2355 -1.3822
 5666TIP3   OH241192   4.320   6.267  12.203 -0.4872 -0.3827 -0.1489
 5666TIP3    H141193   4.324   6.220  12.120 -0.6856  0.6769 -0.7753
 5666TIP3    H241194   4.235   6.242  12.240 -1.1649  0.4597 -1.0901
 5667TIP3   OH241195   3.294   6.059  12.651 -0.5565  0.6649  0.2874
 5667TIP3    H141196   3.281   6.091  12.562  2.7152  0.2683 -0.4655
 5667TIP3    H241197   3.311   6.138  12.702 -0.3286  0.7368  0.1029
 5668TIP3   OH241198   3.674   1.991  11.365  0.5068 -0.1760 -0.6732
 5668TIP3    H141199   3.696   1.978  11.457  0.5184  2.2190 -0.2597
 5668TIP3    H241200   3.580   2.009  11.365  0.9827  2.9553 -0.6058
 5669TIP3   OH241201   0.654   2.255  12.518 -0.1573 -0.5375 -0.4763
 5669TIP3    H141202   0.748   2.274  12.513  0.1044 -1.9563 -1.6077
 5669TIP3    H241203   0.647   2.162  12.496 -1.7189 -0.8033  0.9440
 5670TIP3   OH241204   5.425   6.083  12.029  0.2306  0.6062 -0.3076
 5670TIP3    H141205   5.398   6.036  12.108  1.2647  2.9862  1.6206
 5670TIP3    H241206   5.378   6.167  12.034  2.8396  2.1813 -0.3121
 5671TIP3   OH241207   4.679   2.886  12.504 -0.5319  0.1637 -0.0109
 5671TIP3    H141208   4.628   2.932  12.571 -0.3900  1.2439 -0.6123
 5671TIP3    H241209   4.769   2.886  12.537 -0.3131  1.4287 -0.5443
 5672TIP3   OH241210   6.642   0.529  12.122  0.1682  0.4026  0.1387
 5672TIP3    H141211   6.623   0.456  12.181  1.4448 -0.1137 -0.0692
 5672TIP3    H241212   6.731   0.557  12.145 -0.5445  2.3802  0.7100
 5673TIP3   OH241213   4.948   1.396  10.371  0.9858 -0.1834  0.0697
 5673TIP3    H141214   4.910   1.310  10.387  0.6285 -0.4091 -1.7792
 5673TIP3    H241215   4.946   1.440  10.457  0.1079 -1.5711  0.7937
 5674TIP3   OH241216   0.101   0.644  11.561  0.1952 -0.1388 -0.4487
 5674TIP3    H141217   0.029   0.707  11.572  0.2396  0.0839 -1.3881
 5674TIP3    H241218   0.161   0.686  11.500  0.2818 -1.0496 -1.0053
 5675TIP3   OH241219   6.811   4.240  10.790 -0.2930  0.9843 -0.0048
 5675TIP3    H141220   6.814   4.175  10.719  0.8071  1.4108 -0.3679
 5675TIP3    H241221   6.764   4.314  10.752 -2.6980 -0.0086  0.8099
 5676TIP3   OH241222   5.518   6.907  12.005 -0.2562  0.4634  0.1150
 5676TIP3    H141223   5.509   6.812  12.019  1.3606  0.5288  2.1558
 5676TIP3    H241224   5.454   6.946  12.065  0.0235  0.6593  0.2912
 5677TIP3   OH241225   2.306   1.135  11.639 -0.2665  0.0462  0.9527
 5677TIP3    H141226   2.220   1.093  11.645  0.5930 -1.7414  1.5723
 5677TIP3    H241227   2.364   1.078  11.689  1.2156  1.4275  0.8920
 5678TIP3   OH241228   0.085   4.622  12.199 -0.3946 -0.1310 -0.4055
 5678TIP3    H141229  -0.003   4.643  12.231 -1.4098 -0.7102 -2.5841
 5678TIP3    H241230   0.118   4.705  12.165 -0.2010  0.0318  0.1739
 5679TIP3   OH241231   6.353   6.256  12.239  0.1253 -0.2705 -0.5475
 5679TIP3    H141232   6.342   6.161  12.243  0.9768 -0.3415  2.0184
 5679TIP3    H241233   6.266   6.291  12.258  0.1316 -0.5791  0.0793
 5680TIP3   OH241234   3.697   5.446  11.423  0.1278  0.1190  0.2887
 5680TIP3    H141235   3.693   5.351  11.427 -0.7084  0.1261 -0.1892
 5680TIP3    H241236   3.655   5.469  11.341  1.1665  0.8611 -0.0622
 5681TIP3   OH241237   2.342   2.723  12.681 -0.5279 -0.8696 -0.5807
 5681TIP3    H141238   2.356   2.787  12.751  1.3259 -0.6259 -1.1223
 5681TIP3    H241239   2.378   2.642  12.714  0.2532 -0.7837 -1.1905
 5682TIP3   OH241240   7.388   3.452  11.629  0.2604  0.4914  0.0762
 5682TIP3    H141241   7.449   3.406  11.571 -2.0498 -2.7655 -0.1000
 5682TIP3    H241242   7.335   3.506  11.570  0.2050 -0.0748 -0.4099
 5683TIP3   OH241243   1.097   5.667  12.722 -0.0885 -0.1238 -0.0929
 5683TIP3    H141244   1.007   5.641  12.737  0.0462  0.6742  2.4257
 5683TIP3    H241245   1.146   5.629  12.795  0.9670  2.5656  0.6998
 5684TIP3   OH241246   3.872   4.699  11.804 -0.0414 -0.5345  0.2803
 5684TIP3    H141247   3.857   4.723  11.712 -0.1803 -0.3672  0.3435
 5684TIP3    H241248   3.846   4.777  11.853  2.8456  0.5163  0.3232
 5685TIP3   OH241249   1.278   6.661  12.167 -0.4402  0.0408 -0.1294
 5685TIP3    H141250   1.341   6.653  12.096  0.0138 -0.1004  0.2807
 5685TIP3    H241251   1.227   6.740  12.146  0.0425  0.2999 -0.3343
 5686TIP3   OH241252   4.653   1.916  10.852  0.5206  0.1367  0.2215
 5686TIP3    H141253   4.687   1.892  10.938 -0.4098  0.7566  0.7828
 5686TIP3    H241254   4.564   1.946  10.870  0.0756 -0.3765 -1.0534
 5687TIP3   OH241255   6.545   7.076  10.699 -0.0817 -0.3885 -0.3982
 5687TIP3    H141256   6.525   7.149  10.757  0.2846 -1.4972  1.1638
 5687TIP3    H241257   6.541   6.998  10.755  2.1516 -1.3176 -1.4296
 5688TIP3   OH241258   4.765   0.054  10.418  0.0636  0.1665 -0.4581
 5688TIP3    H141259   4.802   0.051  10.506 -1.2084  0.7407  0.1080
 5688TIP3    H241260   4.740  -0.037  10.400 -0.7185  0.2444  0.2280
 5689TIP3   OH241261   6.623   4.263  11.786  0.1970  0.2740 -0.5408
 5689TIP3    H141262   6.640   4.180  11.743 -1.0241  0.4266 -1.3529
 5689TIP3    H241263   6.707   4.309  11.782  0.3531 -0.0797 -1.9628
 5690TIP3   OH241264   2.839   6.210  11.984 -0.3414  0.2894 -0.7221
 5690TIP3    H141265   2.841   6.149  11.910 -1.8251 -0.8646  0.1333
 5690TIP3    H241266   2.931   6.222  12.007  0.0744 -0.3401 -1.9317
 5691TIP3   OH241267   6.559   2.632  12.080 -0.3775 -0.0731  0.5846
 5691TIP3    H141268   6.648   2.606  12.104  0.0674  0.0997 -0.7870
 5691TIP3    H241269   6.551   2.722  12.112  0.5294  0.4766 -0.6786
 5692TIP3   OH241270   3.404   5.483  12.816 -0.4754  0.0819 -0.1953
 5692TIP3    H141271   3.388   5.568  12.856 -2.0509 -0.5007  0.5285
 5692TIP3    H241272   3.320   5.438  12.822 -0.0691 -1.0028 -1.8829
 5693TIP3   OH241273   1.056   7.095  11.285 -0.0609 -0.0417 -0.5681
 5693TIP3    H141274   1.040   7.150  11.208 -0.7791  2.5300  1.2832
 5693TIP3    H241275   0.969   7.078  11.321  0.2552 -1.2999 -0.3620
 5694TIP3   OH241276   7.481   3.956  13.111 -0.0580 -0.1407  0.0106
 5694TIP3    H141277   7.410   3.999  13.159  0.5185  0.9646 -0.0952
 5694TIP3    H241278   7.493   3.872  13.156  0.0204  0.5826  1.3922
 5695TIP3   OH241279   6.772   4.778  12.275 -0.3935 -0.2483  0.1313
 5695TIP3    H141280   6.704   4.811  12.217 -0.5257  1.3175  1.1259
 5695TIP3    H241281   6.844   4.840  12.267 -0.4264  0.0297  1.6458
 5696TIP3   OH241282   3.011   2.231  12.104 -0.0343 -0.1341 -0.5292
 5696TIP3    H141283   3.084   2.283  12.138 -0.6751  0.6376 -0.3132
 5696TIP3    H241284   3.045   2.193  12.023 -0.0535  1.9291 -1.5736
 5697TIP3   OH241285   6.770   6.950  12.001  0.7688  0.3849  0.2668
 5697TIP3    H141286   6.776   6.977  11.909 -0.0389  0.2554  0.1636
 5697TIP3    H241287   6.814   6.864  12.003  0.8716  0.4286  0.0207
 5698TIP3   OH241288   1.066   3.709  11.458 -0.1766  0.2949 -0.1308
 5698TIP3    H141289   1.100   3.645  11.395  0.1592  0.3454 -0.0038
 5698TIP3    H241290   0.973   3.691  11.462 -0.6092  1.6318 -2.2430
 5699TIP3   OH241291   2.986   4.240  12.919  0.4412 -0.1504  0.3725
 5699TIP3    H141292   2.920   4.176  12.893  1.4584 -1.7795  1.5664
 5699TIP3    H241293   2.938   4.305  12.971 -0.1264 -1.8881  2.1513
 5700TIP3   OH241294   1.037   2.706  12.069  0.3305 -0.1031 -0.1273
 5700TIP3    H141295   1.082   2.717  11.985 -0.3602 -1.8260 -0.7707
 5700TIP3    H241296   0.962   2.766  12.064  0.8170  0.5042 -0.3248
 5701TIP3   OH241297   3.031   2.546  13.226  0.7241  0.3659  0.0158
 5701TIP3    H141298   3.040   2.552  13.130  1.8398  2.4552  0.1815
 5701TIP3    H241299   3.096   2.480  13.252  1.1477  0.5324 -0.5931
 5702TIP3   OH241300   1.581   4.898  11.034 -0.8818 -0.3623 -0.1567
 5702TIP3    H141301   1.513   4.885  11.100  0.6730 -0.0767  1.5994
 5702TIP3    H241302   1.644   4.827  11.051 -0.4601 -0.3023 -1.3729
 5703TIP3   OH241303   6.736   1.558  11.887 -0.9604 -0.0447  0.2744
 5703TIP3    H141304   6.785   1.636  11.912 -0.5708 -0.5079  0.9880
 5703TIP3    H241305   6.796   1.485  11.904  0.3372 -0.3394 -4.2250
 5704TIP3   OH241306   5.261   5.005  11.287  0.0656  0.7214 -0.4233
 5704TIP3    H141307   5.277   5.075  11.223  1.4906  0.6986 -0.1212
 5704TIP3    H241308   5.321   4.936  11.261 -0.1496  0.2674  0.2813
 5705TIP3   OH241309   3.853   2.909  10.754  0.3040 -0.0710  0.1808
 5705TIP3    H141310   3.812   2.995  10.767 -0.8965 -0.6579  0.4596
 5705TIP3    H241311   3.932   2.911  10.807  0.2435  0.8351  0.2496
 5706TIP3   OH241312   5.545   0.835  11.958 -0.9108 -0.1197 -0.0698
 5706TIP3    H141313   5.479   0.775  11.924  0.5399 -0.9567 -1.5291
 5706TIP3    H241314   5.518   0.921  11.924 -1.1202 -0.4814 -0.8402
 5707TIP3   OH241315   5.100   0.933  10.476 -0.1247  0.3414  0.1352
 5707TIP3    H141316   5.149   1.013  10.455  0.5844 -0.1155  0.0116
 5707TIP3    H241317   5.008   0.959  10.469  0.0847  0.8146 -1.2300
 5708TIP3   OH241318   4.845   7.083  10.587 -0.2334  0.2093 -0.1814
 5708TIP3    H141319   4.897   7.037  10.653 -1.4842 -1.3947 -0.2426
 5708TIP3    H241320   4.816   7.163  10.632  2.4053  1.2823 -0.2435
 5709TIP3   OH241321   3.946   4.565  10.760 -0.4044 -0.1730  0.5583
 5709TIP3    H141322   3.976   4.484  10.799 -0.1089  0.1926  1.0946
 5709TIP3    H241323   3.863   4.542  10.717 -0.4731 -0.6822  0.9625
 5710TIP3   OH241324   0.441   3.078  11.610  0.0262  0.2951 -0.8850
 5710TIP3    H141325   0.469   2.994  11.574 -0.5241  0.8254 -2.6861
 5710TIP3    H241326   0.505   3.141  11.576  1.4036  0.4460  1.7848
 5711TIP3   OH241327   6.177   3.693  10.521  0.2936  0.1046  0.2810
 5711TIP3    H141328   6.181   3.786  10.499  1.6076 -0.1672 -0.8020
 5711TIP3    H241329   6.092   3.681  10.564 -0.5724  1.4998 -0.9736
 5712TIP3   OH241330   2.024   3.473  11.437 -0.4247 -0.0952 -0.1153
 5712TIP3    H141331   1.954   3.408  11.434  0.0120 -0.5503 -0.8103
 5712TIP3    H241332   2.081   3.443  11.507 -0.9337  0.2939  0.4725
 5713TIP3   OH241333   1.627   6.913  12.298 -0.5921  0.4666 -0.3987
 5713TIP3    H141334   1.553   6.972  12.283  0.5170  2.0170  0.0319
 5713TIP3    H241335   1.587   6.826  12.305 -2.1868  1.0129 -1.9504
 5714TIP3   OH241336   4.871   4.480  12.135 -0.3642  0.0317 -0.3466
 5714TIP3    H141337   4.855   4.537  12.210 -2.7967 -1.9444  0.7957
 5714TIP3    H241338   4.823   4.521  12.063  1.1703  1.4176 -0.6374
 5715TIP3   OH241339   7.591   3.689  13.162 -0.9144  0.2980 -0.1369
 5715TIP3    H141340   7.586   3.621  13.095  1.2562 -0.4361  0.3642
 5715TIP3    H241341   7.531   3.661  13.230 -1.5362 -0.0626 -0.8222
 5716TIP3   OH241342   3.419   4.053  11.981 -0.8288  0.4647  0.2861
 5716TIP3    H141343   3.472   4.119  11.936 -3.4587  3.3488  1.0183
 5716TIP3    H241344   3.434   4.069  12.074  0.1933 -1.5824  0.5230
 5717TIP3   OH241345   2.416   3.315  10.990  0.2879  0.9494  0.8734
 5717TIP3    H141346   2.369   3.374  11.049  0.1932  1.2732  0.4758
 5717TIP3    H241347   2.354   3.243  10.974 -0.1816  1.5058  0.1433
 5718TIP3   OH241348   4.912   3.165  11.095  0.0591 -0.3410  0.1004
 5718TIP3    H141349   4.994   3.120  11.074  0.6215 -0.5314  2.4399
 5718TIP3    H241350   4.845   3.098  11.083  0.7781 -1.6030  2.4920
 5719TIP3   OH241351   4.113   4.459  13.108  0.4871 -0.5186 -0.0442
 5719TIP3    H141352   4.200   4.420  13.110  0.6026 -0.2202  1.4075
 5719TIP3    H241353   4.110   4.518  13.184 -0.4278  0.6955 -0.9679
 5720TIP3   OH241354   2.436   3.902  11.703 -0.6907  0.0226  0.0395
 5720TIP3    H141355   2.484   3.930  11.782 -0.2774  0.6517 -0.4243
 5720TIP3    H241356   2.346   3.927  11.720 -0.5082  0.6715  0.0917
 5721TIP3   OH241357   4.363   4.315  12.330  0.1840  0.1344 -0.5098
 5721TIP3    H141358   4.372   4.282  12.240 -0.1757 -0.1089 -0.4590
 5721TIP3    H241359   4.413   4.397  12.330  3.5921 -1.7943  0.1801
 5722TIP3   OH241360   1.290   2.223  12.096  0.2146  0.4752 -0.0411
 5722TIP3    H141361   1.260   2.212  12.006  1.5033 -0.8055 -0.3616
 5722TIP3    H241362   1.274   2.138  12.137 -0.8072  1.1837  1.1136
 5723TIP3   OH241363   4.676   2.997  12.778  0.2518 -0.1683 -0.2885
 5723TIP3    H141364   4.741   3.027  12.842 -0.5358  0.8835  0.0424
 5723TIP3    H241365   4.600   3.054  12.792 -0.0867 -0.1788 -1.8874
 5724TIP3   OH241366   1.086   1.067  12.966  0.6039  0.1647 -0.6688
 5724TIP3    H141367   1.164   1.028  13.005  0.0657  0.2216  0.5200
 5724TIP3    H241368   1.040   1.107  13.040 -0.8391 -0.3780 -1.2281
 5725TIP3   OH241369   3.315   1.530  11.477 -0.8762  0.0830 -0.3044
 5725TIP3    H141370   3.270   1.595  11.531 -1.6717 -1.3143  0.7801
 5725TIP3    H241371   3.408   1.544  11.496 -1.0461  0.7534  0.0759
 5726TIP3   OH241372   5.153   0.270  11.094 -0.4077 -0.0224 -0.7336
 5726TIP3    H141373   5.129   0.279  11.187 -0.3922  2.9285 -0.9154
 5726TIP3    H241374   5.248   0.278  11.093 -0.5264  1.6413 -1.0980
 5727TIP3   OH241375   0.872   4.833  10.652  0.1185  0.1261 -0.2727
 5727TIP3    H141376   0.963   4.857  10.669  0.6181 -2.1604  0.7634
 5727TIP3    H241377   0.825   4.857  10.732  0.2736 -0.6263  0.0585
 5728TIP3   OH241378   5.885   5.798  12.131  0.4078 -0.4871 -0.5555
 5728TIP3    H141379   5.924   5.883  12.152 -0.8638  0.1735 -0.8055
 5728TIP3    H241380   5.860   5.805  12.039 -1.8956 -0.2356  0.0400
 5729TIP3   OH241381   7.355   6.657  11.863 -0.5578 -0.5332 -0.0088
 5729TIP3    H141382   7.307   6.624  11.939 -0.6420  0.1949  0.2601
 5729TIP3    H241383   7.445   6.629  11.877 -0.3666  0.4516  0.8784
 5730TIP3   OH241384   6.143   2.061  11.775  0.5427 -0.1113  0.1867
 5730TIP3    H141385   6.197   2.134  11.744 -0.6247  0.0796 -1.4924
 5730TIP3    H241386   6.087   2.100  11.843  0.8869  0.2251  0.2846
 5731TIP3   OH241387   4.810   0.922  10.533 -0.1890 -0.0043  0.3627
 5731TIP3    H141388   4.744   0.886  10.593  0.5656 -0.1537  1.1171
 5731TIP3    H241389   4.806   1.017  10.548  1.3921 -0.1660  2.1776
 5732TIP3   OH241390   1.356   4.685  12.450  0.0583  0.2677 -1.0102
 5732TIP3    H141391   1.312   4.758  12.495  0.4340  0.1736 -0.4812
 5732TIP3    H241392   1.406   4.728  12.380 -0.0968  0.4685 -1.0019
 5733TIP3   OH241393   1.593   0.743  12.146 -0.4085  0.7025  0.7224
 5733TIP3    H141394   1.637   0.722  12.064  1.4280  0.4819  1.7079
 5733TIP3    H241395   1.664   0.771  12.205 -1.4665 -0.4199  2.6383
 5734TIP3   OH241396   5.738   7.374  12.502  0.6449 -0.7170  0.2044
 5734TIP3    H141397   5.648   7.341  12.507  0.3121  0.0786 -0.2462
 5734TIP3    H241398   5.783   7.333  12.575  0.1668 -1.8804 -0.1232
 5735TIP3   OH241399   5.701   0.021  12.195  0.1654 -0.0535  0.0636
 5735TIP3    H141400   5.753   0.041  12.117  0.9714  1.5345  0.9685
 5735TIP3    H241401   5.720  -0.071  12.213  0.8246 -0.1452 -0.9761
 5736TIP3   OH241402   3.375   4.140  12.984 -0.2884  0.5041 -0.2299
 5736TIP3    H141403   3.458   4.094  12.993 -0.2213  0.5663 -0.5362
 5736TIP3    H241404   3.356   4.172  13.072 -0.8472 -0.9840  0.2145
 5737TIP3   OH241405   0.083   3.482  11.117  0.5364 -0.1240 -0.0631
 5737TIP3    H141406   0.027   3.455  11.190  0.7871  1.1661  0.6589
 5737TIP3    H241407   0.156   3.421  11.119  0.7092  0.0854  1.0117
 5738TIP3   OH241408   4.244   1.970  12.558 -0.1632 -0.3077 -0.1197
 5738TIP3    H141409   4.156   1.960  12.594 -0.9314  0.5201 -1.6734
 5738TIP3    H241410   4.258   2.065  12.556  0.4280 -0.3987 -0.6355
 5739TIP3   OH241411   7.428   3.987  11.286 -0.4558 -0.2429  0.1019
 5739TIP3    H141412   7.402   3.938  11.207 -0.4778 -1.1035  0.6321
 5739TIP3    H241413   7.426   4.078  11.258 -0.6498 -0.5177 -0.8498
 5740TIP3   OH241414   7.165   0.689  12.081  0.1054 -0.0740 -0.3677
 5740TIP3    H141415   7.214   0.609  12.064  1.4674  0.2962  1.4367
 5740TIP3    H241416   7.154   0.730  11.995  1.9649 -0.7707 -0.9752
 5741TIP3   OH241417   3.416   6.930  11.453 -0.1257  0.4552  0.1809
 5741TIP3    H141418   3.354   6.901  11.520 -0.8350 -0.7535 -0.9608
 5741TIP3    H241419   3.471   6.995  11.498 -0.0142 -0.9224  2.1739
 5742TIP3   OH241420   5.489   4.699  12.213  0.4070  0.7121 -0.3678
 5742TIP3    H141421   5.541   4.730  12.288  1.5730 -2.2249  0.1578
 5742TIP3    H241422   5.399   4.696  12.246  0.9429 -0.8222  1.0598
 5743TIP3   OH241423   1.737   0.986  17.384 -0.0990 -0.2825 -0.0854
 5743TIP3    H141424   1.830   1.004  17.397  0.1521 -0.9082 -0.9373
 5743TIP3    H241425   1.733   0.894  17.360 -0.5676  0.4503 -3.3574
 5744TIP3   OH241426   2.579   5.977  12.197 -0.1363  0.6602  0.5874
 5744TIP3    H141427   2.632   6.048  12.234  0.8774 -0.3066  1.0641
 5744TIP3    H241428   2.643   5.922  12.151 -0.8318 -0.1618  0.5861
 5745TIP3   OH241429   4.056   3.497  11.339 -0.4392 -0.0109 -0.1975
 5745TIP3    H141430   4.035   3.553  11.413 -0.1695  1.1468 -0.9631
 5745TIP3    H241431   4.033   3.549  11.262  1.7357 -0.1088 -0.9861
 5746TIP3   OH241432   0.383   4.860  10.461 -0.1152 -0.7083 -0.0954
 5746TIP3    H141433   0.468   4.824  10.489  1.5215  1.2299 -2.1930
 5746TIP3    H241434   0.333   4.783  10.435  1.1299 -1.8945  0.8097
 5747TIP3   OH241435   1.630   2.090  11.889 -0.1278  0.3037 -0.1633
 5747TIP3    H141436   1.692   2.159  11.910 -1.0577  0.9152  0.6682
 5747TIP3    H241437   1.635   2.029  11.963 -0.0042 -0.0248 -0.4375
 5748TIP3   OH241438   7.477   2.570  12.840 -0.1382 -0.2478  0.2515
 5748TIP3    H141439   7.521   2.486  12.822  0.8827 -0.0483  1.6385
 5748TIP3    H241440   7.475   2.576  12.936  2.1087  2.4253  0.2612
 5749TIP3   OH241441   1.924   7.353  11.502  0.1079  0.4710  0.1083
 5749TIP3    H141442   1.830   7.366  11.492  0.1161  0.1560 -0.4042
 5749TIP3    H241443   1.938   7.261  11.479  0.6100  0.6523 -0.3264
 5750TIP3   OH241444   5.882   1.846  12.683  0.4612  0.1365  0.1180
 5750TIP3    H141445   5.903   1.772  12.740 -0.9061 -0.5225 -0.2027
 5750TIP3    H241446   5.948   1.842  12.614 -1.1216 -2.4486 -1.3790
 5751TIP3   OH241447   3.167   7.620  12.127  0.3679  0.2016 -0.3797
 5751TIP3    H141448   3.168   7.684  12.056  1.2898  0.7204  0.0876
 5751TIP3    H241449   3.241   7.644  12.182  0.3602 -0.9049  0.1340
 5752TIP3   OH241450   1.298   7.579  11.314 -0.1047 -0.0989 -0.2705
 5752TIP3    H141451   1.286   7.484  11.309 -0.0644 -0.0793 -0.7954
 5752TIP3    H241452   1.224   7.610  11.366 -0.3662 -0.3698 -0.4798
 5753TIP3   OH241453   1.059   3.936  11.959 -0.2845  0.0674  0.0506
 5753TIP3    H141454   1.004   3.982  11.896 -0.3586  0.7763  0.6157
 5753TIP3    H241455   1.020   3.957  12.044  1.4970  1.5307  0.5642
 5754TIP3   OH241456   5.366   3.477  10.778  0.1884 -0.8478 -0.1042
 5754TIP3    H141457   5.436   3.503  10.838  1.9254 -0.9439 -1.9665
 5754TIP3    H241458   5.388   3.388  10.752  0.3262 -0.3158 -1.9568
 5755TIP3   OH241459   4.994   6.711  11.751  0.1207  0.1723 -0.3732
 5755TIP3    H141460   5.013   6.797  11.788  1.7215 -0.2820 -0.0624
 5755TIP3    H241461   4.950   6.664  11.822 -1.4190  0.9375 -0.7824
 5756TIP3   OH241462   0.812   0.961  10.774 -0.3098  0.0018 -0.1766
 5756TIP3    H141463   0.834   0.894  10.839 -0.0421  0.7947  0.5682
 5756TIP3    H241464   0.866   0.940  10.698 -0.6115 -0.9261 -0.1477
 5757TIP3   OH241465   6.563   6.380  12.136  0.4970  0.5357  0.4233
 5757TIP3    H141466   6.485   6.333  12.167  0.4100  0.4992  0.1537
 5757TIP3    H241467   6.535   6.420  12.054  0.4784  1.3234  0.8080
 5758TIP3   OH241468   1.073   6.782  11.913 -0.6127 -0.4539  0.1220
 5758TIP3    H141469   1.125   6.848  11.867 -0.4534 -0.1996  0.6562
 5758TIP3    H241470   1.072   6.707  11.854  1.9996 -1.2039  0.8827
 5759TIP3   OH241471   4.815   6.583  11.961 -0.3908  0.0463  0.1251
 5759TIP3    H141472   4.830   6.659  12.017 -1.6284  0.7760 -0.4664
 5759TIP3    H241473   4.772   6.520  12.018 -2.1111  0.9774 -0.0445
 5760TIP3   OH241474   1.720   1.337  11.910 -0.3957 -0.0643  0.4606
 5760TIP3    H141475   1.710   1.291  11.993  1.8168  1.2923  1.5998
 5760TIP3    H241476   1.786   1.286  11.863 -0.5721 -0.0279  0.1764
 5761TIP3   OH241477   0.949   7.306  10.659 -0.4855 -0.7458 -0.1028
 5761TIP3    H141478   0.931   7.215  10.637 -1.5544 -0.3556 -0.9913
 5761TIP3    H241479   0.865   7.340  10.691 -0.7166  0.4567 -1.8006
 5762TIP3   OH241480   5.847   2.397  10.878  0.0387  0.0188  0.0102
 5762TIP3    H141481   5.755   2.373  10.866  0.0432  0.4090 -0.8707
 5762TIP3    H241482   5.845   2.477  10.931 -0.1179 -0.0550  0.1158
 5763TIP3   OH241483   1.995   7.433  12.353 -0.3286 -0.6389 -0.5496
 5763TIP3    H141484   2.037   7.437  12.268  0.0114  0.9625 -0.3353
 5763TIP3    H241485   1.910   7.392  12.337 -0.6607  0.5153 -1.8206
 5764TIP3   OH241486   5.162   7.571  10.841 -0.0431  0.5923 -0.4850
 5764TIP3    H141487   5.116   7.613  10.914 -1.5448 -0.6725 -0.6429
 5764TIP3    H241488   5.216   7.503  10.883  0.4744  1.0413 -0.4207
 5765TIP3   OH241489   1.050   0.328  12.831  0.4799  0.3427 -0.0428
 5765TIP3    H141490   1.049   0.233  12.842  0.1885  0.3938  0.4039
 5765TIP3    H241491   0.987   0.345  12.761  1.3249  0.1250 -0.8708
 5766TIP3   OH241492   0.430   1.662  12.133 -0.4304  0.2872 -0.0099
 5766TIP3    H141493   0.489   1.686  12.062 -0.7168  0.0319 -0.3366
 5766TIP3    H241494   0.458   1.573  12.157 -1.0014 -0.0359 -0.5072
 5767TIP3   OH241495   4.544   3.442  10.538 -0.3656  0.5385 -0.5245
 5767TIP3    H141496   4.542   3.385  10.461 -1.0739 -0.4567  0.2003
 5767TIP3    H241497   4.454   3.439  10.573 -0.3944  1.9932 -0.3721
 5768TIP3   OH241498   7.196   2.608  10.857  0.0935  0.2541  0.0092
 5768TIP3    H141499   7.168   2.563  10.777  0.3625 -0.8987  0.5437
 5768TIP3    H241500   7.289   2.623  10.845 -0.0467  0.9272 -0.2811
 5769TIP3   OH241501   5.799   5.487  11.162  0.2252 -0.3200 -0.0873
 5769TIP3    H141502   5.879   5.514  11.207 -1.3082  1.1283  1.9359
 5769TIP3    H241503   5.769   5.411  11.211 -0.1594 -0.2641 -0.2366
 5770TIP3   OH241504   3.764   4.060  11.914 -0.2512  0.3888  0.5311
 5770TIP3    H141505   3.840   4.101  11.873  0.4496 -1.5233 -0.1764
 5770TIP3    H241506   3.689   4.094  11.865  0.3975 -0.0467 -0.8101
 5771TIP3   OH241507   1.859   1.000  10.698  0.3490  0.8861  0.1735
 5771TIP3    H141508   1.826   0.916  10.667 -0.6584  0.7248  1.5992
 5771TIP3    H241509   1.781   1.047  10.728  0.8574  2.4610 -0.8231
 5772TIP3   OH241510   7.648   6.951  11.005  0.0955  0.5568  0.5932
 5772TIP3    H141511   7.732   6.996  10.999 -0.2293  1.0629 -0.4239
 5772TIP3    H241512   7.616   6.947  10.915  0.4532 -2.4268  0.4742
 5773TIP3   OH241513   5.531   1.555  10.962 -0.4005  0.5343  0.7435
 5773TIP3    H141514   5.461   1.494  10.936 -0.2461  0.3380  0.7811
 5773TIP3    H241515   5.606   1.527  10.910  0.0003 -0.0540  1.6096
 5774TIP3   OH241516   2.015   0.415  13.025  0.1468 -0.0828 -0.3768
 5774TIP3    H141517   1.971   0.406  13.109  0.4753 -0.6776 -0.2605
 5774TIP3    H241518   2.099   0.370  13.037  1.4467  2.2281 -0.1170
 5775TIP3   OH241519   0.175   4.425  12.885 -0.0745  0.1285  0.4246
 5775TIP3    H141520   0.182   4.338  12.846 -0.9652  0.0154  0.4844
 5775TIP3    H241521   0.242   4.427  12.953 -0.8372 -0.9729  1.2562
 5776TIP3   OH241522   5.420   6.335  11.686  0.0846 -0.3172 -0.1145
 5776TIP3    H141523   5.336   6.303  11.720 -0.4239 -0.4752 -1.4462
 5776TIP3    H241524   5.463   6.257  11.650 -0.5141  0.1875 -2.0602
 5777TIP3   OH241525   6.777   6.085  12.695  0.0501 -0.3604 -0.4423
 5777TIP3    H141526   6.717   6.148  12.735 -0.9579 -0.3744 -1.8750
 5777TIP3    H241527   6.724   6.006  12.682  0.9921 -1.1409  0.2891
 5778TIP3   OH241528   0.924   1.770  10.785  0.3691 -0.2180 -0.5020
 5778TIP3    H141529   0.890   1.756  10.696  1.4657  1.2817 -1.2113
 5778TIP3    H241530   0.855   1.818  10.830 -0.1671 -0.9252 -0.5586
 5779TIP3   OH241531   3.990   5.978  12.962  0.0456  0.5845 -0.1051
 5779TIP3    H141532   4.076   6.014  12.984 -0.0283  1.4616 -1.1589
 5779TIP3    H241533   4.001   5.943  12.873 -0.3302 -0.5403  0.2775
 5780TIP3   OH241534   5.338   7.030  10.427 -0.0226  0.2328  0.3029
 5780TIP3    H141535   5.402   6.958  10.431 -0.5545 -0.8857 -4.6768
 5780TIP3    H241536   5.387   7.104  10.392 -0.7808  0.2085 -0.8823
 5781TIP3   OH241537   4.935   3.055  13.356 -0.0946  0.5360  0.5706
 5781TIP3    H141538   5.011   3.001  13.333 -1.2685 -0.5722 -0.9102
 5781TIP3    H241539   4.971   3.123  13.413  1.7153 -0.8923  1.2600
 5782TIP3   OH241540   3.021   2.226  12.460  0.9391 -0.7093 -0.1269
 5782TIP3    H141541   3.112   2.252  12.471  0.7471 -0.2652  0.4530
 5782TIP3    H241542   3.000   2.248  12.369  0.8575  0.9546  0.2690
 5783TIP3   OH241543   0.390   5.152  12.224  0.5815  0.3072 -0.4192
 5783TIP3    H141544   0.394   5.099  12.144 -0.3279  0.2801 -0.4575
 5783TIP3    H241545   0.336   5.100  12.284  0.7528  0.6079  0.0023
 5784TIP3   OH241546   0.209   1.851  12.948  0.3171  0.4321 -0.1800
 5784TIP3    H141547   0.257   1.792  12.889 -0.3718 -0.0425 -0.2881
 5784TIP3    H241548   0.236   1.824  13.036  1.1261  0.9460 -0.2605
 5785TIP3   OH241549   7.607   3.780  11.068  0.3605  0.2052 -0.0233
 5785TIP3    H141550   7.512   3.767  11.061  0.1597  2.0051 -1.4290
 5785TIP3    H241551   7.643   3.731  10.994  0.2284  1.7495 -1.1600
 5786TIP3   OH241552   4.055   5.858  11.554  0.6207 -0.2230 -0.1466
 5786TIP3    H141553   4.149   5.861  11.571  0.8811 -1.1395 -1.2416
 5786TIP3    H241554   4.030   5.949  11.539  1.0623  0.1794  1.4354
 5787TIP3   OH241555   7.012   5.061  11.487 -1.0299 -0.1294 -0.1753
 5787TIP3    H141556   6.966   5.102  11.413 -0.3014  0.0774 -0.5247
 5787TIP3    H241557   7.100   5.098  11.484 -0.8501 -0.4828  0.5126
 5788TIP3   OH241558   6.137   3.720  11.931  0.2719 -0.0569  0.0062
 5788TIP3    H141559   6.116   3.658  11.861 -0.9491 -1.1396  1.2825
 5788TIP3    H241560   6.233   3.723  11.932  0.4845 -3.4302  1.1126
 5789TIP3   OH241561   5.135   7.263  11.544 -0.1526 -0.6019 -0.2396
 5789TIP3    H141562   5.217   7.217  11.558  0.0398 -0.1336  0.1991
 5789TIP3    H241563   5.095   7.218  11.469  1.4429  0.4431 -1.7979
 5790TIP3   OH241564   1.058   2.767  10.697 -0.4197 -0.3372 -0.1781
 5790TIP3    H141565   1.083   2.734  10.611 -0.7531  2.2325 -1.3457
 5790TIP3    H241566   0.964   2.750  10.702 -0.0929 -2.1144  0.4931
 5791TIP3   OH241567   0.306   6.607  12.312  0.0300 -0.1615  0.2255
 5791TIP3    H141568   0.225   6.630  12.358 -0.7877 -1.0358 -0.7034
 5791TIP3    H241569   0.276   6.576  12.226  1.4637  0.8578 -0.6812
 5792TIP3   OH241570   3.860   2.377  11.617 -0.4043  0.0367  0.3266
 5792TIP3    H141571   3.852   2.461  11.572  0.2528  0.0395  0.2042
 5792TIP3    H241572   3.781   2.329  11.592 -1.4330  1.0817  1.4074
 5793TIP3   OH241573   7.231   7.266  11.025 -0.1090  0.0939 -0.4840
 5793TIP3    H141574   7.307   7.322  11.010 -0.0170  0.0956 -0.0347
 5793TIP3    H241575   7.268   7.178  11.034 -0.2917 -0.1183 -1.6190
 5794TIP3   OH241576   6.463   3.529  10.786  0.1094 -0.0201  0.1223
 5794TIP3    H141577   6.415   3.611  10.774 -0.7521 -0.5696 -0.2310
 5794TIP3    H241578   6.552   3.557  10.808 -0.2540  1.0089  0.3502
 5795TIP3   OH241579   3.858   5.055  10.870  0.1089 -0.1365  0.2089
 5795TIP3    H141580   3.893   5.028  10.955  0.6403  1.5002  0.5320
 5795TIP3    H241581   3.870   4.977  10.815  0.5580 -0.9420  1.3801
 5796TIP3   OH241582   7.305   2.667  12.562 -0.4117 -0.2026 -0.3040
 5796TIP3    H141583   7.313   2.670  12.658  2.6480  0.8317 -0.4544
 5796TIP3    H241584   7.245   2.739  12.541 -0.7567 -0.1432  0.8264
 5797TIP3   OH241585   1.644   0.853  11.696  0.2626 -0.1469  0.0490
 5797TIP3    H141586   1.635   0.929  11.754  1.2341  1.0429 -1.2764
 5797TIP3    H241587   1.574   0.794  11.722  0.3093  0.6051  2.0241
 5798TIP3   OH241588   2.434   6.196  11.758 -0.4203  0.6380 -0.3947
 5798TIP3    H141589   2.496   6.126  11.777 -0.5799  0.1608 -1.5700
 5798TIP3    H241590   2.477   6.275  11.793  0.9374  0.3454 -1.3236
 5799TIP3   OH241591   0.783   3.768  11.162 -0.3185  0.1021  0.3145
 5799TIP3    H141592   0.697   3.738  11.193 -0.3874 -1.1164 -0.9220
 5799TIP3    H241593   0.809   3.701  11.099  1.7843  0.1843  1.0258
 5800TIP3   OH241594   1.685   3.755  11.007 -0.3046  0.1803  0.0235
 5800TIP3    H141595   1.763   3.768  10.953 -0.0251  0.7017  0.5346
 5800TIP3    H241596   1.612   3.782  10.953 -0.1608 -0.5790 -0.5643
 5801TIP3   OH241597   4.566   5.976  12.242  0.1023 -0.1529 -0.0714
 5801TIP3    H141598   4.639   5.966  12.303 -0.9937  1.5602  1.6309
 5801TIP3    H241599   4.539   5.887  12.222  1.5798 -0.7796  0.5718
 5802TIP3   OH241600   2.093   0.626  11.347  0.3080 -0.0990 -0.4431
 5802TIP3    H141601   2.069   0.713  11.316  0.7207 -0.1795 -1.0075
 5802TIP3    H241602   2.016   0.572  11.327  0.1927  0.0595 -0.4328
 5803TIP3   OH241603   2.556   1.421  11.543 -0.6990 -0.3382 -0.0837
 5803TIP3    H141604   2.463   1.412  11.562 -1.1431  0.4211 -1.7279
 5803TIP3    H241605   2.576   1.512  11.566 -0.7071 -0.0916 -1.0167
 5804TIP3   OH241606   0.549   1.000  11.751  0.5441 -0.1695 -0.6088
 5804TIP3    H141607   0.580   0.961  11.833  1.0646 -0.9828 -1.1657
 5804TIP3    H241608   0.597   1.082  11.744 -0.3942  0.4987  0.4776
 5805TIP3   OH241609   6.856   1.610  11.455 -0.0038  0.1763 -0.0399
 5805TIP3    H141610   6.787   1.586  11.516 -0.3191 -0.7729 -0.7497
 5805TIP3    H241611   6.810   1.655  11.384  0.3904  1.4949  0.5070
 5806TIP3   OH241612   7.013   0.032  10.958  0.7737  0.1158  0.1572
 5806TIP3    H141613   7.085   0.081  10.917  0.3192  0.8953  0.2596
 5806TIP3    H241614   7.049   0.002  11.041  1.5642 -1.1004 -0.5894
 5807TIP3   OH241615   4.710   0.122  13.311 -0.7122  0.8528 -0.6269
 5807TIP3    H141616   4.787   0.105  13.364 -0.5837  1.4592 -0.6179
 5807TIP3    H241617   4.694   0.039  13.265 -1.1505  0.1406  0.7569
 5808TIP3   OH241618   3.124   6.219  12.063 -0.0184  0.3810  0.2250
 5808TIP3    H141619   3.195   6.240  12.003  0.8073  0.9372  1.3507
 5808TIP3    H241620   3.132   6.125  12.078 -0.4132  0.1849 -0.7390
 5809TIP3   OH241621   7.245   2.435  12.348  0.2758 -0.0283  0.3607
 5809TIP3    H141622   7.321   2.383  12.373  0.6940 -0.3989 -1.5187
 5809TIP3    H241623   7.247   2.510  12.408  2.2579  0.0865  0.2311
 5810TIP3   OH241624   3.405   4.395  12.138  1.1906  0.2693 -0.7945
 5810TIP3    H141625   3.494   4.372  12.110  0.2541 -1.2743 -2.7323
 5810TIP3    H241626   3.352   4.389  12.059 -1.2157 -2.0871  0.8065
 5811TIP3   OH241627   4.051   3.907  12.100 -0.0419  0.4779 -0.2500
 5811TIP3    H141628   3.995   3.859  12.039  0.3726 -1.2773  0.6869
 5811TIP3    H241629   3.990   3.949  12.161 -0.3811 -0.3281 -0.0290
 5812TIP3   OH241630   2.978   2.782  12.780 -0.2423  0.4318 -0.4419
 5812TIP3    H141631   2.984   2.735  12.697 -1.4665 -0.5526 -0.0135
 5812TIP3    H241632   3.066   2.780  12.816 -0.4683 -2.7486  0.1727
 5813TIP3   OH241633   1.509   7.449  10.937  0.3460 -0.2088 -0.5893
 5813TIP3    H141634   1.483   7.418  10.851  0.1321  1.3731 -1.1223
 5813TIP3    H241635   1.570   7.382  10.970 -0.0088 -1.1028 -1.7120
 5814TIP3   OH241636   5.864   2.995  11.437  0.3952 -0.3810  0.1602
 5814TIP3    H141637   5.809   2.973  11.362  1.9940 -0.9770 -0.8959
 5814TIP3    H241638   5.842   3.086  11.457 -0.8012 -0.5391 -0.3620
 5815TIP3   OH241639   4.643   6.885  10.837 -0.6457  0.3962  0.0562
 5815TIP3    H141640   4.654   6.929  10.753 -1.2108  0.3231 -0.0609
 5815TIP3    H241641   4.705   6.928  10.895  0.9413 -0.6526 -0.7968
 5816TIP3   OH241642   2.107   0.716  10.799  0.4414 -0.0705  0.5123
 5816TIP3    H141643   2.113   0.779  10.871 -0.8243  1.1533 -0.3680
 5816TIP3    H241644   2.013   0.700  10.790  0.7676 -2.6255  1.0980
 5817TIP3   OH241645   2.828   2.197  12.655  0.4312  0.0101 -0.1043
 5817TIP3    H141646   2.747   2.148  12.641 -0.0720  0.8540 -0.2413
 5817TIP3    H241647   2.886   2.169  12.584  0.1206 -0.3289 -0.2259
 5818TIP3   OH241648   5.816   7.480  10.855  0.0840  0.7732  0.0149
 5818TIP3    H141649   5.783   7.483  10.765  1.1722 -2.0296 -0.5892
 5818TIP3    H241650   5.883   7.548  10.858 -0.1383  1.0858 -1.2167
 5819TIP3   OH241651   5.300   3.362  11.877 -0.8514  0.6437 -0.1800
 5819TIP3    H141652   5.320   3.441  11.828 -1.1423  0.4740 -0.5750
 5819TIP3    H241653   5.251   3.307  11.816 -0.2591 -0.0348 -0.0688
 5820TIP3   OH241654   4.264   4.126  11.439  0.5155  0.2632 -0.6231
 5820TIP3    H141655   4.355   4.115  11.469  0.2258 -0.4470  0.0514
 5820TIP3    H241656   4.215   4.143  11.519  0.3482  2.9483 -1.2097
 5821TIP3   OH241657   3.203   4.127  12.761  0.1469 -0.1156 -0.2517
 5821TIP3    H141658   3.254   4.129  12.841  0.5955  2.2975 -0.5256
 5821TIP3    H241659   3.130   4.186  12.778 -0.1439 -0.1277 -1.3826
 5822TIP3   OH241660   0.637   6.506  10.926 -0.6231  0.0428 -0.0951
 5822TIP3    H141661   0.669   6.434  10.980 -0.2231  0.4821  0.2508
 5822TIP3    H241662   0.542   6.501  10.934 -0.6533 -1.0392 -0.8390
 5823TIP3   OH241663   6.193   5.523  11.069 -0.0344 -0.5756  0.3216
 5823TIP3    H141664   6.201   5.568  10.985  2.2274 -0.5887  0.4519
 5823TIP3    H241665   6.166   5.434  11.046 -1.8069  0.0431 -0.1567
 5824TIP3   OH241666   4.216   2.375  11.120 -0.3297  0.0096  0.4471
 5824TIP3    H141667   4.159   2.330  11.058  1.1426 -1.7386  0.2797
 5824TIP3    H241668   4.274   2.428  11.065 -0.3561  0.0639  0.4718
 5825TIP3   OH241669   1.975   4.835  11.325 -0.0055 -1.0205 -0.1835
 5825TIP3    H141670   1.926   4.894  11.383  1.0255 -0.3671  0.0387
 5825TIP3    H241671   2.047   4.803  11.378  0.2106 -1.4354 -0.7203
 5826TIP3   OH241672   6.342   7.085  11.546  0.0104  0.1143 -0.1009
 5826TIP3    H141673   6.360   7.032  11.468  0.1515 -0.5997  0.4095
 5826TIP3    H241674   6.419   7.143  11.553  1.0642 -1.3168  0.7303
 5827TIP3   OH241675   2.881   2.999  11.148 -0.6249  0.6493 -0.4120
 5827TIP3    H141676   2.892   3.024  11.056  1.4989 -1.4340 -0.8261
 5827TIP3    H241677   2.849   2.909  11.145  0.3928  0.2181  0.8696
 5828TIP3   OH241678   2.351   4.631  10.866  0.4569 -0.3254 -0.0779
 5828TIP3    H141679   2.270   4.682  10.864  1.1953  1.3943  3.6312
 5828TIP3    H241680   2.404   4.668  10.796 -0.4251  1.5763  0.1736
 5829TIP3   OH241681   7.083   2.691  11.376 -0.0926  0.4737  0.0041
 5829TIP3    H141682   7.038   2.659  11.298 -1.0963 -1.1824  1.1891
 5829TIP3    H241683   7.033   2.654  11.449  3.0025 -1.2028  1.4339
 5830TIP3   OH241684   4.864   3.557  10.395  0.4928 -0.1980  0.2297
 5830TIP3    H141685   4.872   3.472  10.438  0.4772  0.2627  1.1612
 5830TIP3    H241686   4.792   3.545  10.333  0.9636 -1.0665 -0.1754
 5831TIP3   OH241687   0.936   1.985  13.356 -0.2058 -0.2705 -0.1170
 5831TIP3    H141688   0.915   2.019  13.443  0.6656 -2.4550  1.0293
 5831TIP3    H241689   0.964   1.895  13.372  1.2656 -0.3155 -2.5331
 5832TIP3   OH241690   5.224   2.855  11.487 -0.2673  0.1962 -0.0468
 5832TIP3    H141691   5.319   2.843  11.486 -0.3796 -0.9217  0.6910
 5832TIP3    H241692   5.202   2.873  11.395  0.6864  0.8552 -0.1699
 5833TIP3   OH241693   5.786   7.139  12.060 -0.5096  0.3909  0.5523
 5833TIP3    H141694   5.767   7.209  12.123  0.3063  1.0700  0.0619
 5833TIP3    H241695   5.878   7.151  12.039 -0.9937  0.8112 -1.5298
 5834TIP3   OH241696   3.749   4.352  11.561  0.2360 -0.3068 -0.3007
 5834TIP3    H141697   3.661   4.388  11.575 -0.2591 -1.5663 -0.0760
 5834TIP3    H241698   3.794   4.366  11.645 -0.7990 -2.4804  0.6783
 5835TIP3   OH241699   5.434   3.214  10.635 -0.3951  0.0557 -0.4301
 5835TIP3    H141700   5.524   3.236  10.608  0.5335 -1.8824  0.8517
 5835TIP3    H241701   5.379   3.248  10.565  1.4837 -0.1895 -2.1251
 5836TIP3   OH241702   3.557   6.774  11.250 -0.3815 -0.6309  0.0419
 5836TIP3    H141703   3.543   6.689  11.292  0.7013 -0.4090  0.9056
 5836TIP3    H241704   3.496   6.833  11.294 -1.5301 -1.0375 -0.9331
 5837TIP3   OH241705   7.368   1.201  12.148  0.3210  0.4239 -0.3264
 5837TIP3    H141706   7.390   1.224  12.058  1.0364  0.0093 -0.2631
 5837TIP3    H241707   7.336   1.283  12.186  2.7060  1.3556 -0.1370
 5838TIP3   OH241708   5.780   3.650  11.249 -0.1962  0.2213 -0.0666
 5838TIP3    H141709   5.811   3.631  11.338  0.8330 -0.6694 -0.5901
 5838TIP3    H241710   5.740   3.568  11.220  0.4074  0.1807 -0.7954
 5839TIP3   OH241711   4.657   1.943  12.292  0.3138  0.1845 -0.1493
 5839TIP3    H141712   4.599   1.873  12.263  1.0897 -0.4178 -0.2689
 5839TIP3    H241713   4.744   1.918  12.260  0.4409  1.7377 -1.1366
 5840TIP3   OH241714   1.782   6.895  10.594 -0.7288  0.0969 -0.0735
 5840TIP3    H141715   1.832   6.932  10.521 -2.2254  2.6748  0.1136
 5840TIP3    H241716   1.785   6.962  10.662 -3.9024  0.1468  0.1696
 5841TIP3   OH241717   1.001   0.978  11.936 -0.2376 -0.2178 -0.4620
 5841TIP3    H141718   1.092   0.982  11.906  0.5981 -1.5238  1.7156
 5841TIP3    H241719   0.965   0.901  11.892  0.1218 -0.4927 -0.2777
 5842TIP3   OH241720   2.589   3.257  11.623  0.0094  0.2815 -0.0708
 5842TIP3    H141721   2.533   3.243  11.547 -0.1750 -0.0310  0.1238
 5842TIP3    H241722   2.638   3.175  11.631  0.2644  0.4363 -0.0487
 5843TIP3   OH241723   1.729   6.804  11.977  0.3392 -0.1654 -0.4033
 5843TIP3    H141724   1.713   6.805  11.883 -1.3279  0.9159 -0.1435
 5843TIP3    H241725   1.811   6.853  11.988 -0.0605  0.7042 -1.1928
 5844TIP3   OH241726   6.137   3.413  11.411  0.1385  0.3628 -0.1346
 5844TIP3    H141727   6.196   3.402  11.485 -2.3902  0.4889  2.0670
 5844TIP3    H241728   6.085   3.332  11.410 -1.3455  1.2813 -0.3171
 5845TIP3   OH241729   2.722   1.062  12.664 -0.1045 -0.4512  0.3475
 5845TIP3    H141730   2.725   1.157  12.652  0.1708 -0.6207 -1.2228
 5845TIP3    H241731   2.666   1.049  12.740  0.0036  0.9680  0.7072
 5846TIP3   OH241732   4.940   5.372  12.227  0.6404 -0.4477 -0.3798
 5846TIP3    H141733   4.998   5.303  12.195 -0.1993 -1.4632  0.2222
 5846TIP3    H241734   4.852   5.341  12.206  0.1733 -0.2061  1.0780
 5847TIP3   OH241735   7.358   6.655  13.072  0.2231 -0.4296  0.0483
 5847TIP3    H141736   7.412   6.728  13.039  0.6071 -0.7340 -0.0011
 5847TIP3    H241737   7.400   6.577  13.038 -0.2413 -0.6742  0.0316
 5848TIP3   OH241738   2.324   4.765  11.993  0.0812  0.2445  0.2385
 5848TIP3    H141739   2.268   4.833  11.958  1.5775  0.0443 -2.8486
 5848TIP3    H241740   2.364   4.804  12.070 -0.3144  2.2743 -0.5300
 5849TIP3   OH241741   2.678   5.595  12.807 -0.1391 -0.2794  0.1712
 5849TIP3    H141742   2.761   5.610  12.852  0.3433 -0.8401 -0.5069
 5849TIP3    H241743   2.694   5.624  12.717 -0.0343 -2.1590 -0.4708
 5850TIP3   OH241744   4.011   6.984  11.142  0.1445  0.7304  0.2960
 5850TIP3    H141745   3.939   7.043  11.164 -1.0464  0.3015 -2.1517
 5850TIP3    H241746   4.085   7.042  11.124 -0.4496  1.3625 -0.1477
 5851TIP3   OH241747   4.727   1.457  18.878  0.4686 -0.8590  0.1551
 5851TIP3    H141748   4.694   1.389  18.935  0.9098 -0.1776  1.2634
 5851TIP3    H241749   4.822   1.449  18.883  0.5091 -0.9360 -0.6631
 5852TIP3   OH241750   6.560   2.077  10.667 -0.4118  0.3387  0.0520
 5852TIP3    H141751   6.565   2.032  10.583 -3.0317 -0.2752  0.1329
 5852TIP3    H241752   6.523   2.163  10.645 -0.5045  0.4175  0.5089
 5853TIP3   OH241753   5.892   1.684  10.923  0.2558 -0.4577  0.1126
 5853TIP3    H141754   5.823   1.629  10.886 -0.6773  0.2171  0.7905
 5853TIP3    H241755   5.938   1.720  10.847 -1.8173  1.1573 -0.4576
 5854TIP3   OH241756   2.772   0.700  10.880 -0.4499 -0.4231 -0.3147
 5854TIP3    H141757   2.680   0.708  10.857 -0.3836  0.4140 -0.3255
 5854TIP3    H241758   2.801   0.790  10.896  0.0451 -0.7883  0.9583
 5855TIP3   OH241759   5.845   4.434  11.975  0.3036 -0.5822 -0.2703
 5855TIP3    H141760   5.753   4.422  11.999 -0.1951 -1.1771 -2.2665
 5855TIP3    H241761   5.873   4.348  11.946  0.2959  0.3386 -3.3457
 5856TIP3   OH241762   2.664   6.244  12.197 -0.1998 -0.1767  0.2523
 5856TIP3    H141763   2.599   6.291  12.144  0.1823 -0.4037 -0.4267
 5856TIP3    H241764   2.745   6.251  12.147  0.3648  0.2866  1.1930
 5857TIP3   OH241765   0.126   7.173  12.449 -0.2316  0.1158  0.6704
 5857TIP3    H141766   0.054   7.231  12.474 -1.6376 -0.9788 -0.5938
 5857TIP3    H241767   0.083   7.088  12.433  1.2580 -0.4362 -0.6629
 5858TIP3   OH241768   2.600   3.960  10.687  0.0350 -0.3440 -0.1665
 5858TIP3    H141769   2.505   3.960  10.675  0.0059 -0.6536  0.0486
 5858TIP3    H241770   2.615   4.021  10.759  0.1106  0.6309 -0.9846
 5859TIP3   OH241771   6.058   0.948  12.264 -0.2557 -0.2886 -0.3100
 5859TIP3    H141772   6.031   1.015  12.201 -0.3515 -0.4573 -0.4513
 5859TIP3    H241773   6.017   0.975  12.347  0.7837  0.5348 -0.0527
 5860TIP3   OH241774   4.472   3.225  12.284 -0.2515 -0.5199  0.0874
 5860TIP3    H141775   4.514   3.229  12.198  0.2812  0.2463  0.3735
 5860TIP3    H241776   4.504   3.145  12.324 -1.4455 -1.5350 -0.8972
 5861TIP3   OH241777   2.277   6.179  12.580 -1.4036 -0.2932  0.0118
 5861TIP3    H141778   2.259   6.223  12.663  0.2029  0.8710 -0.2154
 5861TIP3    H241779   2.255   6.244  12.513 -0.9971 -0.5914 -0.4155
 5862TIP3   OH241780   1.614   5.098  11.299 -0.2659  0.0790 -0.7714
 5862TIP3    H141781   1.575   5.020  11.338  0.0207 -0.2673 -1.1619
 5862TIP3    H241782   1.605   5.166  11.365  1.4618 -0.8266  0.4910
 5863TIP3   OH241783   1.313   7.298  11.309 -0.3019 -0.0485  0.5945
 5863TIP3    H141784   1.243   7.314  11.373 -2.5358 -1.4558 -1.3604
 5863TIP3    H241785   1.288   7.217  11.265  3.5230 -1.6803  0.9477
 5864TIP3   OH241786   1.988   7.394  13.202 -0.2727 -0.6691 -0.1453
 5864TIP3    H141787   2.030   7.308  13.202 -0.6631 -0.8884  1.3788
 5864TIP3    H241788   2.060   7.456  13.189  0.2079 -1.1550  0.1599
 5865TIP3   OH241789   0.890   3.976  11.296 -0.1173 -0.0437 -0.3319
 5865TIP3    H141790   0.882   4.057  11.246 -0.7715 -0.1261 -0.3793
 5865TIP3    H241791   0.869   3.907  11.232 -1.4958 -0.1201  0.1560
 5866TIP3   OH241792   3.016   5.423  10.957 -0.0918  0.1065  0.5854
 5866TIP3    H141793   3.065   5.478  10.896  0.7988 -2.0923 -0.8136
 5866TIP3    H241794   3.070   5.345  10.968 -1.7181 -0.9309  1.7320
 5867TIP3   OH241795   5.661   3.548  12.107 -0.0726  0.4415 -0.0225
 5867TIP3    H141796   5.585   3.527  12.054  0.5693  0.6890 -1.0746
 5867TIP3    H241797   5.628   3.608  12.174 -0.9921 -0.2753  0.1917
 5868TIP3   OH241798   1.657   0.467  11.423 -0.1331  0.3425 -0.6087
 5868TIP3    H141799   1.715   0.541  11.440  0.7528 -0.6867  1.1248
 5868TIP3    H241800   1.688   0.431  11.340  3.3767 -1.5353  1.2639
 5869TIP3   OH241801   5.023   3.520  11.920  0.2379 -0.0783  0.3866
 5869TIP3    H141802   5.042   3.520  11.826  0.8371  1.1329  0.4795
 5869TIP3    H241803   5.107   3.497  11.960  0.4732  1.2488  0.6773
 5870TIP3   OH241804   4.973   3.751  12.557  0.4918 -0.2708 -0.0829
 5870TIP3    H141805   4.980   3.830  12.611 -1.0623  0.8780 -1.4202
 5870TIP3    H241806   4.881   3.724  12.567  1.0419 -2.0324  0.4646
 5871TIP3   OH241807   6.151   0.012  11.335 -0.3821 -0.4278 -0.3631
 5871TIP3    H141808   6.131   0.034  11.244  1.7722 -2.1463 -1.3601
 5871TIP3    H241809   6.096  -0.063  11.354 -1.4005  0.4062  0.0491
 5872TIP3   OH241810   7.486   6.798  11.183 -0.3487 -0.4695 -0.0314
 5872TIP3    H141811   7.515   6.790  11.274 -0.4900  1.4612  0.2154
 5872TIP3    H241812   7.559   6.840  11.138 -1.4719  1.5035 -0.0935
 5873TIP3   OH241813   0.839   6.049  11.778 -0.2427  0.4003  0.2542
 5873TIP3    H141814   0.886   5.993  11.840 -2.0086  0.0634  1.3541
 5873TIP3    H241815   0.850   6.004  11.693 -0.5782 -0.9667  0.9006
 5874TIP3   OH241816   2.182   7.414  11.565 -0.0563  0.1721  0.2772
 5874TIP3    H141817   2.177   7.354  11.639 -1.7397  0.7749  0.6896
 5874TIP3    H241818   2.093   7.422  11.533  0.1066  2.3581  0.1801
 5875TIP3   OH241819   4.204   1.681  11.630 -0.3020 -0.1391  0.5231
 5875TIP3    H141820   4.281   1.736  11.621 -1.5724  1.7885  0.8813
 5875TIP3    H241821   4.163   1.708  11.712 -2.0372 -0.1820 -0.2717
 5876TIP3   OH241822   1.257   0.503  10.824 -0.5776 -0.1581 -0.0189
 5876TIP3    H141823   1.177   0.473  10.782 -0.4692 -1.0873  0.4061
 5876TIP3    H241824   1.234   0.510  10.917 -0.0290 -0.9938  0.1966
 5877TIP3   OH241825   1.367   5.285  12.289 -0.3225 -0.6113 -0.0385
 5877TIP3    H141826   1.404   5.231  12.359 -0.2459  0.1360  0.5130
 5877TIP3    H241827   1.289   5.325  12.329 -0.4933 -0.4722 -0.5047
 5878TIP3   OH241828   7.304   4.336  12.786  0.3111 -0.1896 -0.2735
 5878TIP3    H141829   7.382   4.325  12.841  0.2422 -0.6382 -0.2586
 5878TIP3    H241830   7.339   4.345  12.697  0.4076  0.1997 -0.1960
 5879TIP3   OH241831   7.042   3.973  10.742 -0.4651 -0.0037 -0.3066
 5879TIP3    H141832   7.041   4.024  10.823 -2.6105  0.0654 -0.3234
 5879TIP3    H241833   6.965   4.003  10.694 -1.1041 -2.3573 -0.8786
 5880TIP3   OH241834   1.278   0.937  11.806  0.0104 -0.0115  0.0166
 5880TIP3    H141835   1.253   0.957  11.716 -1.6748 -0.2479  0.3929
 5880TIP3    H241836   1.330   0.857  11.799 -0.7826 -0.4806 -0.6849
 5881TIP3   OH241837   5.480   1.080  10.755 -0.2289 -0.4111 -0.8310
 5881TIP3    H141838   5.444   1.004  10.711 -0.0809 -0.0192 -1.6398
 5881TIP3    H241839   5.519   1.133  10.685 -1.2451  0.9145 -0.4253
 5882TIP3   OH241840   6.722   5.990  11.735  0.0966 -0.5245 -0.0205
 5882TIP3    H141841   6.718   5.960  11.644 -2.2001  0.1571 -0.2061
 5882TIP3    H241842   6.676   5.923  11.785 -1.3002  0.5118  0.1607
 5883TIP3   OH241843   0.770   6.525  13.041  0.1489 -0.0808  0.0668
 5883TIP3    H141844   0.696   6.528  12.980  1.2641  0.8553 -1.3000
 5883TIP3    H241845   0.752   6.595  13.104  1.6163  2.8613 -2.4910
 5884TIP3   OH241846   6.673   4.775  11.110  0.0775  0.5289 -0.2142
 5884TIP3    H141847   6.676   4.796  11.016  0.2437 -0.2971 -0.4019
 5884TIP3    H241848   6.632   4.689  11.114  0.2059  0.4935  0.4630
 5885TIP3   OH241849   7.217   4.506  11.775 -0.0852  0.3546  0.1567
 5885TIP3    H141850   7.133   4.500  11.819 -0.9558 -0.3505 -1.5188
 5885TIP3    H241851   7.217   4.592  11.733  0.8832  1.1657  1.7292
 5886TIP3   OH241852   4.668   4.854  12.082  0.1045 -0.7596  0.1451
 5886TIP3    H141853   4.589   4.904  12.062 -0.1574 -0.8635  0.8818
 5886TIP3    H241854   4.639   4.762  12.082  0.6275 -0.9512 -1.4202
 5887TIP3   OH241855   4.762   6.084  11.777 -0.2358  0.3432  0.1782
 5887TIP3    H141856   4.773   6.097  11.871  0.3268 -1.1968  0.3474
 5887TIP3    H241857   4.734   6.170  11.745 -0.9884  0.7608  1.8168
 5888TIP3   OH241858   5.211   7.111  12.939 -0.4447  0.5009 -0.6111
 5888TIP3    H141859   5.197   7.190  12.992  0.6656 -0.2649  0.9094
 5888TIP3    H241860   5.145   7.049  12.970 -0.1811  0.2522 -0.5380
 5889TIP3   OH241861   6.109   3.161  11.700  0.2875  0.2145 -0.0155
 5889TIP3    H141862   6.080   3.101  11.768  1.7648  1.2036  1.5687
 5889TIP3    H241863   6.109   3.109  11.620 -0.1212 -1.3927  0.9921
 5890TIP3   OH241864   1.899   5.867  11.355  0.2707 -0.4114  0.4474
 5890TIP3    H141865   1.901   5.831  11.444 -0.6211  0.8755  1.0174
 5890TIP3    H241866   1.832   5.935  11.358  0.0747 -0.4836 -1.2803
 5891TIP3   OH241867   7.336   1.852  10.746  0.4717  0.1042  0.4889
 5891TIP3    H141868   7.346   1.800  10.667 -1.6957 -0.1222  0.3060
 5891TIP3    H241869   7.270   1.805  10.798 -0.4219  1.8347  0.9974
 5892TIP3   OH241870   1.898   6.201  12.190  0.3596  0.0136  0.3958
 5892TIP3    H141871   1.973   6.167  12.238 -0.3267 -0.2143  1.3399
 5892TIP3    H241872   1.824   6.147  12.220 -0.1830  0.2108 -0.5304
 5893TIP3   OH241873   1.772   2.448  12.213 -0.7217  0.3052 -0.3063
 5893TIP3    H141874   1.770   2.506  12.289 -1.7266  0.4679 -0.4368
 5893TIP3    H241875   1.683   2.453  12.177 -0.9094 -1.5384 -0.1655
 5894TIP3   OH241876   5.302   2.269  10.907 -0.1239 -0.1488  0.6308
 5894TIP3    H141877   5.229   2.207  10.896  1.3064 -1.3959 -3.8436
 5894TIP3    H241878   5.262   2.345  10.949 -3.0822 -2.1710  1.8720
 5895TIP3   OH241879   0.409   1.109  11.219 -0.1056  0.2792 -0.3393
 5895TIP3    H141880   0.363   1.143  11.142 -0.6418  2.4535  0.8558
 5895TIP3    H241881   0.349   1.045  11.256 -0.0106 -0.5030 -1.4852
 5896TIP3   OH241882   1.105   3.646  11.818 -0.3336  0.4784 -0.5676
 5896TIP3    H141883   1.095   3.720  11.878 -0.1413  0.0639 -0.0078
 5896TIP3    H241884   1.030   3.652  11.759 -2.2348 -0.7648  1.5415
 5897TIP3   OH241885   0.309   2.994  10.614  0.6122  0.4200 -0.3064
 5897TIP3    H141886   0.220   3.019  10.587  0.2869  0.3353  0.6506
 5897TIP3    H241887   0.350   2.961  10.534 -1.2792 -2.5690 -0.2001
 5898TIP3   OH241888   5.996   6.860  11.511 -0.2961  0.4407 -0.3130
 5898TIP3    H141889   6.051   6.828  11.439 -1.9654  0.2063 -1.5599
 5898TIP3    H241890   5.986   6.784  11.568  2.7749  1.1812  1.4215
 5899TIP3   OH241891   5.672   2.141  11.544  0.2270 -0.3352  0.3263
 5899TIP3    H141892   5.731   2.077  11.584 -0.5687 -1.6261 -0.4800
 5899TIP3    H241893   5.684   2.129  11.450  0.7818  1.4216  0.1413
 5900TIP3   OH241894   6.563   0.552  11.843  0.4765 -0.3883  0.3491
 5900TIP3    H141895   6.582   0.546  11.937  1.1672 -2.4850  0.1262
 5900TIP3    H241896   6.564   0.461  11.813 -3.8735 -0.2337 -0.9200
 5901TIP3   OH241897   4.042   3.572  10.653  0.6185  0.0453 -0.0793
 5901TIP3    H141898   4.067   3.580  10.745 -2.5833 -0.5947  0.9980
 5901TIP3    H241899   4.005   3.484  10.646 -0.1697  0.4607 -1.7156
 5902TIP3   OH241900   6.464   4.215  11.503 -0.1664  0.0372 -0.0266
 5902TIP3    H141901   6.556   4.196  11.484 -0.5028 -0.0389 -1.6862
 5902TIP3    H241902   6.423   4.129  11.513  0.1959  0.0674  2.2434
 5903TIP3   OH241903   0.082   5.224  10.683  0.9233  0.1608  0.4773
 5903TIP3    H141904   0.177   5.216  10.695  1.0284  0.0560 -0.3786
 5903TIP3    H241905   0.071   5.249  10.592  0.1129 -0.0597  0.5054
 5904TIP3   OH241906   1.940   1.566  12.736 -0.3894  0.3684  0.4227
 5904TIP3    H141907   1.916   1.649  12.777 -0.0912 -0.1081  1.6034
 5904TIP3    H241908   1.858   1.518  12.728 -0.3907  0.2813  0.9059
 5905TIP3   OH241909   7.244   0.935  11.348  0.2385  0.2382 -0.5256
 5905TIP3    H141910   7.300   0.966  11.419 -0.2959  0.8966 -0.3732
 5905TIP3    H241911   7.304   0.910  11.278  1.0018 -3.2665  1.1597
 5906TIP3   OH241912   6.332   3.485  12.264  0.0759  0.2583 -0.3551
 5906TIP3    H141913   6.246   3.510  12.231 -0.1978  0.5402  0.5246
 5906TIP3    H241914   6.381   3.455  12.187  0.1879  2.8606 -1.4087
 5907TIP3   OH241915   2.211   0.930  11.844  0.4331 -0.3254  0.3338
 5907TIP3    H141916   2.306   0.930  11.840  0.4773 -2.3973  0.2725
 5907TIP3    H241917   2.190   0.878  11.922 -0.6404  0.0128  0.2845
 5908TIP3   OH241918   6.141   3.724  12.377 -0.4091  0.0061 -0.4124
 5908TIP3    H141919   6.101   3.697  12.460 -1.9096  1.1560 -0.7071
 5908TIP3    H241920   6.235   3.729  12.396 -0.7882  1.0201  1.4750
 5909TIP3   OH241921   1.611   2.266  11.476 -0.3405 -0.5015 -0.0080
 5909TIP3    H141922   1.589   2.359  11.471 -0.6543 -0.3342  3.0770
 5909TIP3    H241923   1.560   2.233  11.550  0.3737 -2.9753 -0.5266
 5910TIP3   OH241924   3.354   4.540  10.764 -0.2222  0.1407 -0.3090
 5910TIP3    H141925   3.433   4.581  10.731 -0.4590  2.2622  1.4982
 5910TIP3    H241926   3.283   4.593  10.727 -0.6990 -0.5000 -0.3159
 5911TIP3   OH241927   3.713   3.744  11.706 -0.7622  0.1089  0.0402
 5911TIP3    H141928   3.630   3.720  11.747  1.0624 -2.1325  2.7861
 5911TIP3    H241929   3.725   3.836  11.729 -1.9317  0.1375  0.5919
 5912TIP3   OH241930   4.470   6.631  11.241  0.2120  0.5320 -0.6859
 5912TIP3    H141931   4.379   6.602  11.230  0.4256  0.0635 -1.2599
 5912TIP3    H241932   4.479   6.645  11.335 -0.6620  1.2593 -0.6889
 5913TIP3   OH241933   5.069   4.414  12.919  0.4323 -0.3109 -0.6183
 5913TIP3    H141934   5.060   4.472  12.844 -0.3409 -0.0664 -0.3539
 5913TIP3    H241935   5.161   4.389  12.920  0.5723  0.1540 -1.2930
 5914TIP3   OH241936   5.312   4.156  11.164 -0.3265  0.2325 -0.2819
 5914TIP3    H141937   5.260   4.137  11.086 -0.3625 -1.3841  0.1000
 5914TIP3    H241938   5.255   4.211  11.218 -0.6772  0.5443 -0.9544
 5915TIP3   OH241939   6.390   0.338  13.305 -0.3854 -0.0882 -0.3995
 5915TIP3    H141940   6.298   0.312  13.301 -0.3746 -0.2125  0.1199
 5915TIP3    H241941   6.437   0.257  13.322 -0.1808 -0.0170 -0.6186
 5916TIP3   OH241942   5.113   3.416  11.304 -0.5384  0.0762 -0.0096
 5916TIP3    H141943   5.033   3.377  11.339 -0.5491 -1.0195 -1.1946
 5916TIP3    H241944   5.142   3.356  11.236  1.2066  0.5468  0.2618
 5917TIP3   OH241945   5.035   5.748  12.388  0.2255  0.2608 -0.2949
 5917TIP3    H141946   5.008   5.824  12.441 -0.9043 -0.8179  0.7281
 5917TIP3    H241947   4.959   5.691  12.387  1.5455 -1.5917  0.2577
 5918TIP3   OH241948   4.363   6.242  11.553  0.4736  0.1263  0.1779
 5918TIP3    H141949   4.275   6.224  11.584  1.5820 -3.6317  1.7578
 5918TIP3    H241950   4.403   6.156  11.543  4.4292  1.6399  1.0149
 5919TIP3   OH241951   3.449   6.793  10.984 -0.0133  0.0797  0.2210
 5919TIP3    H141952   3.506   6.795  11.061 -0.1256 -0.1754  0.3138
 5919TIP3    H241953   3.502   6.749  10.917  0.2044  0.5953  0.0506
 5920TIP3   OH241954   0.561   1.460  11.503 -0.0149 -0.2151  0.7994
 5920TIP3    H141955   0.548   1.365  11.494  0.5044 -0.3112  1.0183
 5920TIP3    H241956   0.653   1.473  11.482 -0.3475  0.4018 -0.4079
 5921TIP3   OH241957   1.207   4.110  12.725  0.3840  0.6315  0.4413
 5921TIP3    H141958   1.196   4.176  12.795  0.8743  2.9388 -1.5127
 5921TIP3    H241959   1.289   4.136  12.682  0.8213 -1.5856 -0.1462
 5922TIP3   OH241960   1.519   5.622  13.097  0.1579 -0.0800  0.2596
 5922TIP3    H141961   1.484   5.535  13.116  0.0591  0.0100  0.4900
 5922TIP3    H241962   1.442   5.679  13.093  0.0348 -0.3061 -1.6698
 5923TIP3   OH241963   4.519   5.116  11.993 -0.0477  0.0276  0.2220
 5923TIP3    H141964   4.435   5.110  12.038  0.7563  1.2861  2.0127
 5923TIP3    H241965   4.510   5.059  11.917 -1.9369 -1.1957  1.2888
 5924TIP3   OH241966   5.371   0.027  12.453 -0.7072 -0.0353  0.2655
 5924TIP3    H141967   5.306   0.038  12.384 -0.0910  0.2354 -0.2752
 5924TIP3    H241968   5.442   0.086  12.429 -0.4920  0.0779  1.1395
 5925TIP3   OH241969   5.124   0.763  11.806  0.4373  0.0121 -0.3241
 5925TIP3    H141970   5.053   0.728  11.753  0.9923 -1.3096 -0.2205
 5925TIP3    H241971   5.082   0.828  11.862 -0.7096 -0.8442 -0.1557
 5926TIP3   OH241972   3.100   4.119  11.553 -0.2701  0.2522 -0.4114
 5926TIP3    H141973   3.091   4.209  11.523 -2.6734  0.1112 -0.2514
 5926TIP3    H241974   3.012   4.092  11.578  0.7370 -1.4284  1.6617
 5927TIP3   OH241975   6.503   5.871  10.856  0.1161 -0.2438  0.6979
 5927TIP3    H141976   6.506   5.956  10.812 -1.6875  0.0637  1.1100
 5927TIP3    H241977   6.536   5.809  10.791 -0.3302  0.5049 -0.2633
 5928TIP3   OH241978   5.477   4.361  10.801 -0.1521 -0.3166 -0.3833
 5928TIP3    H141979   5.454   4.420  10.873  1.7268  0.3201 -0.2611
 5928TIP3    H241980   5.485   4.275  10.843  0.4089 -0.0438  0.0771
 5929TIP3   OH241981   5.214   0.044  12.205  0.2416 -0.3176  1.1046
 5929TIP3    H141982   5.133   0.064  12.158  0.3715 -0.2350  0.9139
 5929TIP3    H241983   5.273   0.008  12.139  0.0470 -1.2588  1.4234
 5930TIP3   OH241984   1.802   0.651  12.878  0.3910 -0.0651 -0.1816
 5930TIP3    H141985   1.749   0.661  12.957  0.5877 -1.0219  0.0831
 5930TIP3    H241986   1.865   0.583  12.900  0.1607 -0.6663 -1.3262
 5931TIP3   OH241987   5.492   5.001  12.308 -0.0682  0.2728 -0.0612
 5931TIP3    H141988   5.461   5.090  12.326 -1.4705 -0.2083  0.0009
 5931TIP3    H241989   5.430   4.944  12.353 -1.5409 -0.8669 -3.2637
 5932TIP3   OH241990   7.659   4.965  12.376  0.5453  0.3159 -0.5195
 5932TIP3    H141991   7.741   4.995  12.338  1.1819  2.1814  2.0482
 5932TIP3    H241992   7.684   4.922  12.458 -0.9746  0.1457 -0.1047
 5933TIP3   OH241993   3.504   1.324  10.720 -0.0449  0.2631 -0.2868
 5933TIP3    H141994   3.547   1.395  10.768 -0.9089 -1.0782  2.7180
 5933TIP3    H241995   3.571   1.292  10.660  1.4510  1.4824  0.6488
 5934TIP3   OH241996   6.546   4.850  12.163 -0.2980  0.0465 -0.0490
 5934TIP3    H141997   6.504   4.798  12.231 -1.7470 -0.7039 -1.4465
 5934TIP3    H241998   6.528   4.803  12.082  0.7374  1.2922 -1.0595
 5935TIP3   OH241999   1.924   0.054  13.476  0.6183  0.3017  0.2306
 5935TIP3    H142000   2.012   0.086  13.499  0.1113  2.5104 -0.6160
 5935TIP3    H242001   1.880   0.043  13.561  1.2465  0.6333  0.6126
 5936TIP3   OH242002   3.378   4.842  10.849 -0.2729  0.5183  0.0179
 5936TIP3    H142003   3.374   4.924  10.799 -0.9011  1.3290  1.3436
 5936TIP3    H242004   3.293   4.837  10.894  0.6542  0.3885  1.8438
 5937TIP3   OH242005   3.104   2.953  11.309 -0.7231 -0.1630  0.3500
 5937TIP3    H142006   3.129   3.015  11.377 -0.2594 -0.2426  0.2582
 5937TIP3    H242007   3.030   2.993  11.265 -0.3166  0.4011  0.1803
 5938TIP3   OH242008   4.929   1.477  11.084  0.4472  0.6249  0.3009
 5938TIP3    H142009   4.854   1.426  11.116  2.2228 -0.8297  2.4317
 5938TIP3    H242010   4.891   1.538  11.020 -2.4821 -0.2049  1.1018
 5939TIP3   OH242011   5.540   7.526  10.333 -0.4279 -0.0876 -0.3671
 5939TIP3    H142012   5.503   7.547  10.248  0.7065  0.6732 -0.7053
 5939TIP3    H242013   5.616   7.585  10.341  0.2243 -1.0215  0.6131
 5940TIP3   OH242014   0.856   7.447  12.232 -0.1283 -0.5431 -0.3803
 5940TIP3    H142015   0.861   7.516  12.167 -1.1732 -1.3353 -1.3340
 5940TIP3    H242016   0.861   7.493  12.316  1.8524  0.4400 -0.9671
 5941TIP3   OH242017   7.264   3.959  11.493 -0.1593  0.5545  0.0432
 5941TIP3    H142018   7.324   3.966  11.418 -0.0990 -0.8382 -0.0504
 5941TIP3    H242019   7.300   4.021  11.557  0.7122  0.6005 -0.4621
 5942TIP3   OH242020   5.678   0.323  11.043 -0.4465 -0.0823  0.7624
 5942TIP3    H142021   5.747   0.366  10.993 -1.0345  1.0456  0.8842
 5942TIP3    H242022   5.596   0.356  11.005 -1.0101 -2.6691 -0.5174
 5943TIP3   OH242023   7.316   1.506  11.080  0.2676 -0.1088 -0.0774
 5943TIP3    H142024   7.336   1.419  11.044 -0.3043 -0.2221 -0.1193
 5943TIP3    H242025   7.231   1.528  11.044  1.4516  1.5696 -2.1023
 5944TIP3   OH242026   5.300   3.554  11.450  0.0462  0.4210 -0.2163
 5944TIP3    H142027   5.250   3.485  11.405  1.4554 -0.2986 -0.7501
 5944TIP3    H242028   5.258   3.562  11.535 -1.2711  0.1950 -0.8086
 5945TIP3   OH242029   6.918   5.060  10.706 -0.0324 -0.3147 -0.2673
 5945TIP3    H142030   6.930   5.140  10.655 -1.4604  1.5472  2.0992
 5945TIP3    H242031   7.007   5.033  10.730  0.4626  0.8150 -0.7666
 5946TIP3   OH242032   0.739   6.534  12.015  0.0954  0.1302 -0.0633
 5946TIP3    H142033   0.810   6.469  12.017 -1.6588 -1.8898 -0.3218
 5946TIP3    H242034   0.691   6.519  12.096 -1.3958 -0.1734 -0.9653
 5947TIP3   OH242035   2.832   3.255  12.273 -0.6527 -0.3002 -0.6133
 5947TIP3    H142036   2.828   3.174  12.323 -0.1341  0.4914  0.7665
 5947TIP3    H242037   2.762   3.247  12.208 -1.1131 -1.5088  0.0011
 5948TIP3   OH242038   7.521   1.025  12.284 -0.7238 -0.4644 -0.5555
 5948TIP3    H142039   7.501   1.066  12.368  1.1870  2.0830 -1.2138
 5948TIP3    H242040   7.475   1.078  12.219 -1.0742 -1.5591 -1.2215
 5949TIP3   OH242041   1.912   0.438  11.924 -0.3562 -0.2973 -0.4764
 5949TIP3    H142042   1.923   0.350  11.889  0.6424 -0.0056 -0.9348
 5949TIP3    H242043   1.947   0.434  12.013 -0.5119 -0.4120 -0.4204
 5950TIP3   OH242044   0.095   5.433  11.455 -0.0534 -0.6105  0.2576
 5950TIP3    H142045   0.032   5.505  11.447 -0.7777 -1.1486  0.9874
 5950TIP3    H242046   0.068   5.386  11.533  2.1971  0.0466  1.5268
 5951TIP3   OH242047   7.322   3.006  13.062  0.3239  0.2368 -0.6593
 5951TIP3    H142048   7.346   2.916  13.081  0.6336  0.4802  0.1763
 5951TIP3    H242049   7.375   3.030  12.986 -0.3656 -0.5274 -1.4017
 5952TIP3   OH242050   2.246   4.352  10.896  0.2854 -0.0757 -0.1958
 5952TIP3    H142051   2.183   4.391  10.957 -1.7338  0.5377 -2.5584
 5952TIP3    H242052   2.305   4.423  10.874  1.0608 -0.3121  0.9963
 5953TIP3   OH242053   3.841   6.429  13.319  0.3118 -0.3335  0.4296
 5953TIP3    H142054   3.765   6.380  13.351  0.3951  0.4019  1.8053
 5953TIP3    H242055   3.809   6.473  13.240 -0.0840 -1.6613 -0.1852
 5954TIP3   OH242056   5.494   3.589  11.215  0.0488  0.2139 -0.1651
 5954TIP3    H142057   5.423   3.652  11.219  1.2471  1.6064 -0.0470
 5954TIP3    H242058   5.535   3.594  11.302  0.3938 -0.4464 -0.2822
 5955TIP3   OH242059   0.153   2.343  12.892 -0.1184 -0.5822  0.0223
 5955TIP3    H142060   0.206   2.315  12.967  1.9070  2.0178 -0.2957
 5955TIP3    H242061   0.212   2.336  12.817 -0.5498  1.2950 -0.5397
 5956TIP3   OH242062   6.388   1.362  17.553  0.3553  0.2110 -0.3047
 5956TIP3    H142063   6.303   1.321  17.571  0.9269  0.0866  2.5470
 5956TIP3    H242064   6.389   1.441  17.606  1.7709  0.5503 -0.7853
 5957TIP3   OH242065   1.679   0.446  11.709 -0.3198 -0.0236 -0.5220
 5957TIP3    H142066   1.681   0.410  11.620 -1.7579 -1.5003 -0.0144
 5957TIP3    H242067   1.664   0.370  11.765  1.8822  0.6617  1.1592
 5958TIP3   OH242068   4.926   4.409  12.471 -0.6323  0.1390  0.0675
 5958TIP3    H142069   4.840   4.383  12.438 -1.0176  1.8142 -0.3549
 5958TIP3    H242070   4.906   4.465  12.546  0.0459  1.0598 -0.4193
 5959TIP3   OH242071   6.934   4.794  11.220  0.1262 -0.1068 -0.2634
 5959TIP3    H142072   6.939   4.751  11.305 -0.3138  1.2036  0.4625
 5959TIP3    H242073   6.843   4.781  11.192 -0.1128  0.6087  0.1318
 5960TIP3   OH242074   0.995   5.898  10.490 -0.2336 -0.0213  0.0368
 5960TIP3    H142075   0.935   5.969  10.465 -0.7356  0.1039  1.5087
 5960TIP3    H242076   0.997   5.902  10.586  1.6965 -0.3929  0.0383
 5961TIP3   OH242077   4.361   5.755  12.462  0.4342 -0.1756  0.9105
 5961TIP3    H142078   4.407   5.717  12.387  1.4286  2.1302  0.2584
 5961TIP3    H242079   4.414   5.729  12.538  0.7874 -0.5191  0.5466
 5962TIP3   OH242080   6.460   5.256  11.558  0.1572  0.6238 -0.1174
 5962TIP3    H142081   6.388   5.194  11.566  0.2716  0.4388 -0.5247
 5962TIP3    H242082   6.502   5.235  11.475  0.8242  0.5845  0.2207
 5963TIP3   OH242083   5.863   1.950  11.335 -0.6472  0.1111 -0.1058
 5963TIP3    H142084   5.928   1.962  11.266  0.2864 -2.6673  0.1572
 5963TIP3    H242085   5.905   1.986  11.413 -0.2643  0.1588 -0.3262
 5964TIP3   OH242086   7.138   5.499  10.250 -0.1235  0.1514 -0.1078
 5964TIP3    H142087   7.215   5.453  10.283  1.2055  1.7223 -0.8946
 5964TIP3    H242088   7.173   5.564  10.189 -2.0953  0.7761 -0.6457
 5965TIP3   OH242089   4.636   0.134  11.212  0.4160 -0.0003 -0.0466
 5965TIP3    H142090   4.542   0.133  11.231  0.3539  0.2057 -0.3327
 5965TIP3    H242091   4.659   0.041  11.200  0.2257 -0.0425 -0.0859
 5966TIP3   OH242092   7.298   1.403  12.337 -0.9005 -0.1540 -0.0967
 5966TIP3    H142093   7.303   1.461  12.261 -1.8416 -1.5675 -1.2791
 5966TIP3    H242094   7.292   1.463  12.412 -1.2223  1.2697 -1.2179
 5967TIP3   OH242095   3.163   5.893  12.945 -0.1231 -0.3947  0.0473
 5967TIP3    H142096   3.193   5.910  13.035  0.3516 -0.1125 -0.1616
 5967TIP3    H242097   3.070   5.914  12.947  0.0045  0.1801  0.3324
 5968TIP3   OH242098   2.902   3.192  12.953  0.2998 -0.3676 -0.5360
 5968TIP3    H142099   2.833   3.258  12.956 -0.3595 -1.0502 -0.3560
 5968TIP3    H242100   2.889   3.147  12.869 -2.3343 -3.4431  1.2955
 5969TIP3   OH242101   5.469   3.889  11.151  0.0879 -0.3876  0.3033
 5969TIP3    H142102   5.375   3.906  11.150  0.1592  0.4399  2.3380
 5969TIP3    H242103   5.485   3.836  11.073 -1.9365  0.0478 -0.4595
 5970TIP3   OH242104   6.127   5.938  11.913 -0.1653  0.6551  0.3530
 5970TIP3    H142105   6.149   6.003  11.846 -1.6852  0.8083 -0.0574
 5970TIP3    H242106   6.172   5.968  11.992  0.4829  1.2813 -0.2400
 5971TIP3   OH242107   4.625   0.662  12.298 -0.4048 -0.1429  0.6140
 5971TIP3    H142108   4.581   0.633  12.378 -0.6334  2.9047  1.7586
 5971TIP3    H242109   4.555   0.677  12.236 -0.4503 -0.3352  0.6187
 5972TIP3   OH242110   2.189   7.466  11.211  0.0766 -0.2476  0.5711
 5972TIP3    H142111   2.100   7.487  11.241  0.4595 -0.0224  1.5972
 5972TIP3    H242112   2.246   7.507  11.276  0.9499  0.1079 -0.3921
 5973TIP3   OH242113   0.112   0.150  10.635  0.1404  0.2720 -0.2629
 5973TIP3    H142114   0.194   0.144  10.685  1.0713 -1.0370 -1.8612
 5973TIP3    H242115   0.075   0.234  10.663  1.2528  0.2190  1.6150
 5974TIP3   OH242116   6.213   6.733  10.642  0.2839  0.4944 -0.1302
 5974TIP3    H142117   6.168   6.764  10.720  0.7399  1.4189 -0.2338
 5974TIP3    H242118   6.287   6.791  10.631  0.6843 -0.1241 -0.8003
 5975TIP3   OH242119   1.577   5.647  11.672 -0.1694 -0.4600 -0.1984
 5975TIP3    H142120   1.651   5.654  11.732 -1.8377 -0.7684  2.0429
 5975TIP3    H242121   1.526   5.727  11.688  0.0023  0.1066 -2.2417
 5976TIP3   OH242122   2.744   2.755  11.177  0.0760  0.1480  0.5028
 5976TIP3    H142123   2.744   2.750  11.081 -0.6121  0.4580  0.4858
 5976TIP3    H242124   2.687   2.684  11.205  0.0988  0.1976  0.6744
 5977TIP3   OH242125   3.525   6.452  11.853  0.0123  0.0206 -0.2563
 5977TIP3    H142126   3.456   6.408  11.803  0.6123 -1.0164 -0.2038
 5977TIP3    H242127   3.537   6.536  11.809 -2.5449  1.0622  0.8245
 5978TIP3   OH242128   3.299   6.271  12.778  0.5559 -0.1013 -0.0490
 5978TIP3    H142129   3.203   6.277  12.771  0.5590 -1.6249 -3.3636
 5978TIP3    H242130   3.329   6.361  12.765 -0.3721  0.3972  1.0086
 5979TIP3   OH242131   5.652   3.354  10.518  0.0015  0.7294 -0.7207
 5979TIP3    H142132   5.735   3.395  10.494 -1.3578  2.2386 -3.2760
 5979TIP3    H242133   5.639   3.286  10.452  0.1170 -0.9527  0.9015
 5980TIP3   OH242134   3.434   5.690  11.643 -0.1505 -0.4313  0.0871
 5980TIP3    H142135   3.518   5.694  11.597  0.8876  0.7796  1.9471
 5980TIP3    H242136   3.431   5.602  11.680  0.2214 -0.5263 -0.1053
 5981TIP3   OH242137   3.708   6.890  10.306 -0.4294 -0.2626 -0.1348
 5981TIP3    H142138   3.759   6.873  10.385  2.1618  0.4528 -1.5133
 5981TIP3    H242139   3.712   6.808  10.257 -3.4410 -1.2693  1.0582
 5982TIP3   OH242140   1.744   3.234  11.022  0.4150  0.4902  0.0447
 5982TIP3    H142141   1.706   3.317  10.993  0.8454  0.3401 -1.0118
 5982TIP3    H242142   1.834   3.255  11.046  0.7881  0.2132 -1.0205
 5983TIP3   OH242143   3.842   4.526  12.613 -0.4443 -0.1249  0.0696
 5983TIP3    H142144   3.876   4.441  12.641  1.8681  0.3124 -1.1561
 5983TIP3    H242145   3.826   4.574  12.695  0.2916 -0.9913  0.7429
 5984TIP3   OH242146   4.958   4.851  11.112 -0.0262 -0.0159 -0.2441
 5984TIP3    H142147   5.009   4.916  11.160 -0.7668  1.2344 -1.0841
 5984TIP3    H242148   4.915   4.799  11.180 -1.0535  1.7030  0.4789
 5985TIP3   OH242149   6.356   1.522  11.571  0.3206  0.0026 -0.9809
 5985TIP3    H142150   6.445   1.534  11.540 -0.0987 -0.4940 -2.4467
 5985TIP3    H242151   6.302   1.523  11.492 -1.0389  0.7612 -0.0999
 5986TIP3   OH242152   6.721   5.655  12.319  0.2330  0.1661 -0.2347
 5986TIP3    H142153   6.663   5.663  12.395  0.8424 -0.9730  0.3713
 5986TIP3    H242154   6.777   5.732  12.324 -0.0871  0.3786  0.1770
 5987TIP3   OH242155   5.103   6.001  11.940  0.2173 -0.3928  0.2009
 5987TIP3    H142156   5.022   5.964  11.905  0.3130 -0.4228  0.0102
 5987TIP3    H242157   5.129   5.941  12.010  0.6467 -0.9748 -0.4463
 5988TIP3   OH242158   6.064   4.859  12.877  0.0376 -0.1038 -0.3230
 5988TIP3    H142159   6.112   4.903  12.807 -1.3920  1.4454 -0.3994
 5988TIP3    H242160   6.032   4.778  12.837  2.0333 -0.8908 -0.4272
 5989TIP3   OH242161   2.627   5.850  11.551  0.0443  0.3962 -0.3414
 5989TIP3    H142162   2.713   5.814  11.530 -0.1454 -2.1740  2.5700
 5989TIP3    H242163   2.565   5.787  11.514 -0.4503  0.2613  0.6788
 5990TIP3   OH242164   7.496   2.422  13.084 -0.3171  0.2920  0.3861
 5990TIP3    H142165   7.479   2.403  12.992 -3.1552 -0.4953  0.9765
 5990TIP3    H242166   7.555   2.352  13.112 -0.0226  0.1099 -0.6409
 5991TIP3   OH242167   4.248   6.697  11.666 -0.0215 -0.5005 -0.5354
 5991TIP3    H142168   4.250   6.629  11.734 -1.2530  0.5909  0.6443
 5991TIP3    H242169   4.227   6.650  11.585  1.3472 -1.8103 -0.1884
 5992TIP3   OH242170   7.566   5.899  10.704  0.3935 -0.0526  0.2892
 5992TIP3    H142171   7.484   5.879  10.658  0.3218 -0.0676  0.4218
 5992TIP3    H242172   7.606   5.813  10.719  0.1966 -0.0850  0.6544
 5993TIP3   OH242173   4.346   7.441  11.918  0.4126 -0.1447 -0.1610
 5993TIP3    H142174   4.339   7.358  11.966  0.1018 -0.6389 -1.0458
 5993TIP3    H242175   4.326   7.418  11.827  0.6095  0.8516 -0.4643
 5994TIP3   OH242176   0.768   5.686  11.562  0.0345 -0.1022 -0.0349
 5994TIP3    H142177   0.681   5.684  11.601  0.7117  1.8271  1.7218
 5994TIP3    H242178   0.803   5.772  11.584  2.1889 -0.6036 -1.1886
 5995TIP3   OH242179   3.435   6.342  12.135  0.3024  0.0436 -0.3202
 5995TIP3    H142180   3.420   6.295  12.053 -2.1013  1.8759 -1.0541
 5995TIP3    H242181   3.483   6.421  12.110  0.8689 -0.1008  0.2803
 5996TIP3   OH242182   5.066   6.588  12.576  0.1128  0.3500 -0.4506
 5996TIP3    H142183   5.055   6.615  12.667  2.6647 -1.2778  0.4734
 5996TIP3    H242184   5.160   6.571  12.568 -0.2508 -0.9607 -2.9797
 5997TIP3   OH242185   4.792   5.976  10.540 -0.1119 -0.3099 -0.1067
 5997TIP3    H142186   4.729   6.039  10.505 -1.6633 -2.0555 -0.5782
 5997TIP3    H242187   4.738   5.908  10.580  1.3655 -2.6443 -1.8386
 5998TIP3   OH242188   3.503   3.014  12.289  0.3742 -0.0689  0.7638
 5998TIP3    H142189   3.516   3.083  12.224  1.7111 -1.5626 -0.6293
 5998TIP3    H242190   3.433   2.959  12.253 -1.6141  1.1452  2.4690
 5999TIP3   OH242191   1.454   0.501  11.928  0.5067 -0.0003 -0.0826
 5999TIP3    H142192   1.492   0.530  12.011  0.0867 -1.4390  0.6532
 5999TIP3    H242193   1.512   0.430  11.899 -0.8548 -1.3600  0.4072
 6000TIP3   OH242194   4.811   2.347  11.708  0.1151  0.2265 -0.4816
 6000TIP3    H142195   4.808   2.348  11.804  0.0812  0.5057 -0.4828
 6000TIP3    H242196   4.726   2.381  11.681  0.7759  1.9155 -0.5833
 6001TIP3   OH242197   3.162   6.855  13.564  0.1749  0.5190 -0.5383
 6001TIP3    H142198   3.229   6.888  13.623 -1.3262  1.9844  0.4389
 6001TIP3    H242199   3.098   6.926  13.557 -0.6998 -0.3522 -2.3791
 6002TIP3   OH242200   1.501   2.409  11.903  0.7288 -0.1155 -0.1859
 6002TIP3    H142201   1.409   2.387  11.916  0.9229 -1.1739 -0.5633
 6002TIP3    H242202   1.513   2.408  11.808  1.2901 -0.6422 -0.1138
 6003TIP3   OH242203   4.471   3.082  12.580  0.0991  0.1240 -0.0673
 6003TIP3    H142204   4.394   3.044  12.537 -0.5703  0.4528  0.8169
 6003TIP3    H242205   4.446   3.089  12.672  2.2881 -2.7197  0.8960
 6004TIP3   OH242206   5.635   5.166  11.183  0.0102 -0.3572 -0.1623
 6004TIP3    H142207   5.676   5.179  11.269 -0.8586 -2.9190  0.7091
 6004TIP3    H242208   5.680   5.090  11.147 -0.1727  0.2237 -1.6563
 6005TIP3   OH242209   0.429   3.238  10.646  0.6715  0.1093 -0.4945
 6005TIP3    H142210   0.502   3.229  10.708  0.4719  0.1261 -0.2565
 6005TIP3    H242211   0.375   3.161  10.662  0.5870  0.1466 -0.6048
 6006TIP3   OH242212   3.170   4.215  11.161  0.4582  0.1242 -0.3069
 6006TIP3    H142213   3.190   4.282  11.095  0.2103 -0.2089 -0.7244
 6006TIP3    H242214   3.224   4.239  11.237  0.3251  0.8309 -0.4323
 6007TIP3   OH242215   6.847   6.820  12.837 -0.2971  0.7128  0.5968
 6007TIP3    H142216   6.827   6.888  12.772 -0.3007  0.4541  0.3265
 6007TIP3    H242217   6.842   6.865  12.921  1.9009  1.6138  0.3238
 6008TIP3   OH242218   2.234   0.497  10.918 -0.5110 -0.1358 -0.2953
 6008TIP3    H142219   2.184   0.572  10.887 -0.6590 -0.1136 -0.0049
 6008TIP3    H242220   2.297   0.534  10.980  0.4528 -0.0416 -1.2921
 6009TIP3   OH242221   5.728   4.763  11.284 -0.1098 -0.1568  0.0580
 6009TIP3    H142222   5.691   4.752  11.372 -1.1171  1.0828 -0.1858
 6009TIP3    H242223   5.812   4.716  11.288 -0.1699 -0.2020  1.6519
 6010TIP3   OH242224   1.608   2.835  12.185  0.3423 -0.2373 -0.0625
 6010TIP3    H142225   1.702   2.849  12.187  0.2963  0.0287  0.3499
 6010TIP3    H242226   1.571   2.916  12.220  0.0342 -1.0397  1.5299
 6011TIP3   OH242227   2.137   1.201  11.932 -0.4802  0.7766  0.2537
 6011TIP3    H142228   2.193   1.197  12.010 -2.4076 -1.0431  1.6834
 6011TIP3    H242229   2.151   1.117  11.888 -0.1098  1.4150 -0.8873
 6012TIP3   OH242230   6.689   3.397  11.044  0.8764 -0.4066  0.2674
 6012TIP3    H142231   6.679   3.320  10.988 -2.7892 -0.4013  0.6988
 6012TIP3    H242232   6.704   3.361  11.131 -0.2772 -0.6616  0.3751
 6013TIP3   OH242233   2.550   5.395  11.128  0.2763 -0.9332  0.1054
 6013TIP3    H142234   2.475   5.401  11.069 -0.3500  0.7820  1.0028
 6013TIP3    H242235   2.546   5.306  11.163 -1.1237 -0.9819 -0.1357
 6014TIP3   OH242236   4.487   7.423  12.649 -0.1766 -0.3589  0.5957
 6014TIP3    H142237   4.417   7.444  12.710  0.5052 -0.9631  1.6137
 6014TIP3    H242238   4.566   7.461  12.687 -0.1629  1.8729 -1.4122
 6015TIP3   OH242239   7.036   7.398  11.187 -0.0067  0.5303 -0.2245
 6015TIP3    H142240   7.069   7.487  11.180 -0.9801  0.9061 -0.0885
 6015TIP3    H242241   7.089   7.348  11.124  0.1584  1.3105 -0.7183
 6016TIP3   OH242242   2.503   2.534  12.459 -0.0531 -0.5456  0.4146
 6016TIP3    H142243   2.535   2.466  12.518  1.3155 -1.9571 -1.8330
 6016TIP3    H242244   2.546   2.614  12.489 -1.4180 -0.6403  2.8896
 6017TIP3   OH242245   1.156   4.381  11.211 -0.5046  0.2075  0.1996
 6017TIP3    H142246   1.133   4.312  11.149  0.1739  1.2249 -1.2436
 6017TIP3    H242247   1.150   4.339  11.297 -0.3220 -1.5846 -0.6120
 6018TIP3   OH242248   7.557   2.673  11.608  0.2516 -0.1919 -0.0409
 6018TIP3    H142249   7.557   2.759  11.565  0.1496 -0.2065 -0.0708
 6018TIP3    H242250   7.649   2.655  11.626  0.3774 -0.5470 -0.9847
 6019TIP3   OH242251   7.602   0.832  13.475  0.2712  0.3937 -0.1435
 6019TIP3    H142252   7.683   0.803  13.432 -0.6810 -2.5277 -0.1708
 6019TIP3    H242253   7.536   0.829  13.406 -0.2530  0.8517  0.3311
 6020TIP3   OH242254   4.457   1.827  12.169  0.0014  0.9051  0.0751
 6020TIP3    H142255   4.385   1.766  12.186  0.1213  0.6011 -0.4597
 6020TIP3    H242256   4.420   1.890  12.106 -0.0453  1.2408  0.4339
 6021TIP3   OH242257   2.295   3.311  12.295  0.1094  0.2136  0.2712
 6021TIP3    H142258   2.247   3.391  12.275 -0.2868  0.2314  1.2607
 6021TIP3    H242259   2.387   3.338  12.295  0.0726  0.3894 -0.6231
 6022TIP3   OH242260   4.180   4.201  12.640 -0.3651  0.0962 -0.0705
 6022TIP3    H142261   4.144   4.285  12.669  0.6220  0.8353 -0.8950
 6022TIP3    H242262   4.255   4.186  12.697 -0.0859  0.1719 -0.4079
 6023TIP3   OH242263   5.283   5.358  10.525 -0.2442  0.1415  0.1123
 6023TIP3    H142264   5.358   5.385  10.472  0.3003 -0.3909  0.6055
 6023TIP3    H242265   5.217   5.331  10.461 -0.2687  1.2273 -0.3503
 6024TIP3   OH242266   6.619   6.279  12.860 -0.2648 -0.2535  0.3231
 6024TIP3    H142267   6.536   6.326  12.869 -0.7004 -0.5495 -1.6744
 6024TIP3    H242268   6.624   6.224  12.938 -1.4121  0.5640  1.0065
 6025TIP3   OH242269   2.477   5.606  10.866 -0.0590 -0.0382  0.5083
 6025TIP3    H142270   2.562   5.649  10.867  0.7001 -1.4826  0.4736
 6025TIP3    H242271   2.422   5.661  10.810  1.2864  0.1078 -0.7068
 6026TIP3   OH242272   5.674   6.619  11.755  0.4557  0.2292 -0.0038
 6026TIP3    H142273   5.761   6.658  11.751  1.0543 -1.0530  0.1051
 6026TIP3    H242274   5.672   6.573  11.839  0.1555 -0.8102 -0.5568
 6027TIP3   OH242275   7.607   6.151  13.120 -0.5342  0.1479 -0.0148
 6027TIP3    H142276   7.670   6.080  13.124 -1.1054 -0.4938 -1.5634
 6027TIP3    H242277   7.651   6.225  13.162  0.7454 -0.6219  0.0410
 6028TIP3   OH242278   1.136   2.911  11.608 -0.0397  0.4213 -0.2386
 6028TIP3    H142279   1.091   2.996  11.599  0.6230  0.8793  0.6234
 6028TIP3    H242280   1.189   2.904  11.530 -1.8525 -0.3075 -1.4792
 6029TIP3   OH242281   2.684   3.820  11.299  0.5484  0.3697  0.3171
 6029TIP3    H142282   2.639   3.879  11.359  0.4005  0.0681  0.4992
 6029TIP3    H242283   2.661   3.732  11.328 -0.3354  0.2149 -0.7877
 6030TIP3   OH242284   2.307   2.745  11.207  0.0910 -0.3867  0.0103
 6030TIP3    H142285   2.385   2.690  11.196  0.9084  0.3775  1.5546
 6030TIP3    H242286   2.326   2.823  11.154  0.0573 -0.5174 -0.1935
 6031TIP3   OH242287   0.684   5.873  10.662 -0.1247  0.1900  0.3694
 6031TIP3    H142288   0.731   5.865  10.745  1.7209  1.7355 -0.4437
 6031TIP3    H242289   0.726   5.948  10.618 -1.2172 -0.4135 -1.8368
 6032TIP3   OH242290   4.483   2.449  11.045  0.0327  0.0710 -0.4279
 6032TIP3    H142291   4.548   2.380  11.060 -0.7293 -0.7443 -0.7884
 6032TIP3    H242292   4.498   2.477  10.955  0.8296  0.9143 -0.0452
 6033TIP3   OH242293   2.563   4.318  13.354 -0.2199 -0.0596 -0.6851
 6033TIP3    H142294   2.467   4.317  13.364 -0.1658  1.6578  0.4455
 6033TIP3    H242295   2.585   4.410  13.343  1.6175  0.1251  3.0512
 6034TIP3   OH242296   3.121   0.289  12.618 -0.2867  0.4308  0.5095
 6034TIP3    H142297   3.081   0.202  12.619 -0.6505  0.5965  1.5938
 6034TIP3    H242298   3.168   0.292  12.535 -2.1867  0.0817 -0.6384
 6035TIP3   OH242299   5.115   3.242  11.714 -0.0425 -0.1605 -0.0748
 6035TIP3    H142300   5.020   3.235  11.708 -0.0320 -1.2514  0.7968
 6035TIP3    H242301   5.146   3.152  11.722  0.9451  0.2421  1.0963
 6036TIP3   OH242302   4.791   2.454  10.450 -0.2392  0.1985 -0.2495
 6036TIP3    H142303   4.814   2.547  10.452 -1.7176  0.6002 -0.7088
 6036TIP3    H242304   4.813   2.422  10.538  1.7180  0.5882 -0.5634
 6037TIP3   OH242305   1.179   2.659  12.824  0.3297 -0.1335  0.0666
 6037TIP3    H142306   1.142   2.650  12.912 -1.3423  2.6361 -0.2082
 6037TIP3    H242307   1.113   2.619  12.767  0.5487 -0.3373 -0.0433
 6038TIP3   OH242308   2.451   6.586  10.860  0.0452 -0.2015  0.8618
 6038TIP3    H142309   2.530   6.533  10.867 -1.2346 -2.1150  1.8254
 6038TIP3    H242310   2.399   6.543  10.792  0.3918  1.9023 -0.8380
 6039TIP3   OH242311   7.356   4.752  12.767 -0.0192  0.0759  0.5170
 6039TIP3    H142312   7.271   4.709  12.763  0.2080 -0.4565  1.1138
 6039TIP3    H242313   7.390   4.748  12.678 -1.7470  2.6996 -0.3666
 6040TIP3   OH242314   1.642   5.938  11.963 -0.5296  0.0496  0.1048
 6040TIP3    H142315   1.733   5.967  11.961 -1.0265  1.7235  0.4542
 6040TIP3    H242316   1.591   6.016  11.942 -1.9363 -0.6204  0.8665
 6041TIP3   OH242317   2.373   6.679  11.526  0.4854 -0.4505 -0.4463
 6041TIP3    H142318   2.354   6.731  11.448  1.7970  0.9554  0.1285
 6041TIP3    H242319   2.457   6.638  11.508 -0.2791 -2.0143 -0.6700
 6042TIP3   OH242320   2.849   0.525  10.689  0.1519 -0.0564 -0.1398
 6042TIP3    H142321   2.920   0.578  10.651  0.3485 -0.3230 -0.1471
 6042TIP3    H242322   2.806   0.584  10.751  1.3677 -0.3636  1.0429
 6043TIP3   OH242323   0.742   3.469  11.731  0.3867  0.0335 -0.2441
 6043TIP3    H142324   0.686   3.431  11.799  0.0558  0.6211 -0.1776
 6043TIP3    H242325   0.780   3.547  11.772 -0.0978  0.5944 -0.8383
 6044TIP3   OH242326   3.409   0.585  12.205  0.4126 -0.1151  0.4959
 6044TIP3    H142327   3.408   0.680  12.213 -4.1570 -0.0544  2.0582
 6044TIP3    H242328   3.380   0.569  12.115  0.7771 -0.0141  0.3612
 6045TIP3   OH242329   3.083   0.769  12.002  0.3556  0.2071 -0.2901
 6045TIP3    H142330   3.003   0.717  11.996  1.0644 -0.9525  0.0232
 6045TIP3    H242331   3.153   0.704  12.015  1.5141  1.0677 -1.8134
 6046TIP3   OH242332   3.614   6.113  11.780  0.0432  0.3979  0.0604
 6046TIP3    H142333   3.564   6.182  11.824  1.7405  1.4544  0.3952
 6046TIP3    H242334   3.604   6.036  11.837 -0.7304  0.7408  0.4000
 6047TIP3   OH242335   2.693   3.380  12.067  0.4798 -0.0658  0.2929
 6047TIP3    H142336   2.607   3.393  12.027  0.7011 -0.5262 -0.3666
 6047TIP3    H242337   2.755   3.416  12.003  0.7860  0.2130  0.7363
 6048TIP3   OH242338   7.377   2.253  10.930 -0.6752 -0.4459 -0.0410
 6048TIP3    H142339   7.386   2.210  10.845  0.5035  0.9171 -0.6538
 6048TIP3    H242340   7.464   2.289  10.948 -1.3175  0.6623  0.9751
 6049TIP3   OH242341   2.723   0.273  12.665 -0.2369  0.4743 -0.0064
 6049TIP3    H142342   2.741   0.246  12.575  0.5321  1.0567 -0.0381
 6049TIP3    H242343   2.746   0.366  12.667  3.6792 -0.2925  1.7471
 6050TIP3   OH242344   5.799   3.759  11.760  0.2733  0.8150  0.4443
 6050TIP3    H142345   5.784   3.776  11.853  0.7315 -0.1137  0.7025
 6050TIP3    H242346   5.876   3.812  11.738  0.7256  0.3397  0.8385
 6051TIP3   OH242347   6.883   1.345  11.801 -0.0703  0.6435 -0.3628
 6051TIP3    H142348   6.871   1.293  11.721 -1.4386  1.0562 -0.4586
 6051TIP3    H242349   6.977   1.349  11.814  0.1073 -1.5721 -0.5552
 6052TIP3   OH242350   0.613   3.238  11.467  0.3674  0.0541 -0.0593
 6052TIP3    H142351   0.592   3.332  11.473 -0.2815 -0.0876 -0.0648
 6052TIP3    H242352   0.699   3.236  11.426  1.0113  0.7095  1.1900
 6053TIP3   OH242353   1.886   3.009  13.207 -0.7606 -0.2173  0.2205
 6053TIP3    H142354   1.886   2.984  13.299 -0.2984 -1.5943 -0.1312
 6053TIP3    H242355   1.966   3.060  13.196 -0.3285 -0.8570  0.3784
 6054TIP3   OH242356   7.646   5.848  12.247  0.1327 -0.3811 -0.1147
 6054TIP3    H142357   7.699   5.781  12.205 -0.9983  0.0215 -2.3443
 6054TIP3    H242358   7.559   5.809  12.253 -0.4642  0.7064 -1.1326
 6055TIP3   OH242359   7.039   1.483  12.512  0.3542  0.0267  0.1839
 6055TIP3    H142360   7.025   1.473  12.417  0.4370 -0.3429  0.2089
 6055TIP3    H242361   7.017   1.397  12.548 -0.7420  0.4681  0.6269
 6056TIP3   OH242362   7.649   4.005  12.635  0.0352 -0.5008 -0.0756
 6056TIP3    H142363   7.721   4.019  12.696  1.2365 -2.0045 -1.0759
 6056TIP3    H242364   7.634   3.910  12.637  1.6527 -0.9973 -3.6761
 6057TIP3   OH242365   3.210   1.997  11.056 -0.0370 -0.4118  0.1681
 6057TIP3    H142366   3.205   2.059  10.984  1.4419 -0.8413 -0.3318
 6057TIP3    H242367   3.135   2.019  11.112  1.0954  2.6848  0.6867
 6058TIP3   OH242368   1.699   6.846  13.375  0.5504 -0.3617 -0.1902
 6058TIP3    H142369   1.732   6.923  13.329 -0.5494  1.3033  1.6782
 6058TIP3    H242370   1.772   6.816  13.427  0.3911  0.7604  0.7147
 6059TIP3   OH242371   3.218   4.713  11.464 -0.3169 -0.2336 -0.7464
 6059TIP3    H142372   3.184   4.641  11.412  2.0588 -2.6746  0.8121
 6059TIP3    H242373   3.309   4.723  11.434 -0.6998  2.5670 -1.2787
 6060TIP3   OH242374   4.796   2.450  11.976 -0.4691  0.5450  0.1459
 6060TIP3    H142375   4.810   2.524  12.036  2.2260 -1.2761  1.9668
 6060TIP3    H242376   4.712   2.413  12.003  0.0088  0.6341  1.8756
 6061TIP3   OH242377   3.854   5.595  12.551  0.3128 -0.3269  0.4831
 6061TIP3    H142378   3.938   5.640  12.543  1.5722 -2.8764 -1.8754
 6061TIP3    H242379   3.807   5.617  12.471 -0.8936  0.1715  1.2855
 6062TIP3   OH242380   6.459   4.783  12.427  0.2630  0.6011  0.1827
 6062TIP3    H142381   6.399   4.855  12.444  1.8207  1.9464  0.1382
 6062TIP3    H242382   6.537   4.803  12.478  1.0620 -0.6137 -0.5030
 6063TIP3   OH242383   6.438   5.458  10.594 -0.3872  0.0753 -0.2244
 6063TIP3    H142384   6.442   5.399  10.519 -1.0992 -0.3772  0.0784
 6063TIP3    H242385   6.375   5.417  10.653 -1.0394  1.2391 -0.0850
 6064TIP3   OH242386   5.159   3.089  10.990  0.3320  0.5889 -0.0302
 6064TIP3    H142387   5.254   3.099  10.980  0.3258  0.4194 -0.2691
 6064TIP3    H242388   5.140   3.002  10.953  0.3796 -0.2935  1.8998
 6065TIP3   OH242389   1.747   4.266  13.060 -0.5898 -0.0076 -0.2863
 6065TIP3    H142390   1.766   4.173  13.068  1.8927  0.3534 -1.1513
 6065TIP3    H242391   1.684   4.284  13.130 -1.0274 -2.2705 -0.0239
 6066TIP3   OH242392   6.252   3.109  11.084  0.8006  0.6293 -0.3138
 6066TIP3    H142393   6.186   3.164  11.127  0.7751  1.6437 -1.5911
 6066TIP3    H242394   6.220   3.099  10.994  1.4960 -0.3564 -0.4657
 6067TIP3   OH242395   0.293   4.979  12.433 -0.1438  0.7489  0.1558
 6067TIP3    H142396   0.276   5.002  12.524 -0.7565  0.4189  0.1269
 6067TIP3    H242397   0.293   4.883  12.432 -2.6582  0.7085 -0.6371
 6068TIP3   OH242398   4.096   5.994  10.951 -0.4914 -0.1429 -0.1486
 6068TIP3    H142399   4.116   6.080  10.915 -1.2359 -0.1450 -0.5998
 6068TIP3    H242400   4.063   5.943  10.877 -1.3134 -0.3920  0.3600
 6069TIP3   OH242401   6.986   7.004  11.774 -0.6718  0.2196 -0.4754
 6069TIP3    H142402   6.899   6.984  11.738 -0.5892 -0.2806 -0.4073
 6069TIP3    H242403   7.037   6.925  11.756 -0.5546  0.0608  0.4996
 6070TIP3   OH242404   5.220   4.808  12.206  0.3194  0.5743  0.0797
 6070TIP3    H142405   5.217   4.875  12.274 -1.2459  0.8941 -0.2795
 6070TIP3    H242406   5.129   4.785  12.190  0.8372 -1.8190  0.3305
 6071TIP3   OH242407   1.311   4.992  13.174 -0.2392  0.4247 -0.1029
 6071TIP3    H142408   1.230   5.009  13.222 -1.1650  0.2850 -1.5504
 6071TIP3    H242409   1.291   5.016  13.084  1.5425  0.9592 -0.3913
 6072TIP3   OH242410   0.252   6.086  12.517 -0.2365  0.1148  0.3955
 6072TIP3    H142411   0.218   6.014  12.465 -0.4872  0.4430  0.0988
 6072TIP3    H242412   0.243   6.163  12.461 -1.6764  0.6977  1.3547
 6073TIP3   OH242413   4.252   1.650  12.238 -0.4044 -0.3882 -0.4103
 6073TIP3    H142414   4.192   1.696  12.296  0.1858  0.0526 -0.1333
 6073TIP3    H242415   4.253   1.560  12.271 -0.2906 -0.2077  0.0962
 6074TIP3   OH242416   7.190   4.849  12.410 -0.2194  0.0671 -0.0995
 6074TIP3    H142417   7.158   4.785  12.474  0.4849  0.3120  0.5166
 6074TIP3    H242418   7.116   4.865  12.352 -0.0352 -2.4049 -1.1709
 6075TIP3   OH242419   2.726   4.108  10.921 -0.2038 -0.0933 -0.4033
 6075TIP3    H142420   2.651   4.113  10.981 -0.2978  1.5702 -0.5925
 6075TIP3    H242421   2.767   4.024  10.939 -1.4271 -0.5065  0.5517
 6076TIP3   OH242422   4.621   0.277  10.363 -0.1156  0.0147 -0.6978
 6076TIP3    H142423   4.632   0.291  10.457  1.2090 -0.6062 -0.7302
 6076TIP3    H242424   4.661   0.192  10.347 -1.8654 -0.6843 -1.5664
 6077TIP3   OH242425   2.743   4.673  12.742 -0.0118  0.6536 -0.5258
 6077TIP3    H142426   2.738   4.588  12.785  1.6877  0.3938 -0.8049
 6077TIP3    H242427   2.697   4.733  12.802  0.2708 -0.1368  0.4929
 6078TIP3   OH242428   2.149   2.104  11.389 -0.9999  0.5285  0.0859
 6078TIP3    H142429   2.146   2.056  11.471 -2.4072  2.2216  1.0738
 6078TIP3    H242430   2.062   2.142  11.379 -0.5059  1.3427 -1.5944
 6079TIP3   OH242431   1.099   5.275  11.009 -0.4141  0.2914 -0.1087
 6079TIP3    H142432   1.125   5.216  10.938 -1.5135 -0.4470  0.0801
 6079TIP3    H242433   1.069   5.355  10.965 -0.6029  0.0341 -0.4523
 6080TIP3   OH242434   4.450   3.406  12.488  0.4096 -0.8247 -0.0192
 6080TIP3    H142435   4.356   3.425  12.491  0.5645  0.9507 -2.9900
 6080TIP3    H242436   4.457   3.323  12.441  0.3374 -0.9507  0.1916
 6081TIP3   OH242437   4.628   1.295  11.466  0.2919 -0.2144  0.0426
 6081TIP3    H142438   4.548   1.268  11.510  0.9725 -0.5924  1.1033
 6081TIP3    H242439   4.617   1.389  11.450 -0.8462 -0.4886 -0.9356
 6082TIP3   OH242440   1.828   7.045  12.219  0.7413 -0.0834  0.1268
 6082TIP3    H142441   1.772   6.989  12.273 -0.7640  0.5656 -0.7051
 6082TIP3    H242442   1.855   6.988  12.147  0.2942 -0.1288 -0.0109
 6083TIP3   OH242443   0.448   3.029  11.254 -0.3816  0.6030 -0.4955
 6083TIP3    H142444   0.404   3.109  11.281 -0.9765  1.0631 -2.6234
 6083TIP3    H242445   0.527   3.058  11.208  0.1439 -0.0814 -0.0399
 6084TIP3   OH242446   2.045   5.584  10.556 -0.0921 -0.2823 -0.3539
 6084TIP3    H142447   2.031   5.679  10.560 -1.4095 -0.4946  0.6142
 6084TIP3    H242448   2.129   5.570  10.600 -1.0963  0.2121  1.8307
 6085TIP3   OH242449   0.054   3.878  12.944 -0.0358 -0.8181  0.2612
 6085TIP3    H142450   0.017   3.870  13.032 -1.2564 -0.4535 -0.2039
 6085TIP3    H242451  -0.021   3.870  12.885  0.5509  0.3260 -0.7010
 6086TIP3   OH242452   6.569   2.483  10.782  0.4253 -0.0450 -0.1564
 6086TIP3    H142453   6.648   2.523  10.745  0.6376 -0.9275 -0.6852
 6086TIP3    H242454   6.554   2.405  10.728 -0.0054 -0.6528  0.8258
 6087TIP3   OH242455   5.600   7.149  10.752  0.1164  0.0527  0.3121
 6087TIP3    H142456   5.611   7.235  10.711  0.5774 -0.5809 -0.9469
 6087TIP3    H242457   5.627   7.163  10.843 -2.7524  1.9599  1.0214
 6088TIP3   OH242458   7.231   3.920  12.134 -0.1268  0.3277  0.2043
 6088TIP3    H142459   7.191   3.863  12.069 -0.0873  0.0037  0.4600
 6088TIP3    H242460   7.177   3.998  12.135  0.6916  0.9410 -1.2402
 6089TIP3   OH242461   0.564   3.899  11.699  0.2111  0.1981  0.0461
 6089TIP3    H142462   0.608   3.874  11.618  1.7446  0.3059  0.7964
 6089TIP3    H242463   0.479   3.933  11.671  0.1890 -0.9457 -1.3943
 6090TIP3   OH242464   0.975   2.020  12.217 -0.0928  0.4605 -0.2815
 6090TIP3    H142465   0.982   2.064  12.302 -1.2978 -3.0834  1.8594
 6090TIP3    H242466   0.881   2.004  12.206  0.3080 -2.0504 -0.5783
 6091TIP3   OH242467   6.362   1.057  11.466  0.4134 -0.0919  0.0550
 6091TIP3    H142468   6.343   1.006  11.387  2.1488  0.5774 -0.8446
 6091TIP3    H242469   6.436   1.012  11.505  0.8754  0.7541  0.1709
 6092TIP3   OH242470   5.165   4.956  13.016 -0.1238  0.4384  0.1546
 6092TIP3    H142471   5.253   4.918  13.010  0.6873  2.2008  0.1934
 6092TIP3    H242472   5.130   4.922  13.099  0.1922 -0.8984 -0.2429
 6093TIP3   OH242473   1.167   2.465  12.188 -0.6630  0.2219 -0.5922
 6093TIP3    H142474   1.140   2.390  12.136 -0.2127  0.5674 -1.3444
 6093TIP3    H242475   1.138   2.541  12.138  0.4246  0.5768 -0.7217
 6094TIP3   OH242476   1.061   1.959  11.975 -0.4391  0.2251 -0.2480
 6094TIP3    H142477   0.999   2.029  11.952  0.8997  1.4517 -0.3126
 6094TIP3    H242478   1.054   1.951  12.070  0.0098  1.0700 -0.1342
 6095TIP3   OH242479   0.268   4.711  12.470 -0.4028 -1.0613 -0.5051
 6095TIP3    H142480   0.290   4.643  12.406 -0.3142 -0.8758 -0.6698
 6095TIP3    H242481   0.213   4.666  12.534  0.6250 -1.5969  0.0335
 6096TIP3   OH242482   1.306   5.175  12.014  0.0194 -0.0904  0.1470
 6096TIP3    H142483   1.314   5.201  12.106 -1.2616 -1.4502  0.7075
 6096TIP3    H242484   1.295   5.257  11.966 -0.9621  0.5833  1.4458
 6097TIP3   OH242485   3.654   4.542  11.924  0.1432 -0.5164 -0.0006
 6097TIP3    H142486   3.739   4.511  11.956 -0.0803 -0.9333  0.2032
 6097TIP3    H242487   3.673   4.624  11.879  0.2670  1.1358  2.8056
 6098TIP3   OH242488   6.806   2.545  12.196 -0.9526 -0.4243 -0.0212
 6098TIP3    H142489   6.896   2.521  12.174 -1.2982 -0.4961 -1.4500
 6098TIP3    H242490   6.814   2.592  12.279  0.1032 -2.5213  1.1428
 6099TIP3   OH242491   4.877   1.346  12.058 -1.0281  0.5127 -0.2513
 6099TIP3    H142492   4.782   1.345  12.049 -0.9712 -0.2679 -0.9088
 6099TIP3    H242493   4.898   1.434  12.090 -1.7241  1.7944 -3.0495
 6100TIP3   OH242494   2.069   6.731  12.198  0.3228 -0.5779 -0.1233
 6100TIP3    H142495   2.076   6.673  12.122 -0.6932 -2.0765  0.8722
 6100TIP3    H242496   1.976   6.751  12.204  0.4047 -0.4344  0.7050
 6101TIP3   OH242497   5.532   5.559  11.231 -0.1023 -0.4383 -0.0985
 6101TIP3    H142498   5.558   5.649  11.250  1.9321 -0.7443 -1.0383
 6101TIP3    H242499   5.601   5.527  11.171 -1.8360 -1.9819 -1.3822
 6102TIP3   OH242500   4.712   2.608  11.337 -0.4171 -0.2988  0.5795
 6102TIP3    H142501   4.702   2.628  11.430  0.3642  3.1533  0.0223
 6102TIP3    H242502   4.624   2.620  11.301 -0.4095 -0.1349  0.6173
 6103TIP3   OH242503   0.009   0.951  12.495  0.2516 -0.1206  0.1838
 6103TIP3    H142504  -0.025   1.027  12.541  0.9575 -1.1039  2.4904
 6103TIP3    H242505  -0.036   0.951  12.411 -2.1312  1.0453  1.3790
 6104TIP3   OH242506   6.743   5.683  11.142 -0.0577 -0.2844  0.0696
 6104TIP3    H142507   6.667   5.628  11.160 -1.2612  1.6180  1.1991
 6104TIP3    H242508   6.784   5.697  11.227  0.3695  0.3665 -0.2300
 6105TIP3   OH242509   4.405   0.355  11.117 -0.2399  1.1157  0.2305
 6105TIP3    H142510   4.416   0.315  11.203  1.5386 -0.9301 -0.8353
 6105TIP3    H242511   4.322   0.321  11.084 -0.4627  1.1605  0.7419
 6106TIP3   OH242512   0.840   3.510  11.366  0.3213 -0.2275  0.1832
 6106TIP3    H142513   0.826   3.416  11.369 -1.3303 -0.0044  0.3714
 6106TIP3    H242514   0.752   3.548  11.370  0.6818  1.2715 -3.0642
 6107TIP3   OH242515   0.986   0.010  11.220  0.7083  0.1818  0.3070
 6107TIP3    H142516   0.937   0.092  11.211 -0.6289 -0.6322 -0.0607
 6107TIP3    H242517   1.026   0.017  11.307  1.9384  1.8817 -0.3249
 6108TIP3   OH242518   0.658   2.957  10.900 -0.0602  0.2998  0.1523
 6108TIP3    H142519   0.650   3.042  10.856  0.7698  0.4156  0.2093
 6108TIP3    H242520   0.669   2.978  10.992  1.3491  0.2072  0.0354
 6109TIP3   OH242521   0.531   5.421  12.754 -0.4975  0.2229 -0.0537
 6109TIP3    H142522   0.453   5.408  12.808 -0.6144 -0.4875 -0.3877
 6109TIP3    H242523   0.504   5.395  12.666 -0.3583  1.5434 -0.5106
 6110TIP3   OH242524   5.890   4.269  10.735 -0.1221 -0.0480  0.1101
 6110TIP3    H142525   5.871   4.289  10.826  1.4505  2.1008  0.0595
 6110TIP3    H242526   5.822   4.315  10.686  0.4393  0.8456  0.1526
 6111TIP3   OH242527   5.262   4.346  12.720 -0.7218 -0.4443 -0.5674
 6111TIP3    H142528   5.231   4.436  12.705 -1.4148 -0.7611 -1.1140
 6111TIP3    H242529   5.210   4.293  12.660  1.2541 -0.9620 -1.9270
 6112TIP3   OH242530   3.602   2.644  11.578  0.2084 -0.3395 -0.5782
 6112TIP3    H142531   3.508   2.663  11.572 -0.0246 -1.1927  0.1625
 6112TIP3    H242532   3.632   2.645  11.487 -0.3321  0.7996 -0.7643
 6113TIP3   OH242533   1.962   1.011  12.178 -0.0241  0.4306 -0.0247
 6113TIP3    H142534   2.039   1.054  12.141 -0.4216 -0.3145 -1.8480
 6113TIP3    H242535   1.958   0.926  12.133 -1.3312  0.0314  0.7847
 6114TIP3   OH242536   7.556   6.867  11.831  0.5108  0.4899 -0.4107
 6114TIP3    H142537   7.492   6.928  11.794  1.2262  0.5282 -1.6370
 6114TIP3    H242538   7.520   6.843  11.917 -0.9740  0.7459 -0.9418
 6115TIP3   OH242539   4.898   6.601  10.320  0.2603 -0.3539  0.6540
 6115TIP3    H142540   4.948   6.601  10.239 -1.3845 -1.0890 -0.4175
 6115TIP3    H242541   4.933   6.674  10.371  0.9835  0.4350 -0.9381
 6116TIP3   OH242542   1.257   0.883  12.337 -0.2171 -0.4385  0.2472
 6116TIP3    H142543   1.278   0.840  12.420  0.0808 -2.3094 -0.7444
 6116TIP3    H242544   1.309   0.963  12.338 -0.0037 -0.5613  1.7226
 6117TIP3   OH242545   0.159   0.094  12.333  0.4747  0.3524 -0.0848
 6117TIP3    H142546   0.249   0.085  12.302  0.1350  0.1109 -1.0454
 6117TIP3    H242547   0.108   0.037  12.276 -0.3440  0.8001  0.1790
 6118TIP3   OH242548   4.642   7.102  10.409 -0.2946  0.0695  0.3466
 6118TIP3    H142549   4.664   7.156  10.333 -0.2702 -0.2267  0.1416
 6118TIP3    H242550   4.726   7.077  10.446 -0.2683  1.9750  1.7557
 6119TIP3   OH242551   0.928   2.498  11.825  0.3996 -0.3652 -0.3746
 6119TIP3    H142552   0.861   2.541  11.877  0.8779 -0.5815  0.4494
 6119TIP3    H242553   0.930   2.546  11.743 -1.5971 -1.0965 -0.9215
 6120TIP3   OH242554   1.434   6.989  10.808  0.1054  0.0764  0.0013
 6120TIP3    H142555   1.373   7.036  10.751 -1.2895 -0.6291  0.8784
 6120TIP3    H242556   1.464   7.056  10.870 -0.2926  0.2804 -0.0225
 6121TIP3   OH242557   3.574   0.558  11.888 -0.2979 -0.1249 -0.1341
 6121TIP3    H142558   3.566   0.619  11.815  2.5919  1.6520  0.8689
 6121TIP3    H242559   3.635   0.491  11.857  0.0526  0.0118  0.2498
 6122TIP3   OH242560   2.415   1.304  12.820 -0.3143 -0.3480  0.3262
 6122TIP3    H142561   2.346   1.351  12.774  0.2451  0.1823  0.0117
 6122TIP3    H242562   2.375   1.221  12.847 -0.1278 -1.5718 -2.7891
 6123TIP3   OH242563   7.243   3.463  11.396  0.5315 -0.0768 -0.9566
 6123TIP3    H142564   7.294   3.405  11.339  1.4121 -0.4590  0.1815
 6123TIP3    H242565   7.251   3.550  11.355 -0.0906 -0.5893 -2.2110
 6124TIP3   OH242566   6.210   0.819  11.185  0.1265 -0.3595 -0.2420
 6124TIP3    H142567   6.242   0.740  11.143  0.7921 -0.6966  0.8623
 6124TIP3    H242568   6.191   0.793  11.275 -0.5137  0.5235 -0.1036
 6125TIP3   OH242569   1.455   5.189  12.526 -0.1266  0.2841 -0.0126
 6125TIP3    H142570   1.427   5.120  12.585 -0.6292 -0.3856 -1.0057
 6125TIP3    H242571   1.527   5.150  12.475 -0.4626  0.4542 -0.6324
 6126TIP3   OH242572   3.336   6.539  12.743  0.1500  0.2080 -0.2525
 6126TIP3    H142573   3.398   6.605  12.775 -0.3916 -0.2379  1.8340
 6126TIP3    H242574   3.251   6.583  12.747 -0.1291 -0.3998  0.5097
 6127TIP3   OH242575   6.261   0.350  11.090 -0.2946 -1.0533  0.2230
 6127TIP3    H142576   6.353   0.355  11.115  0.3906  0.2127 -2.1914
 6127TIP3    H242577   6.216   0.410  11.150  0.7553 -0.2987  0.2766
 6128TIP3   OH242578   2.887   6.693  12.491 -0.5534  0.2028  0.4585
 6128TIP3    H142579   2.870   6.624  12.555 -2.2786 -0.5884 -0.7688
 6128TIP3    H242580   2.848   6.661  12.410  1.6521  1.1318 -1.0643
 6129TIP3   OH242581   3.981   7.622  12.133 -0.2835  0.4210  0.2618
 6129TIP3    H142582   4.049   7.617  12.201  0.6478  0.2708 -0.6570
 6129TIP3    H242583   3.905   7.581  12.173  0.3762 -0.0764  1.0572
 6130TIP3   OH242584   5.981   3.808  10.745  0.5053 -0.5686  0.1849
 6130TIP3    H142585   5.948   3.895  10.723 -0.7329 -1.0780 -0.0422
 6130TIP3    H242586   5.999   3.812  10.839  2.7060  0.6170 -0.1928
 6131TIP3   OH242587   4.765   6.873  11.425 -0.1234 -0.4101 -0.2310
 6131TIP3    H142588   4.744   6.925  11.503 -0.2393 -0.0464 -0.5024
 6131TIP3    H242589   4.860   6.864  11.427  0.0719  1.1104 -0.9864
 6132TIP3   OH242590   4.069   4.557  11.027 -0.2340  0.0462 -0.5365
 6132TIP3    H142591   4.155   4.589  11.052 -0.2733  0.1485 -0.5343
 6132TIP3    H242592   4.087   4.473  10.983 -0.1743 -0.1810 -0.0825
 6133TIP3   OH242593   4.682   6.595  13.117 -0.2139  0.3461 -0.2619
 6133TIP3    H142594   4.756   6.656  13.123  0.8620 -0.9997  0.7182
 6133TIP3    H242595   4.618   6.628  13.180  0.7113  0.0350  0.8775
 6134TIP3   OH242596   7.430   1.615  12.745 -0.3712  0.1686 -0.4117
 6134TIP3    H142597   7.505   1.566  12.777 -1.1667 -0.2105  0.9155
 6134TIP3    H242598   7.463   1.659  12.666  1.4836  0.7127  0.6139
 6135TIP3   OH242599   7.421   1.055  11.504 -0.6669 -0.0104 -0.1730
 6135TIP3    H142600   7.379   1.091  11.582  0.1037 -0.7024  0.5870
 6135TIP3    H242601   7.449   1.131  11.454 -0.4534  0.4551  0.6348
 6136TIP3   OH242602   0.293   2.038  12.391 -0.3695 -0.0788  0.2601
 6136TIP3    H142603   0.233   2.026  12.465 -0.5875  1.0232  0.2819
 6136TIP3    H242604   0.338   2.120  12.410  3.5727 -2.3454  1.8626
 6137TIP3   OH242605   4.953   4.513  11.587  0.7023 -0.4605  0.0120
 6137TIP3    H142606   5.042   4.544  11.572  0.5782  0.5875  1.3385
 6137TIP3    H242607   4.927   4.551  11.670 -0.6843 -1.4627  0.0773
 6138TIP3   OH242608   0.520   4.997  10.870  0.1337  0.0964 -0.5068
 6138TIP3    H142609   0.596   4.965  10.919  0.3295 -0.8374 -1.3903
 6138TIP3    H242610   0.447   4.943  10.900  0.4509 -1.2058 -1.9473
 6139TIP3   OH242611   2.083   6.597  11.943 -0.0785 -0.9093  0.1498
 6139TIP3    H142612   2.045   6.509  11.944 -0.8667 -0.6130 -1.0954
 6139TIP3    H242613   2.076   6.625  11.852 -1.1097  0.9664  0.7558
 6140TIP3   OH242614   1.789   1.002  11.376  0.6469 -0.4557 -0.2067
 6140TIP3    H142615   1.866   0.952  11.348  1.1453  0.5865 -0.7495
 6140TIP3    H242616   1.825   1.083  11.412 -0.2446  1.2969 -2.9602
 6141TIP3   OH242617   6.360   2.298  12.198  0.4751  0.2478 -0.3390
 6141TIP3    H142618   6.364   2.204  12.216 -0.5301  0.3800  0.7092
 6141TIP3    H242619   6.267   2.320  12.205  0.9280  1.8108  2.2145
 6142TIP3   OH242620   0.212   0.771  12.187 -0.2307 -0.3314  0.5023
 6142TIP3    H142621   0.255   0.729  12.261 -0.2973 -2.7386 -0.7059
 6142TIP3    H242622   0.278   0.771  12.118 -0.5366  0.7688  0.1919
 6143TIP3   OH242623   6.001   4.623  12.712 -0.8381 -0.6980 -0.1074
 6143TIP3    H142624   5.973   4.585  12.629  2.7191 -0.2760 -1.6866
 6143TIP3    H242625   6.035   4.549  12.762 -1.7132 -0.7428  0.4480
 6144TIP3   OH242626   4.987   5.534  10.581  0.0267 -0.2593  0.0843
 6144TIP3    H142627   5.079   5.524  10.554  0.3827 -0.6044  1.3709
 6144TIP3    H242628   4.961   5.445  10.607 -0.3261  0.0415  0.7706
 6145TIP3   OH242629   7.549   1.765  12.950 -0.3142  0.1691 -0.3035
 6145TIP3    H142630   7.484   1.720  12.896 -0.3887  0.3766 -0.3901
 6145TIP3    H242631   7.633   1.740  12.912 -0.3487 -0.0058 -0.2651
 6146TIP3   OH242632   5.028   6.445  12.283 -0.3771 -1.0228 -0.2357
 6146TIP3    H142633   5.121   6.426  12.268 -0.2341 -1.1891  0.7603
 6146TIP3    H242634   5.004   6.503  12.211  1.0671  0.7313  0.6177
 6147TIP3   OH242635   1.772   2.342  12.510  0.0952 -0.0343 -0.0081
 6147TIP3    H142636   1.792   2.328  12.602  2.7001  1.0138 -0.3209
 6147TIP3    H242637   1.776   2.437  12.498 -1.2494 -0.0720 -1.0121
 6148TIP3   OH242638   2.081   4.430  11.109  0.0937  0.0678  0.4902
 6148TIP3    H142639   2.087   4.344  11.151 -1.3124  0.8423  2.3688
 6148TIP3    H242640   2.092   4.493  11.180 -0.8140  1.4400 -0.5439
 6149TIP3   OH242641   5.617   0.509  12.711  0.5136 -0.3472  0.2992
 6149TIP3    H142642   5.540   0.455  12.731  0.5411 -0.4948  0.0177
 6149TIP3    H242643   5.684   0.480  12.772  0.7814 -1.1998 -0.3712
 6150TIP3   OH242644   6.281   4.615  11.265  0.2544 -0.0780 -0.1864
 6150TIP3    H142645   6.375   4.631  11.270  0.4855 -1.4010  0.0093
 6150TIP3    H242646   6.267   4.535  11.315 -1.2155  0.9420  1.1316
 6151TIP3   OH242647   2.154   5.524  12.702 -0.3507 -0.0848 -0.5980
 6151TIP3    H142648   2.228   5.465  12.716 -1.1636 -1.2540 -1.0701
 6151TIP3    H242649   2.165   5.593  12.767  1.3953  0.0200 -0.9596
 6152TIP3   OH242650   1.239   5.908  10.780  0.0849 -0.3424 -0.5276
 6152TIP3    H142651   1.303   5.837  10.772  0.7133  0.2680 -0.9533
 6152TIP3    H242652   1.282   5.973  10.835 -0.9482 -0.7859  0.8719
 6153TIP3   OH242653   2.836   2.290  11.616  0.0416  0.3340 -0.1493
 6153TIP3    H142654   2.862   2.199  11.633 -1.9272 -0.2845 -0.2185
 6153TIP3    H242655   2.741   2.289  11.622 -0.0601  2.2806 -0.8200
 6154TIP3   OH242656   6.896   5.806  10.712 -0.1997 -0.7204  0.0489
 6154TIP3    H142657   6.932   5.753  10.783 -0.1444 -0.0498  0.5302
 6154TIP3    H242658   6.809   5.769  10.696 -0.1554 -0.9664  0.3692
 6155TIP3   OH242659   4.476   3.715  11.986 -0.9758 -0.2243  0.3531
 6155TIP3    H142660   4.524   3.798  11.982 -0.5661 -0.4793 -0.0853
 6155TIP3    H242661   4.435   3.707  11.899  1.4832 -1.9525 -0.7426
 6156TIP3   OH242662   7.642   5.946  11.266  0.1361 -0.5255  0.0290
 6156TIP3    H142663   7.696   5.942  11.345  0.1506  1.5358  0.1748
 6156TIP3    H242664   7.703   5.924  11.195  0.9282  0.6856  0.3062
 6157TIP3   OH242665   2.750   5.675  11.783 -0.4060  0.1087 -0.1581
 6157TIP3    H142666   2.655   5.662  11.772  0.0281 -1.7109 -2.4636
 6157TIP3    H242667   2.782   5.689  11.695  1.6130 -0.2967  0.4719
 6158TIP3   OH242668   6.387   2.553  12.746 -1.0908 -0.3105 -0.5767
 6158TIP3    H142669   6.445   2.479  12.763  1.1899  1.4621 -0.1604
 6158TIP3    H242670   6.299   2.520  12.767 -0.0570 -2.5358  0.6049
 6159TIP3   OH242671   2.441   3.010  11.163 -0.2759  0.1996  0.4139
 6159TIP3    H142672   2.362   3.062  11.149 -0.7662 -0.4558  0.6769
 6159TIP3    H242673   2.505   3.072  11.199 -0.1401  1.0877 -1.2555
 6160TIP3   OH242674   4.141   6.633  10.324 -0.1241  0.1792 -0.5013
 6160TIP3    H142675   4.126   6.718  10.283 -2.0572  0.6454  1.0370
 6160TIP3    H242676   4.230   6.638  10.359 -0.8971  2.3862  1.3553
 6161TIP3   OH242677   1.951   3.530  12.589  0.6649 -0.2972  0.6818
 6161TIP3    H142678   1.915   3.513  12.502 -1.5136 -0.2206  1.5190
 6161TIP3    H242679   2.046   3.529  12.576  0.3971 -0.4875 -1.6423
 6162TIP3   OH242680   5.745   1.512  10.785 -0.1341 -0.0102  0.0818
 6162TIP3    H142681   5.811   1.443  10.776 -2.2096 -2.1462  0.3457
 6162TIP3    H242682   5.703   1.517  10.700 -1.9054 -1.1705  0.8378
 6163TIP3   OH242683   4.429   5.413  12.509 -0.0566  0.4627 -0.6329
 6163TIP3    H142684   4.408   5.395  12.417  2.4555 -1.1360 -0.9677
 6163TIP3    H242685   4.361   5.367  12.558 -0.3927 -0.1676 -1.6617
 6164TIP3   OH242686   7.316   5.876  10.563 -0.3157  0.2773  0.0253
 6164TIP3    H142687   7.221   5.869  10.578 -1.0718  2.0301 -3.1489
 6164TIP3    H242688   7.336   5.807  10.500  0.4616  0.2236  0.3192
 6165TIP3   OH242689   6.219   3.536  10.947 -0.3073 -0.6246 -0.1511
 6165TIP3    H142690   6.233   3.624  10.912 -1.3711  0.0850  1.1217
 6165TIP3    H242691   6.289   3.525  11.012 -0.0487 -0.8188 -0.4562
 6166TIP3   OH242692   1.002   0.977  12.717  0.4579  0.0203 -0.0724
 6166TIP3    H142693   1.042   1.013  12.796  0.3727  3.4149 -1.4032
 6166TIP3    H242694   1.027   0.885  12.717  2.3081  0.4002  2.7364
 6167TIP3   OH242695   6.413   5.730  13.236 -0.1432 -0.0569  0.0269
 6167TIP3    H142696   6.341   5.772  13.283 -0.6325 -1.2192  0.3704
 6167TIP3    H242697   6.483   5.796  13.235 -1.3675  1.2695 -0.7601
 6168TIP3   OH242698   6.270   2.647  12.241  0.2124 -0.5134  0.1872
 6168TIP3    H142699   6.283   2.693  12.157 -0.9516 -1.1943 -0.3839
 6168TIP3    H242700   6.255   2.556  12.216 -0.5013 -0.6558  1.1254
 6169TIP3   OH242701   3.723   2.517  18.675 -0.5408 -0.1212 -0.5582
 6169TIP3    H142702   3.639   2.493  18.714 -0.0899 -1.6953 -0.4800
 6169TIP3    H242703   3.710   2.505  18.580 -0.3987 -0.3886 -0.5439
 6170TIP3   OH242704   3.142   3.782  12.174 -0.3922 -0.0127  0.7115
 6170TIP3    H142705   3.228   3.755  12.143 -0.2307 -1.3425  2.2077
 6170TIP3    H242706   3.160   3.843  12.246 -0.5977 -1.5319  2.1304
 6171TIP3   OH242707   5.515   2.424  12.218 -0.0847  0.7294  0.1827
 6171TIP3    H142708   5.466   2.502  12.246 -0.7840  0.2900  0.1910
 6171TIP3    H242709   5.497   2.359  12.286  0.2359  0.4536  0.0046
 6172TIP3   OH242710   3.990   6.105  11.461  0.0298 -1.1316 -0.1802
 6172TIP3    H142711   3.932   6.165  11.509  2.4295 -1.4662  3.5555
 6172TIP3    H242712   4.016   6.154  11.383 -0.9971  1.2183  0.8468
 6173TIP3   OH242713   7.114   1.719  12.657 -0.1112 -0.2281  0.2711
 6173TIP3    H142714   7.114   1.696  12.750  0.8932 -1.4501 -0.0011
 6173TIP3    H242715   7.080   1.641  12.613  0.4457 -0.0707 -0.4628
 6174TIP3   OH242716   3.534   2.904  11.346  0.0430  0.4378 -0.1213
 6174TIP3    H142717   3.571   2.972  11.291 -1.9798  1.9900  0.3063
 6174TIP3    H242718   3.486   2.951  11.414 -1.7748 -1.3911 -0.0220
 6175TIP3   OH242719   1.689   5.910  10.878 -0.1437  0.3377  0.0049
 6175TIP3    H142720   1.759   5.855  10.913 -0.0971  0.7573  0.5839
 6175TIP3    H242721   1.663   5.866  10.798  0.6326  0.0532 -0.1058
 6176TIP3   OH242722   4.991   4.966  10.879  0.4397 -0.0810  0.0457
 6176TIP3    H142723   5.060   4.914  10.838 -1.3182 -2.5556  0.0753
 6176TIP3    H242724   4.974   4.923  10.963 -1.9627 -0.3355 -0.4891
 6177TIP3   OH242725   5.629   3.858  11.384  0.0388 -0.1570  0.0491
 6177TIP3    H142726   5.579   3.836  11.305  0.0101  0.2270 -0.0411
 6177TIP3    H242727   5.707   3.903  11.350 -0.3359  0.6821  0.2811
 6178TIP3   OH242728   1.893   3.957  12.667  0.0594 -0.1689  0.2191
 6178TIP3    H142729   1.846   3.873  12.669 -1.1446  0.4881  1.1597
 6178TIP3    H242730   1.842   4.010  12.606  1.0592 -0.2353 -0.6918
 6179TIP3   OH242731   1.609   1.621  12.493  0.0520 -0.2632  0.0641
 6179TIP3    H142732   1.551   1.668  12.432 -0.2824 -0.1343  0.4791
 6179TIP3    H242733   1.697   1.636  12.458 -0.1323 -0.1298 -0.3502
 6180TIP3   OH242734   6.250   3.220  13.132 -0.8374 -0.5413 -0.0765
 6180TIP3    H142735   6.313   3.167  13.083 -2.1433 -0.9808 -1.3246
 6180TIP3    H242736   6.304   3.290  13.171  0.5191 -1.2970 -0.5141
 6181TIP3   OH242737   3.023   4.378  11.571 -0.3090  0.2387  0.1973
 6181TIP3    H142738   2.944   4.430  11.561 -0.7546 -0.7590 -2.1048
 6181TIP3    H242739   3.032   4.366  11.666 -1.8885  1.8599  0.6053
 6182TIP3   OH242740   2.438   4.334  12.683  0.4454  0.1493  0.3882
 6182TIP3    H142741   2.508   4.376  12.734  1.1223 -0.0056 -0.3952
 6182TIP3    H242742   2.442   4.377  12.597  0.3600 -0.6928 -0.0401
 6183TIP3   OH242743   2.161   5.588  11.372  0.2328 -0.4941  0.2744
 6183TIP3    H142744   2.154   5.582  11.276 -0.1808 -2.1638  0.3778
 6183TIP3    H242745   2.210   5.510  11.397  1.1087  0.3871  1.3676
 6184TIP3   OH242746   3.265   1.081  12.441 -0.2088  0.0805  0.1458
 6184TIP3    H142747   3.269   1.142  12.515  0.5074 -1.1694  1.1797
 6184TIP3    H242748   3.176   1.046  12.443 -0.7174  1.2542 -0.6294
 6185TIP3   OH242749   3.310   5.084  12.183  0.5012 -0.8592  1.1373
 6185TIP3    H142750   3.222   5.098  12.146 -0.0020 -3.9658  0.8746
 6185TIP3    H242751   3.329   5.165  12.230 -1.8928  0.4733  0.0318
 6186TIP3   OH242752   7.077   7.476  12.405  0.3424  0.4141 -0.0478
 6186TIP3    H142753   6.991   7.438  12.383 -0.1206  0.8863  0.8932
 6186TIP3    H242754   7.131   7.400  12.427 -0.2063  0.1901  0.5673
 6187TIP3   OH242755   1.141   7.453  12.068  0.2098  0.1817 -0.1643
 6187TIP3    H142756   1.141   7.366  12.028 -1.8385 -0.3126  0.7495
 6187TIP3    H242757   1.187   7.440  12.151  0.8783  0.2329 -0.5267
 6188TIP3   OH242758   6.024   3.922  11.756  0.3614  0.1650 -0.2008
 6188TIP3    H142759   6.062   3.987  11.698  1.0432  0.7343  0.8468
 6188TIP3    H242760   6.095   3.898  11.815 -0.2793 -0.4834  0.3365
 6189TIP3   OH242761   1.206   3.263  11.438  0.0913  0.6175 -0.2252
 6189TIP3    H142762   1.291   3.283  11.477 -0.5326 -0.2966  1.7024
 6189TIP3    H242763   1.171   3.348  11.411  0.1999  1.4548  2.0529
 6190TIP3   OH242764   4.307   7.676  11.617  0.2448 -0.2588 -0.2306
 6190TIP3    H142765   4.224   7.694  11.574 -0.0533 -0.0919  0.3921
 6190TIP3    H242766   4.298   7.587  11.651  1.1700 -1.0994 -2.0588
 6191TIP3   OH242767   2.133   7.170  13.100 -0.1825  0.3793 -0.7023
 6191TIP3    H142768   2.202   7.189  13.037 -0.5207  2.4756 -0.5343
 6191TIP3    H242769   2.170   7.104  13.158  0.9508  0.0596 -1.7511
 6192TIP3   OH242770   6.466   6.359  13.414  0.5465  0.3148 -0.6465
 6192TIP3    H142771   6.404   6.288  13.431  0.8750  0.0037 -0.7329
 6192TIP3    H242772   6.437   6.397  13.332  2.2299 -1.7956 -2.3374
 6193TIP3   OH242773   0.916   5.355  13.580 -0.2044  0.0344 -0.4514
 6193TIP3    H142774   0.974   5.330  13.507 -0.4153 -0.2665 -0.5193
 6193TIP3    H242775   0.887   5.444  13.558  0.7738  0.4644 -0.0714
 6194TIP3   OH242776   2.131   2.001  11.662 -0.9095  0.3676  0.1742
 6194TIP3    H142777   2.058   2.052  11.699 -1.2274  0.2765 -0.3182
 6194TIP3    H242778   2.118   1.913  11.697 -2.2039 -0.1420 -1.4748
 6195TIP3   OH242779   6.968   2.299  10.859  0.2921  0.0104 -0.1088
 6195TIP3    H142780   7.019   2.220  10.843  0.9697  0.3883  0.1418
 6195TIP3    H242781   6.913   2.278  10.934  1.0326  0.0210  0.4488
 6196TIP3   OH242782   5.651   6.443  11.559  0.1401 -0.0501 -0.3667
 6196TIP3    H142783   5.635   6.515  11.620 -2.0295  1.5892 -2.6475
 6196TIP3    H242784   5.608   6.368  11.599  1.6672  0.0607  1.6384
 6197TIP3   OH242785   2.161   3.691  10.829 -0.0156  0.0617 -0.3697
 6197TIP3    H142786   2.208   3.608  10.824 -1.3455 -0.8997  1.5006
 6197TIP3    H242787   2.177   3.722  10.918 -1.7379  0.3853 -0.1344
 6198TIP3   OH242788   5.949   3.255  12.671  0.0962  0.2814  0.7577
 6198TIP3    H142789   5.907   3.231  12.754 -0.4806 -1.3278  0.0269
 6198TIP3    H242790   5.886   3.229  12.604  0.4313  1.8139 -0.2087
 6199TIP3   OH242791   2.026   0.088  11.609 -0.4300  0.0506 -0.1167
 6199TIP3    H142792   2.064   0.175  11.620  1.2191 -0.8282  1.8530
 6199TIP3    H242793   2.091   0.029  11.647 -2.5882 -1.8169  0.9156
 6200TIP3   OH242794   5.631   6.941  11.222 -0.3925  0.1207 -0.2659
 6200TIP3    H142795   5.690   6.936  11.297  0.5109  0.3953 -0.9456
 6200TIP3    H242796   5.543   6.939  11.261  0.0452 -0.6686  0.7352
 6201TIP3   OH242797   0.217   7.142  12.200  0.9311 -0.1338  0.1525
 6201TIP3    H142798   0.157   7.203  12.156  1.0811  0.6671  1.0306
 6201TIP3    H242799   0.199   7.154  12.294  2.1695 -0.1961  0.4124
 6202TIP3   OH242800   7.405   7.015  11.674 -0.2700 -0.1780  0.4060
 6202TIP3    H142801   7.473   7.057  11.622 -1.8234  1.1512 -0.6401
 6202TIP3    H242802   7.368   6.949  11.616 -0.0159 -0.7539  0.8958
 6203TIP3   OH242803   1.146   7.401  12.398  0.0580 -0.2029  0.2106
 6203TIP3    H142804   1.124   7.310  12.379  0.3930 -0.7861  2.3323
 6203TIP3    H242805   1.063   7.447  12.392 -0.2272 -0.7631 -0.2794
 6204TIP3   OH242806   3.791   3.341  11.843 -0.1545 -0.0543  0.3462
 6204TIP3    H142807   3.845   3.306  11.774 -1.4944  1.0967 -1.3806
 6204TIP3    H242808   3.823   3.430  11.856 -1.7954  0.8050 -1.0172
 6205TIP3   OH242809   5.669   0.795  11.097 -0.5416  0.1704  0.0460
 6205TIP3    H142810   5.654   0.883  11.063  1.3952  0.6308  0.2981
 6205TIP3    H242811   5.582   0.765  11.125 -1.4040  1.5701 -0.9930
 6206TIP3   OH242812   6.674   1.517  11.625  0.1590 -0.2514  0.0930
 6206TIP3    H142813   6.713   1.559  11.702 -0.6161 -1.8251  1.4162
 6206TIP3    H242814   6.659   1.426  11.653 -4.1936  0.1167 -0.3396
 6207TIP3   OH242815   3.887   7.370  11.667 -0.2696 -0.1530 -0.7168
 6207TIP3    H142816   3.930   7.386  11.751 -2.6745  1.1665  0.3640
 6207TIP3    H242817   3.882   7.274  11.661 -0.4843 -0.2786  0.9039
 6208TIP3   OH242818   0.109   1.559  11.562  0.6046 -0.0876 -0.3128
 6208TIP3    H142819   0.053   1.597  11.495  1.0061  0.5659 -0.2802
 6208TIP3    H242820   0.189   1.535  11.515  0.5437 -0.4432 -0.2366
 6209TIP3   OH242821   2.557   3.482  10.696 -0.0342  0.1057  0.3554
 6209TIP3    H142822   2.602   3.507  10.616  0.6577 -0.0232  0.7011
 6209TIP3    H242823   2.605   3.525  10.766 -0.2369 -0.3149  0.7597
 6210TIP3   OH242824   0.277   4.148  11.250 -0.4958  0.9014  0.2320
 6210TIP3    H142825   0.291   4.185  11.163  0.1393 -0.7916 -0.4214
 6210TIP3    H242826   0.188   4.114  11.248 -1.1520  2.4794  0.8984
 6211TIP3   OH242827   4.303   6.410  10.630 -0.0778 -0.1151 -0.2465
 6211TIP3    H142828   4.354   6.334  10.602  1.1960  0.7332 -0.2792
 6211TIP3    H242829   4.288   6.460  10.550 -1.2314 -0.4921 -0.2871
 6212TIP3   OH242830   0.815   6.286  10.323 -0.4282  0.4673 -0.0954
 6212TIP3    H142831   0.803   6.374  10.358 -0.7752  0.5481 -0.4043
 6212TIP3    H242832   0.889   6.294  10.262  0.4687  0.2297  0.9297
 6213TIP3   OH242833   2.643   3.315  12.909  0.1427 -0.0462 -0.5331
 6213TIP3    H142834   2.597   3.276  12.983  0.2046 -0.0309 -0.4862
 6213TIP3    H242835   2.637   3.409  12.923  0.0188 -0.0386 -0.6312
 6214TIP3   OH242836   2.807   6.991  11.239 -0.2837  0.3963  0.1786
 6214TIP3    H142837   2.800   7.033  11.153  1.1172 -0.5046 -0.4084
 6214TIP3    H242838   2.731   6.933  11.243  0.4749 -0.7437 -1.1522
 6215TIP3   OH242839   5.480   5.587  10.588  0.5001  0.1128  0.2533
 6215TIP3    H142840   5.504   5.675  10.556  1.4927  0.7786  2.6209
 6215TIP3    H242841   5.434   5.604  10.670  1.4244 -1.6117  1.1606
 6216TIP3   OH242842   0.109   4.346  11.841  0.1271 -0.2905 -0.1241
 6216TIP3    H142843   0.060   4.410  11.892 -0.9010 -0.5340 -0.7667
 6216TIP3    H242844   0.137   4.393  11.763  0.3574 -0.3231 -0.0613
 6217TIP3   OH242845   1.679   1.054  11.883  0.0787 -0.4073  0.5030
 6217TIP3    H142846   1.698   1.101  11.964  0.3337  0.3820 -0.0085
 6217TIP3    H242847   1.749   1.081  11.823 -1.1602  0.4984 -0.5776
 6218TIP3   OH242848   3.133   6.690  10.939 -0.3377 -0.7607 -0.2991
 6218TIP3    H142849   3.172   6.665  11.023 -1.0213 -1.9496 -0.3239
 6218TIP3    H242850   3.054   6.738  10.963  0.0364 -0.1523 -0.2650
 6219TIP3   OH242851   3.049   4.392  12.572  0.2747 -0.2940  0.5367
 6219TIP3    H142852   2.989   4.343  12.517 -0.5835  0.3751  0.8504
 6219TIP3    H242853   3.073   4.469  12.520  0.5830 -0.3734  0.5548
 6220TIP3   OH242854   3.742   6.322  11.989 -0.0881 -0.4509  0.1787
 6220TIP3    H142855   3.679   6.363  11.930  0.5925  1.5549  0.7699
 6220TIP3    H242856   3.731   6.368  12.072  1.6012 -0.5755  0.5101
 6221TIP3   OH242857   7.329   0.753  10.947 -0.5813  0.4297 -0.0427
 6221TIP3    H142858   7.322   0.680  11.008 -0.7632  1.2335  0.9215
 6221TIP3    H242859   7.239   0.772  10.922 -0.6136  0.8575  0.3736
 6222TIP3   OH242860   4.981   7.473  11.414  0.1891 -0.0210  0.2829
 6222TIP3    H142861   5.046   7.433  11.472  1.1269 -0.8705 -1.2701
 6222TIP3    H242862   4.910   7.409  11.409  0.0172  0.1397  0.6311
 6223TIP3   OH242863   5.509   3.186  11.703  0.5170 -0.5557  0.0989
 6223TIP3    H142864   5.493   3.247  11.631  1.9353 -2.0322 -1.5653
 6223TIP3    H242865   5.550   3.240  11.772 -0.2177  0.7494 -0.4621
 6224TIP3   OH242866   4.887   1.113  11.076 -0.1870 -0.1058  0.4859
 6224TIP3    H142867   4.906   1.064  11.156 -0.6045 -0.1878  0.5364
 6224TIP3    H242868   4.836   1.188  11.105 -1.5679 -0.8851  0.1400
 6225TIP3   OH242869   2.880   5.035  12.667  0.0781  1.2939  0.1864
 6225TIP3    H142870   2.832   4.993  12.596  1.8206 -2.5791  1.0575
 6225TIP3    H242871   2.954   5.077  12.625 -0.9272  2.3648 -0.5797
 6226TIP3   OH242872   2.874   3.064  10.880 -0.3306  0.3970  0.3794
 6226TIP3    H142873   2.799   3.120  10.858 -0.3707 -0.0453 -0.6804
 6226TIP3    H242874   2.909   3.037  10.795 -0.2708 -1.1404  0.8623
 6227TIP3   OH242875   5.984   0.237  10.870  0.4717 -0.0326 -0.2743
 6227TIP3    H142876   5.899   0.220  10.830  0.3540 -0.3767  0.1266
 6227TIP3    H242877   5.976   0.326  10.907  0.5821  0.2886 -1.0059
 6228TIP3   OH242878   3.274   6.493  10.547 -0.1994  0.0289  0.1289
 6228TIP3    H142879   3.211   6.444  10.493 -0.8144  0.8629  0.0687
 6228TIP3    H242880   3.227   6.512  10.628  0.0549  0.4510  0.1811
 6229TIP3   OH242881   3.334   2.852  11.559 -0.7155 -0.0063  0.4384
 6229TIP3    H142882   3.298   2.776  11.606 -0.6709  0.2487  0.8875
 6229TIP3    H242883   3.258   2.909  11.545 -0.4327  0.7626  1.8237
 6230TIP3   OH242884   5.984   5.094  11.764  0.1358 -0.0345  0.0879
 6230TIP3    H142885   5.946   5.163  11.710 -0.4938  0.0286  0.5982
 6230TIP3    H242886   6.015   5.028  11.701  0.6955  0.6795 -0.3975
 6231TIP3   OH242887   6.367   7.476  12.028 -0.2882  0.1852 -0.3356
 6231TIP3    H142888   6.420   7.491  11.950  0.5305  1.2742  0.3950
 6231TIP3    H242889   6.382   7.384  12.050  0.6263  0.2549 -0.6350
 6232TIP3   OH242890   1.498   2.525  12.161  0.6661  0.3944  0.2507
 6232TIP3    H142891   1.519   2.618  12.154 -1.1967  0.7628 -0.7535
 6232TIP3    H242892   1.497   2.493  12.071 -0.5374 -0.1570  0.4405
 6233TIP3   OH242893   2.590   7.610  12.169 -0.0885  0.0365  0.1526
 6233TIP3    H142894   2.576   7.658  12.087 -1.1429  0.1520  0.3830
 6233TIP3    H242895   2.529   7.651  12.231  0.2847 -0.4290  0.8369
 6234TIP3   OH242896   0.808   5.255  11.838 -0.1337 -0.4856  0.3435
 6234TIP3    H142897   0.859   5.327  11.801 -1.9377  0.9202  0.4780
 6234TIP3    H242898   0.743   5.235  11.770 -0.3637 -1.2389  0.7762
 6235TIP3   OH242899   6.883   5.909  12.250 -0.0041  0.1968  0.4304
 6235TIP3    H142900   6.884   5.970  12.324 -2.8892  0.4910  0.3140
 6235TIP3    H242901   6.896   5.964  12.173  1.2999  0.1060  0.5628
 6236TIP3   OH242902   1.098   2.398  12.708 -0.3083 -0.0843 -0.3449
 6236TIP3    H142903   1.009   2.420  12.735 -0.1859 -0.4141  0.3252
 6236TIP3    H242904   1.090   2.310  12.669  0.2880 -1.7679  3.0086
 6237TIP3   OH242905   4.035   4.569  12.032 -0.0223  0.3060 -0.0949
 6237TIP3    H142906   3.960   4.582  12.090 -0.5795  1.3606 -0.9919
 6237TIP3    H242907   4.038   4.650  11.980  1.6403  0.2038 -0.1893
 6238TIP3   OH242908   5.373   4.177  11.620 -0.1736 -0.2347  0.0105
 6238TIP3    H142909   5.362   4.095  11.572  1.9536 -0.8935  0.5152
 6238TIP3    H242910   5.343   4.156  11.709 -1.3330  0.1073 -0.2827
 6239TIP3   OH242911   3.893   2.429  12.278  0.2589  0.0739 -0.6319
 6239TIP3    H142912   3.910   2.523  12.285  2.4713 -0.2753 -0.8159
 6239TIP3    H242913   3.864   2.417  12.188  0.4034  0.5088 -0.7405
 6240TIP3   OH242914   3.390   2.617  12.086  0.2575 -0.9945  0.4010
 6240TIP3    H142915   3.413   2.525  12.099 -0.7566 -1.4376 -0.6723
 6240TIP3    H242916   3.469   2.657  12.050  0.7258 -1.4214  0.9317
 6241TIP3   OH242917   2.058   2.370  11.639 -0.2119 -0.8300 -0.7170
 6241TIP3    H142918   2.103   2.290  11.668  1.4418  0.5340  0.6974
 6241TIP3    H242919   2.023   2.408  11.720  0.1769  0.5344 -1.1681
 6242TIP3   OH242920   7.163   1.158  12.431 -0.2324 -0.6583 -0.7304
 6242TIP3    H142921   7.087   1.156  12.373  0.1788  0.3075 -1.3405
 6242TIP3    H242922   7.210   1.238  12.405 -0.5471  0.3537  1.5930
 6243TIP3   OH242923   2.989   1.122  11.013 -0.0650  0.1535  0.4771
 6243TIP3    H142924   3.033   1.194  11.059  0.0510 -0.4961  1.4218
 6243TIP3    H242925   2.929   1.165  10.953 -0.6307  1.0643  1.6426
 6244TIP3   OH242926   2.072   3.109  12.952 -0.0286 -0.1991  0.0184
 6244TIP3    H142927   2.148   3.085  13.005  0.4957  1.3030 -0.0087
 6244TIP3    H242928   2.104   3.180  12.895 -1.2413 -0.0837 -0.5488
 6245TIP3   OH242929   6.892   7.511  11.477  0.5751  0.0282  0.5971
 6245TIP3    H142930   6.822   7.535  11.417 -0.0068 -2.5757  0.1322
 6245TIP3    H242931   6.968   7.559  11.445 -0.8067  2.5655  0.8480
 6246TIP3   OH242932   1.686   3.014  11.517 -0.6552 -0.1537 -0.6273
 6246TIP3    H142933   1.781   3.003  11.523 -0.2571  2.4346 -0.7959
 6246TIP3    H242934   1.654   2.994  11.605  0.1918 -0.0647 -0.2866
 6247TIP3   OH242935   5.103   6.318  12.831 -0.2015 -0.4325 -0.0707
 6247TIP3    H142936   5.156   6.390  12.865 -0.9607  0.5133 -0.8400
 6247TIP3    H242937   5.094   6.258  12.905 -0.5405  0.8335  0.9382
 6248TIP3   OH242938   6.141   0.839  10.678  0.4391 -0.1778  0.1053
 6248TIP3    H142939   6.124   0.854  10.771  0.3976 -0.2171  0.1032
 6248TIP3    H242940   6.225   0.882  10.661  0.0282  0.5652 -0.0379
 6249TIP3   OH242941   1.012   3.079  12.987 -0.2792  1.3258  0.1766
 6249TIP3    H142942   1.067   3.022  13.040 -0.7056  0.4857 -0.2719
 6249TIP3    H242943   0.977   3.022  12.918  0.5329  2.4620 -1.2383
 6250TIP3   OH242944   2.363   5.287  11.768  0.5220  0.1951 -0.2791
 6250TIP3    H142945   2.270   5.278  11.791  0.8116 -1.0045  0.4828
 6250TIP3    H242946   2.409   5.234  11.833  1.7708  0.9707 -0.5047
 6251TIP3   OH242947   3.845   5.824  13.178 -0.2225 -0.0752 -0.1564
 6251TIP3    H142948   3.877   5.858  13.095  1.4685 -1.7230 -0.2495
 6251TIP3    H242949   3.880   5.885  13.244 -2.3795  1.8051 -0.6047
 6252TIP3   OH242950   6.754   1.341  12.405  0.5269  0.0362 -0.2669
 6252TIP3    H142951   6.812   1.334  12.329  0.9766  0.7515  0.0037
 6252TIP3    H242952   6.705   1.258  12.406  2.1692 -0.9793  0.0158
 6253TIP3   OH242953   4.965   1.881  11.707 -0.2042 -0.6885 -0.1032
 6253TIP3    H142954   5.034   1.914  11.649  0.2419 -1.4154 -0.0016
 6253TIP3    H242955   4.894   1.944  11.698  0.4673  0.0662 -0.2207
 6254TIP3   OH242956   0.565   4.882  11.480 -0.0574  0.1457 -0.1147
 6254TIP3    H142957   0.561   4.806  11.422 -0.2375 -1.4527  1.8870
 6254TIP3    H242958   0.644   4.868  11.533 -0.4022  1.0540  0.6772
 6255TIP3   OH242959   6.958   7.023  10.428 -0.6351  0.5768 -0.1879
 6255TIP3    H142960   6.946   7.032  10.333  0.3841 -0.0095 -0.3943
 6255TIP3    H242961   6.887   7.074  10.466 -0.4853  1.6458 -1.2610
 6256TIP3   OH242962   6.236   6.890  12.218  0.3830 -0.2620 -0.6738
 6256TIP3    H142963   6.316   6.845  12.190 -0.1539 -0.9328 -1.1717
 6256TIP3    H242964   6.200   6.927  12.138 -0.6008 -1.2781 -0.7416
 6257TIP3   OH242965   6.837   7.154  10.947  0.4834  0.1360  0.6112
 6257TIP3    H142966   6.897   7.159  10.872  0.1499 -0.2243  0.3164
 6257TIP3    H242967   6.773   7.223  10.931 -0.0658 -0.4769  0.1359
 6258TIP3   OH242968   2.196   7.470  12.848  0.2788  0.9264 -0.3103
 6258TIP3    H142969   2.135   7.451  12.777 -0.1570  1.1055  0.0150
 6258TIP3    H242970   2.256   7.535  12.811  0.5401  0.4345 -0.7650
 6259TIP3   OH242971   0.136   0.927  11.700 -0.1045 -0.3679 -0.1381
 6259TIP3    H142972   0.108   1.014  11.672 -0.7425 -0.7433 -0.6835
 6259TIP3    H242973   0.061   0.890  11.746 -0.3109 -1.1213 -1.0335
 6260TIP3   OH242974   4.893   0.525  12.354  0.5646  0.6410 -0.2862
 6260TIP3    H142975   4.848   0.610  12.349 -0.0713  0.2522 -2.2328
 6260TIP3    H242976   4.939   0.527  12.438  2.4739  3.8748 -1.2013
 6261TIP3   OH242977   1.808   7.337  12.992  0.2933 -0.1104  0.0909
 6261TIP3    H142978   1.864   7.360  13.067 -1.3342 -0.6421  1.5277
 6261TIP3    H242979   1.726   7.384  13.007 -0.8932 -2.0080 -0.1131
 6262TIP3   OH242980   6.328   7.158  10.995  0.1464  0.1108  0.2930
 6262TIP3    H142981   6.323   7.253  11.001 -0.0029  0.0117  2.0719
 6262TIP3    H242982   6.241   7.127  11.019 -0.1224 -0.4742 -1.2822
 6263TIP3   OH242983   2.735   5.744  12.082 -0.3260 -0.5716 -0.2089
 6263TIP3    H142984   2.825   5.726  12.110 -0.6083 -1.6549  0.0325
 6263TIP3    H242985   2.737   5.734  11.987 -0.4723 -1.9248 -0.0829
 6264TIP3   OH242986   7.449   0.612  10.713 -0.1293 -1.1128  0.1393
 6264TIP3    H142987   7.488   0.676  10.654  1.9058 -1.8850  0.5448
 6264TIP3    H242988   7.428   0.662  10.792  2.1092 -1.0014  0.7333
 6265TIP3   OH242989   2.395   0.546  10.519 -0.1404  0.6843 -0.3274
 6265TIP3    H142990   2.429   0.478  10.577  1.2596  1.0598 -0.6577
 6265TIP3    H242991   2.320   0.505  10.475 -1.2135  0.3871  1.6705
 6266TIP3   OH242992   1.478   5.202  12.884  0.5018  0.1732  0.0898
 6266TIP3    H142993   1.404   5.165  12.836  1.0760  0.0321 -0.7135
 6266TIP3    H242994   1.555   5.157  12.848  0.9009 -0.4606  1.6533
 6267TIP3   OH242995   5.148   3.036  12.471 -0.0865  0.1442  0.1305
 6267TIP3    H142996   5.153   2.988  12.389 -1.4567 -0.7190  0.5301
 6267TIP3    H242997   5.209   3.109  12.460  4.1350 -2.9723  0.4089
 6268TIP3   OH242998   6.327   5.661  11.323  0.6191 -0.2264  0.0588
 6268TIP3    H142999   6.345   5.580  11.274  1.1573 -0.6627  0.9460
 6268TIP3    H243000   6.355   5.731  11.264  2.0347 -0.7711  0.0216
 6269TIP3   OH243001   6.044   0.624  10.261  0.2002 -0.3990  0.1413
 6269TIP3    H143002   6.137   0.604  10.253  0.3204  0.1678  0.0712
 6269TIP3    H243003   6.036   0.665  10.347  0.4493  1.8461 -0.8419
 6270TIP3   OH243004   0.233   3.211  11.317 -0.1569 -0.6389 -0.2267
 6270TIP3    H143005   0.169   3.176  11.378 -2.2573  0.6630 -1.5421
 6270TIP3    H243006   0.259   3.295  11.354  0.9307 -1.2089  0.3552
 6271TIP3   OH243007   1.724   1.356  12.342  0.4984 -0.0680 -0.0150
 6271TIP3    H143008   1.774   1.422  12.390  0.6248 -0.2102  0.0497
 6271TIP3    H243009   1.641   1.351  12.388  0.8577 -0.6723  0.5890
 6272TIP3   OH243010   2.521   4.743  10.667 -0.5081  0.0652 -0.4251
 6272TIP3    H143011   2.496   4.832  10.692 -1.9434 -0.3022 -0.4573
 6272TIP3    H243012   2.611   4.734  10.697 -0.9371  0.9240  1.2198
 6273TIP3   OH243013   3.656   6.482  12.839 -0.5042 -0.5138 -0.3821
 6273TIP3    H143014   3.683   6.571  12.815 -0.3836  0.1164  1.8606
 6273TIP3    H243015   3.712   6.425  12.786 -0.2143  0.7230 -1.4754
 6274TIP3   OH243016   0.090   2.617  12.932  0.7985 -0.0711 -0.0216
 6274TIP3    H143017   0.042   2.632  13.014 -1.2634 -0.7380 -1.0280
 6274TIP3    H243018   0.087   2.522  12.920  2.6294 -0.1568 -0.0211
 6275TIP3   OH243019   5.083   2.085  13.024  0.6033 -0.0979 -0.3015
 6275TIP3    H143020   5.148   2.014  13.022  1.1631  0.4139 -1.4884
 6275TIP3    H243021   5.054   2.089  13.115  0.3343 -2.0474 -0.2605
 6276TIP3   OH243022   2.187   3.706  11.361  0.4883 -0.5869 -0.1807
 6276TIP3    H143023   2.249   3.702  11.434  1.7923 -0.0557 -1.2257
 6276TIP3    H243024   2.132   3.628  11.373  1.4512 -1.1697  0.6902
 6277TIP3   OH243025   1.803   4.532  12.945  0.4735 -0.1222  0.2323
 6277TIP3    H143026   1.803   4.448  12.992  0.8684 -0.1703  0.1506
 6277TIP3    H243027   1.810   4.598  13.014 -1.4439 -0.0721  0.4171
 6278TIP3   OH243028   1.305   6.656  10.683  0.6804 -0.1169 -0.2540
 6278TIP3    H143029   1.395   6.664  10.654  0.3098 -0.9345 -1.7015
 6278TIP3    H243030   1.292   6.562  10.697  0.0046 -0.0324 -0.2518
 6279TIP3   OH243031   7.052   4.128  12.098 -0.4733  1.2244 -0.1850
 6279TIP3    H143032   7.029   4.100  12.187 -0.0956  0.5338 -0.2949
 6279TIP3    H243033   7.001   4.208  12.084 -0.3467  1.4834  0.7425
 6280TIP3   OH243034   2.522   7.489  13.233  0.4620  0.6044  0.3772
 6280TIP3    H143035   2.595   7.530  13.280 -0.3791  1.2855  1.1094
 6280TIP3    H243036   2.458   7.559  13.222  0.6268  0.4762 -1.8236
 6281TIP3   OH243037   1.330   2.619  12.441  0.4459  0.5803  0.3493
 6281TIP3    H143038   1.272   2.691  12.464  0.8088  0.7801  0.6540
 6281TIP3    H243039   1.417   2.659  12.436  0.7000  0.1015  0.8435
 6282TIP3   OH243040   0.816   5.099  12.059 -0.1178 -0.2092 -0.0478
 6282TIP3    H143041   0.786   5.150  12.134  1.6795  0.1768  0.4640
 6282TIP3    H243042   0.819   5.162  11.987 -0.7007 -0.3046 -0.1643
 6283TIP3   OH243043   7.049   7.006  10.682  0.0752  0.0408  0.1265
 6283TIP3    H143044   7.054   7.042  10.593  3.2242 -2.7978 -1.0663
 6283TIP3    H243045   6.990   6.931  10.673 -0.2573  0.2358  0.6625
 6284TIP3   OH243046   3.885   5.734  11.860  0.2155  0.5171  0.1626
 6284TIP3    H143047   3.942   5.809  11.839  1.3454 -0.9716 -2.6440
 6284TIP3    H243048   3.887   5.680  11.781 -3.3598 -0.7895  0.7612
 6285TIP3   OH243049   2.966   6.765  11.856 -0.0776 -0.2528  0.0186
 6285TIP3    H143050   3.035   6.728  11.801  0.0286  0.9475 -0.6825
 6285TIP3    H243051   2.958   6.703  11.929  2.8974  0.3833  1.0235
 6286TIP3   OH243052   5.058   7.560  12.401 -0.8459  0.0315 -0.3141
 6286TIP3    H143053   4.998   7.627  12.435 -0.2769  1.4456 -1.9270
 6286TIP3    H243054   5.111   7.607  12.336  2.9551 -0.7785  1.9081
 6287TIP3   OH243055   5.343   5.368  11.227  0.2157 -0.6843  0.6002
 6287TIP3    H143056   5.368   5.319  11.148  1.7630 -3.2717  2.5463
 6287TIP3    H243057   5.408   5.437  11.234 -1.1445  0.9237 -1.4060
 6288TIP3   OH243058   6.959   5.804  11.634  0.0693  0.1779 -0.0777
 6288TIP3    H143059   7.007   5.811  11.717  0.1861  1.0194 -0.2051
 6288TIP3    H243060   6.889   5.869  11.641 -0.1632 -0.0251 -0.4833
 6289TIP3   OH243061   6.809   0.383  12.882  0.0510  0.1547 -0.1533
 6289TIP3    H143062   6.714   0.387  12.896  0.0636  0.3659 -0.1126
 6289TIP3    H243063   6.838   0.473  12.899  0.0789  0.4256 -1.5219
 6290TIP3   OH243064   0.943   7.619  10.930 -0.0380  0.6494 -0.1110
 6290TIP3    H143065   0.950   7.611  11.025  1.0135 -0.0433 -0.2274
 6290TIP3    H243066   0.849   7.627  10.913 -0.5988 -2.6883  0.7506
 6291TIP3   OH243067   7.381   7.190  11.301  0.3875 -0.3338 -0.1565
 6291TIP3    H143068   7.321   7.127  11.261  0.0331  0.2352 -0.5244
 6291TIP3    H243069   7.446   7.208  11.233  0.1188  0.1859 -0.2833
 6292TIP3   OH243070   2.780   5.530  11.188  0.0015  0.1579  0.4055
 6292TIP3    H143071   2.696   5.514  11.144  0.9101 -0.7682 -1.0633
 6292TIP3    H243072   2.766   5.496  11.277 -1.2464  0.2175  0.2561
 6293TIP3   OH243073   1.704   6.815  11.314 -0.2886 -0.0206 -0.1210
 6293TIP3    H143074   1.792   6.824  11.279 -0.9847  0.1156 -1.9503
 6293TIP3    H243075   1.648   6.861  11.252 -1.5699  0.6775  1.4674
 6294TIP3   OH243076   1.567   0.183  11.514 -0.3535 -0.5241  0.5615
 6294TIP3    H143077   1.594   0.097  11.482  1.2155 -0.2945  1.1529
 6294TIP3    H243078   1.617   0.245  11.460 -2.6737  0.1367 -0.9804
 6295TIP3   OH243079   6.197   0.734  11.456  0.5248 -0.3667  0.1237
 6295TIP3    H143080   6.255   0.685  11.513  1.6137 -0.2847 -0.8840
 6295TIP3    H243081   6.151   0.795  11.514  2.0322  0.1294  0.8401
 6296TIP3   OH243082   4.672   1.389  11.170  0.9514  0.4020 -0.2355
 6296TIP3    H143083   4.640   1.472  11.204  1.0840 -0.0616  1.0801
 6296TIP3    H243084   4.629   1.322  11.223  2.7759 -0.2814  0.4552
 6297TIP3   OH243085   6.779   7.348  11.640 -0.2263 -0.3438  0.5490
 6297TIP3    H143086   6.849   7.297  11.681 -0.1709  0.4791  1.5164
 6297TIP3    H243087   6.822   7.398  11.571 -0.0782 -0.7124  0.3701
 6298TIP3   OH243088   3.438   0.059  11.420  0.1366  0.1752  0.1106
 6298TIP3    H143089   3.520   0.093  11.384 -0.2617 -0.3140 -1.3177
 6298TIP3    H243090   3.413  -0.012  11.361 -1.0531 -0.0363  0.8237
 6299TIP3   OH243091   6.172   1.486  11.335  0.0266  0.3509  0.3873
 6299TIP3    H143092   6.116   1.487  11.258 -2.4033 -1.2134  2.0241
 6299TIP3    H243093   6.217   1.402  11.331 -2.0931 -0.9236  1.9387
 6300TIP3   OH243094   2.975   5.106  12.292 -0.0215 -0.4391  0.4999
 6300TIP3    H143095   2.996   5.101  12.199  1.6249  1.4220  0.7185
 6300TIP3    H243096   2.881   5.126  12.293  0.1644  0.7514 -0.8406
 6301TIP3   OH243097   4.821   5.591  12.371 -0.3577  0.3257 -0.1149
 6301TIP3    H143098   4.867   5.527  12.317  1.5986  0.7860  0.9176
 6301TIP3    H243099   4.792   5.541  12.447 -1.2774  0.1202 -0.5841
 6302TIP3   OH243100   4.809   0.311  11.569  0.4118 -0.4727  0.0098
 6302TIP3    H143101   4.743   0.380  11.561  0.4269 -0.2698  1.3126
 6302TIP3    H243102   4.807   0.265  11.485  0.1848  0.9183 -0.7803
 6303TIP3   OH243103   5.869   1.834  13.100  0.4666  0.3204 -0.4397
 6303TIP3    H143104   5.931   1.764  13.118  0.3497 -0.1319 -1.6980
 6303TIP3    H243105   5.918   1.915  13.116  0.8803 -0.0364  0.1217
 6304TIP3   OH243106   3.775   0.368  11.860 -0.5166 -0.1699  0.4084
 6304TIP3    H143107   3.796   0.308  11.932  1.9375 -1.3034 -1.1367
 6304TIP3    H243108   3.748   0.311  11.788 -0.2298  0.7264 -0.4312
 6305TIP3   OH243109   2.986   2.501  11.653 -0.1149  0.5143 -0.5659
 6305TIP3    H143110   2.926   2.430  11.677 -0.3716  1.0781  0.5335
 6305TIP3    H243111   2.928   2.572  11.626  0.1494  0.2339 -1.9416
 6306TIP3   OH243112   4.950   3.216  12.206 -0.4002  0.0204  0.1856
 6306TIP3    H143113   5.038   3.237  12.174  0.3195  0.4631  2.3115
 6306TIP3    H243114   4.891   3.268  12.150  0.7511  0.6426 -0.4979
 6307TIP3   OH243115   7.362   1.527  11.722 -0.3861  0.3462  0.1359
 6307TIP3    H143116   7.454   1.518  11.698 -0.3832  0.1504  0.2179
 6307TIP3    H243117   7.360   1.513  11.817 -0.3842  1.1976  0.2759
 6308TIP3   OH243118   3.850   6.226  10.598  0.5825 -0.6905 -0.3379
 6308TIP3    H143119   3.825   6.301  10.651  0.5126 -1.2532  0.4314
 6308TIP3    H243120   3.928   6.256  10.550  1.9688 -0.8445  1.6947
 6309TIP3   OH243121   7.160   4.813  11.426 -0.2371 -0.0973 -0.6479
 6309TIP3    H143122   7.088   4.866  11.460  0.7443  0.8550 -0.0230
 6309TIP3    H243123   7.127   4.723  11.431 -1.1221  0.2613  0.3011
 6310TIP3   OH243124   4.892   1.915  12.132  0.0064 -0.4088 -0.1991
 6310TIP3    H143125   4.921   1.999  12.166  1.3250 -0.4496 -1.1449
 6310TIP3    H243126   4.941   1.850  12.184  2.1871 -0.4692 -2.1481
 6311TIP3   OH243127   6.941   4.337  11.775 -0.1512  0.1836  0.4372
 6311TIP3    H143128   6.995   4.259  11.787 -3.2773 -1.9962  1.9425
 6311TIP3    H243129   6.900   4.350  11.861 -3.5912  0.2959 -1.0876
 6312TIP3   OH243130   0.307   3.706  11.089 -0.0005 -0.3728 -0.3038
 6312TIP3    H143131   0.255   3.725  11.167 -0.9430 -0.1080 -0.9862
 6312TIP3    H243132   0.258   3.637  11.044  0.3439 -0.2615 -0.8566
 6313TIP3   OH243133   2.108   5.907  10.718  0.4881 -0.6296  0.0659
 6313TIP3    H143134   2.025   5.904  10.670  0.8785 -1.8888 -0.5641
 6313TIP3    H243135   2.147   5.991  10.692  1.3613 -1.8592 -3.0540
 6314TIP3   OH243136   5.148   4.384  10.464 -0.1087 -0.2789 -0.0108
 6314TIP3    H143137   5.187   4.328  10.531  2.4022 -0.3675 -1.4234
 6314TIP3    H243138   5.056   4.388  10.487 -0.3232 -4.3881  0.6210
 6315TIP3   OH243139   7.546   4.385  12.314  0.1623  0.5138  0.1494
 6315TIP3    H143140   7.515   4.471  12.286  1.0402  0.4615 -1.0329
 6315TIP3    H243141   7.640   4.398  12.332 -0.2331  0.4166  2.5903
 6316TIP3   OH243142   7.359   4.144  11.669  0.1976 -0.2337  0.5341
 6316TIP3    H143143   7.347   4.239  11.658  1.5739 -0.2703 -2.2549
 6316TIP3    H243144   7.447   4.135  11.707  0.0590 -0.3964  0.8167
 6317TIP3   OH243145   3.535   7.646  12.700 -0.5304  0.2404  0.1181
 6317TIP3    H143146   3.574   7.673  12.617  0.0421 -0.4425  0.1543
 6317TIP3    H243147   3.479   7.719  12.725  0.3720  1.0546 -0.1684
 6318TIP3   OH243148   0.880   7.234  12.008 -0.1244 -0.0324  0.4790
 6318TIP3    H143149   0.963   7.200  12.043 -0.7019 -0.3294  1.6120
 6318TIP3    H243150   0.849   7.295  12.075  0.4341  2.1070 -1.1033
 6319TIP3   OH243151   2.525   5.328  11.542  0.4131 -0.1232  0.1318
 6319TIP3    H143152   2.448   5.363  11.498  0.4486 -1.2910 -0.8977
 6319TIP3    H243153   2.492   5.299  11.627  0.1390  1.1955  0.5055
 6320TIP3   OH243154   0.330   0.137  11.316 -0.3181  0.2547 -0.4874
 6320TIP3    H143155   0.400   0.202  11.322 -0.4932  0.3457  1.2159
 6320TIP3    H243156   0.299   0.128  11.406 -1.8003 -0.5530 -1.0482
 6321TIP3   OH243157   5.572   3.638  11.654 -1.1691  0.1653  0.1260
 6321TIP3    H143158   5.561   3.664  11.562  3.3052  0.3542 -0.5831
 6321TIP3    H243159   5.639   3.698  11.688 -0.4913 -1.8090  2.5846
 6322TIP3   OH243160   6.204   3.022  10.531  0.6543 -0.6097 -0.4052
 6322TIP3    H143161   6.292   3.025  10.492  2.0022  1.9727  2.4254
 6322TIP3    H243162   6.172   3.112  10.527 -1.5196 -1.3357 -0.5706
 6323TIP3   OH243163   2.229   3.453  11.612  0.2377  0.2407  0.2917
 6323TIP3    H143164   2.204   3.405  11.691  3.1423 -0.9278  0.6131
 6323TIP3    H243165   2.297   3.513  11.641 -0.1836  1.3552 -0.9651
 6324TIP3   OH243166   4.867   6.366  10.630  0.1127  0.4670 -0.4499
 6324TIP3    H143167   4.805   6.424  10.586 -0.3126 -0.0321 -0.5181
 6324TIP3    H243168   4.813   6.296  10.668  0.7620 -1.1019 -2.2330
 6325TIP3   OH243169   0.977   2.142  10.658  0.4896 -0.5173  0.3078
 6325TIP3    H143170   0.894   2.095  10.652 -0.5875  1.3528 -0.1514
 6325TIP3    H243171   0.985   2.164  10.751 -0.0486  0.1477  0.2064
 6326TIP3   OH243172   2.502   7.051  12.539 -0.2380  0.3325  0.1527
 6326TIP3    H143173   2.541   7.123  12.489 -1.1822  0.4306 -0.4845
 6326TIP3    H243174   2.408   7.072  12.541 -0.4403 -0.5710  0.4878
 6327TIP3   OH243175   3.942   7.314  12.564 -0.6666  0.5021 -0.3447
 6327TIP3    H143176   3.928   7.260  12.486 -2.8926  2.3165 -1.3098
 6327TIP3    H243177   3.856   7.322  12.604  0.0527  1.3462  1.1173
 6328TIP3   OH243178   7.065   6.527  11.435  0.0343 -0.0031  0.1658
 6328TIP3    H143179   6.993   6.465  11.421  1.0883 -1.3492  0.5259
 6328TIP3    H243180   7.073   6.534  11.530 -0.2600  0.9278  0.1317
 6329TIP3   OH243181   0.537   7.562  11.796 -0.2405  0.4060  0.2437
 6329TIP3    H143182   0.522   7.588  11.705  1.2481 -0.3336 -0.2514
 6329TIP3    H243183   0.457   7.515  11.821 -0.2031 -0.4084 -1.0838
 6330TIP3   OH243184   7.592   4.724  11.423 -0.1034 -0.3564 -0.1942
 6330TIP3    H143185   7.578   4.749  11.515 -2.2190 -0.4715 -0.4280
 6330TIP3    H243186   7.540   4.787  11.373  0.1910 -0.9299 -1.2438
 6331TIP3   OH243187   2.708   0.288  13.110 -0.6586  0.8165  0.3402
 6331TIP3    H143188   2.746   0.255  13.191 -1.0828 -0.8051 -0.0792
 6331TIP3    H243189   2.613   0.285  13.126 -0.7095  2.0102  0.3333
 6332TIP3   OH243190   2.805   3.424  12.697 -0.2432  0.0953 -0.1257
 6332TIP3    H143191   2.781   3.404  12.787  2.1765 -1.8794  0.1885
 6332TIP3    H243192   2.753   3.363  12.644  0.8007 -1.1345  0.2241
 6333TIP3   OH243193   5.444   0.178  11.524 -0.3523 -0.6194  0.2948
 6333TIP3    H143194   5.454   0.197  11.430 -1.0649 -0.1632  0.3066
 6333TIP3    H243195   5.532   0.190  11.560 -0.1138 -0.6076 -0.2831
 6334TIP3   OH243196   1.819   5.617  11.287 -0.2052 -0.1962 -0.0487
 6334TIP3    H143197   1.847   5.708  11.278  2.8229 -1.1697 -2.1153
 6334TIP3    H243198   1.857   5.588  11.370  0.1086  0.0325 -0.1104
 6335TIP3   OH243199   3.352   5.694  12.964 -0.0264 -0.3113 -0.2687
 6335TIP3    H143200   3.275   5.749  12.979  0.0657 -0.3403  0.3624
 6335TIP3    H243201   3.386   5.676  13.052  1.8421  1.3382 -0.5764
 6336TIP3   OH243202   5.769   7.513  11.349 -0.0114  0.3544  0.0400
 6336TIP3    H143203   5.837   7.519  11.417 -0.0599  0.1737  0.1050
 6336TIP3    H243204   5.772   7.597  11.305  0.0009  0.4863  0.2884
 6337TIP3   OH243205   3.061   1.192  11.418  0.3008 -0.2023  0.1450
 6337TIP3    H143206   3.084   1.207  11.510 -1.1311  0.0800  0.4809
 6337TIP3    H243207   3.063   1.097  11.408  0.6705 -0.2265  0.4128
 6338TIP3   OH243208   6.563   7.672  11.217  0.2211 -0.2338 -0.3264
 6338TIP3    H143209   6.613   7.597  11.183  2.0853  0.6883  0.2325
 6338TIP3    H243210   6.522   7.710  11.140  0.1302 -1.1978 -0.7740
 6339TIP3   OH243211   5.247   0.141  13.407  0.1387 -0.2921 -0.3110
 6339TIP3    H143212   5.321   0.179  13.453  0.1844 -1.1417  0.3499
 6339TIP3    H243213   5.258   0.046  13.418 -0.9980 -0.4360 -0.2595
 6340TIP3   OH243214   2.392   1.401  12.409 -0.1251  0.0913  0.1829
 6340TIP3    H143215   2.484   1.384  12.389 -0.5406 -0.0949 -1.7296
 6340TIP3    H243216   2.353   1.315  12.421 -0.7497 -0.0759 -2.5293
 6341TIP3   OH243217   2.265   4.090  12.508  0.1035  0.3229  0.1776
 6341TIP3    H143218   2.356   4.119  12.513  0.1236  0.0741  2.7459
 6341TIP3    H243219   2.269   4.007  12.461  1.3653 -0.1263  1.0135
 6342TIP3   OH243220   1.682   4.528  11.913 -0.1456 -0.4732  0.1050
 6342TIP3    H143221   1.680   4.474  11.834  0.3110 -0.6166  0.1937
 6342TIP3    H243222   1.625   4.602  11.892 -0.1190 -0.5696 -0.3130
 6343TIP3   OH243223   2.730   1.201  11.625 -0.4051  0.0790  0.3059
 6343TIP3    H143224   2.707   1.290  11.597  0.3803  0.9980  2.3879
 6343TIP3    H243225   2.726   1.149  11.545  0.6058  2.2872 -1.2803
 6344TIP3   OH243226   0.051   0.319  12.010 -0.2792 -0.0343 -0.4475
 6344TIP3    H143227   0.017   0.400  11.972  0.4717  0.1157 -0.8243
 6344TIP3    H243228   0.070   0.341  12.101  0.6967  0.4626 -0.7563
 6345TIP3   OH243229   1.679   7.564  12.005  0.3482 -0.3846  0.1813
 6345TIP3    H143230   1.757   7.547  11.952  0.4298 -0.6938  0.4015
 6345TIP3    H243231   1.712   7.605  12.085  0.0927  1.6309 -0.6840
 6346TIP3   OH243232   3.278   0.500  11.344  0.0590  0.3201 -0.4264
 6346TIP3    H143233   3.252   0.592  11.350 -1.8721 -0.2141  0.3983
 6346TIP3    H243234   3.209   0.460  11.290  0.3506 -0.8075  0.0169
 6347TIP3   OH243235   3.388   5.458  11.393 -0.9751  0.5386  0.5116
 6347TIP3    H143236   3.398   5.444  11.487 -1.2413 -0.3802  0.4117
 6347TIP3    H243237   3.460   5.517  11.370  1.1757 -1.8208  0.7309
 6348TIP3   OH243238   0.711   1.221  11.696 -0.5056 -0.3206 -0.3017
 6348TIP3    H143239   0.793   1.259  11.726 -0.2353 -1.1050 -0.0248
 6348TIP3    H243240   0.736   1.159  11.628 -1.0447  0.7949 -1.5769
 6349TIP3   OH243241   1.998   2.462  11.919 -0.3803 -0.1451  0.4953
 6349TIP3    H143242   2.004   2.524  11.991  1.3596 -1.0816  1.2125
 6349TIP3    H243243   2.009   2.376  11.960  1.7961 -0.6533 -0.9538
 6350TIP3   OH243244   3.750   0.165  10.691  0.3967  0.0891  0.5828
 6350TIP3    H143245   3.797   0.184  10.610 -0.9804  2.8154  0.3244
 6350TIP3    H243246   3.794   0.217  10.758  2.1648 -2.8879  1.9524
 6351TIP3   OH243247   5.734   4.518  11.448  0.0997  0.1451  0.0967
 6351TIP3    H143248   5.732   4.457  11.522  0.0147  0.5987  0.4694
 6351TIP3    H243249   5.701   4.600  11.483  0.8735  0.6068 -0.2277
 6352TIP3   OH243250   0.205   6.796  11.276 -0.4900  0.1367  0.3191
 6352TIP3    H143251   0.254   6.774  11.197 -0.9386  0.6961 -0.1223
 6352TIP3    H243252   0.139   6.727  11.284 -0.7779  0.3595 -0.0913
 6353TIP3   OH243253   0.085   4.816  11.123  0.1066 -0.0180 -0.3018
 6353TIP3    H143254   0.021   4.866  11.072  0.5556  1.8194  0.8605
 6353TIP3    H243255   0.105   4.872  11.198  2.7953 -0.6982 -0.4242
 6354TIP3   OH243256   0.415   3.753  11.464 -0.2090  0.1666  0.0961
 6354TIP3    H143257   0.320   3.743  11.475 -0.1995  0.5683  0.5434
 6354TIP3    H243258   0.424   3.828  11.405 -0.1529  0.5657  0.6090
 6355TIP3   OH243259   6.727   7.174  11.249  0.0987  0.0064 -0.3963
 6355TIP3    H143260   6.767   7.156  11.164  3.0062  1.4236  0.5396
 6355TIP3    H243261   6.652   7.230  11.228  0.6787  0.2276 -2.0506
 6356TIP3   OH243262   6.512   3.115  12.925  0.5199  0.5728  0.3838
 6356TIP3    H143263   6.559   3.139  13.005  1.0327 -0.1408  0.3100
 6356TIP3    H243264   6.564   3.153  12.854  0.5643  0.4447  0.3460
 6357TIP3   OH243265   6.366   4.762  10.295 -0.1293 -0.3132 -0.1462
 6357TIP3    H143266   6.441   4.751  10.353 -0.6986 -1.5098  0.3923
 6357TIP3    H243267   6.309   4.824  10.340  0.6896  0.9260 -0.7472
 6358TIP3   OH243268   7.422   1.076  12.536 -0.1425  0.3958  0.4197
 6358TIP3    H143269   7.397   1.099  12.626 -0.9512 -0.3414  0.4004
 6358TIP3    H243270   7.351   1.111  12.482 -0.0234  0.2083  0.1392
 6359TIP3   OH243271   3.060   5.578  13.154 -0.3794  0.9132  0.1136
 6359TIP3    H143272   3.066   5.484  13.136 -2.2096  1.0556 -1.5507
 6359TIP3    H243273   3.063   5.583  13.250  0.1829 -0.7890  0.2295
 6360TIP3   OH243274   1.881   5.109  10.498  0.3015 -0.0918 -0.4021
 6360TIP3    H143275   1.832   5.055  10.437  2.4358 -1.1380 -1.2854
 6360TIP3    H243276   1.873   5.198  10.463  0.4978 -0.5060 -1.5173
 6361TIP3   OH243277   1.664   0.723  13.892  0.4749  0.4104 -0.2968
 6361TIP3    H143278   1.695   0.640  13.929 -2.4171 -0.6146  0.0422
 6361TIP3    H243279   1.673   0.712  13.797  3.1964  1.0882 -0.1948
 6362TIP3   OH243280   1.327   1.130  11.017 -0.2389 -0.1266  0.0833
 6362TIP3    H143281   1.344   1.219  10.984 -1.0335  1.0362  2.5762
 6362TIP3    H243282   1.276   1.089  10.947 -0.3455  1.5569 -0.8985
 6363TIP3   OH243283   0.408   2.275  12.416  0.2159  0.4916 -0.1739
 6363TIP3    H143284   0.399   2.317  12.501  0.3540  2.0520 -0.9025
 6363TIP3    H243285   0.502   2.278  12.398 -0.0386  2.5843 -1.5098
 6364TIP3   OH243286   6.055   0.409  13.144 -0.7550  0.1641 -0.2350
 6364TIP3    H143287   6.057   0.496  13.105 -0.4634  0.5400  0.5902
 6364TIP3    H243288   5.965   0.378  13.131 -1.0863  0.9240  0.1615
 6365TIP3   OH243289   2.730   5.065  10.672  0.3201  0.1176  0.3407
 6365TIP3    H143290   2.763   5.044  10.759 -0.0636 -0.1996  0.4156
 6365TIP3    H243291   2.634   5.063  10.682  0.2727 -0.0701 -0.1193
 6366TIP3   OH243292   2.417   3.971  12.004 -0.5212 -0.3274  0.0572
 6366TIP3    H143293   2.494   3.919  11.980 -0.9060  0.0767 -2.3545
 6366TIP3    H243294   2.451   4.041  12.059  0.1184 -2.5838  2.7657
 6367TIP3   OH243295   1.235   4.442  11.544  0.8405  0.3765  0.6542
 6367TIP3    H143296   1.219   4.348  11.535  0.4170  0.6129 -1.5046
 6367TIP3    H243297   1.318   4.457  11.498  0.7481  1.1126  0.7170
 6368TIP3   OH243298   0.553   2.307  11.581 -0.5519 -0.6081 -0.3026
 6368TIP3    H143299   0.552   2.346  11.494  1.7738 -1.2623 -0.7013
 6368TIP3    H243300   0.482   2.243  11.579 -1.2409  0.1561 -1.3185
 6369TIP3   OH243301   3.373   0.495  11.609  0.2191 -0.1371  0.5529
 6369TIP3    H143302   3.336   0.509  11.522  0.4473  0.2888  0.5264
 6369TIP3    H243303   3.297   0.500  11.668  0.2555  0.9990  0.5239
 6370TIP3   OH243304   3.027   0.247  11.666  0.2946 -0.5192 -0.5026
 6370TIP3    H143305   3.049   0.262  11.574  2.0298 -2.0527 -0.3917
 6370TIP3    H243306   2.947   0.194  11.663 -0.0492  0.0183 -1.0918
 6371TIP3   OH243307   7.164   5.668  12.786  0.2416  0.2000  0.0342
 6371TIP3    H143308   7.220   5.711  12.721  1.5795 -2.1277 -0.4327
 6371TIP3    H243309   7.098   5.622  12.735  0.1704 -0.1209  0.4117
 6372TIP3   OH243310   5.851   6.304  10.601 -0.3555  0.5440 -0.0318
 6372TIP3    H143311   5.761   6.272  10.603 -0.0881 -0.2509 -0.3699
 6372TIP3    H243312   5.848   6.388  10.647 -1.1231  0.1554  0.6475
 6373TIP3   OH243313   4.514   4.108  10.902 -0.2531 -0.6393  0.0603
 6373TIP3    H143314   4.606   4.132  10.888 -0.7775  1.1064 -0.6879
 6373TIP3    H243315   4.515   4.013  10.910  1.6942 -0.6077  0.7035
 6374TIP3   OH243316   6.024   1.384  12.775  0.3730 -0.1927  0.2561
 6374TIP3    H143317   5.943   1.335  12.762  0.4029 -0.1523 -0.1003
 6374TIP3    H243318   6.087   1.340  12.718  0.2086  0.7238 -0.6703
 6375TIP3   OH243319   5.457   5.418  12.569 -0.1214  0.2565  0.0622
 6375TIP3    H143320   5.444   5.513  12.576 -0.5566  0.2071 -0.0152
 6375TIP3    H243321   5.548   5.404  12.593  0.4818  0.8918 -1.7139
 6376TIP3   OH243322   2.503   2.979  12.655 -0.9764 -0.6004  0.0877
 6376TIP3    H143323   2.441   3.031  12.603  0.6851  0.3173 -1.0907
 6376TIP3    H243324   2.463   2.973  12.741 -1.6704  1.9125  0.0142
 6377TIP3   OH243325   4.551   7.129  12.460  0.7206 -0.4332  0.3144
 6377TIP3    H143326   4.481   7.100  12.519 -1.1365  1.4130 -0.8566
 6377TIP3    H243327   4.571   7.218  12.488  1.5601 -0.4099 -0.3185
 6378TIP3   OH243328   0.347   6.517  11.106  0.0367 -0.4252 -0.1773
 6378TIP3    H143329   0.402   6.439  11.107 -0.1171 -0.5353 -0.3577
 6378TIP3    H243330   0.267   6.490  11.060 -1.0201 -0.8451  1.7841
 6379TIP3   OH243331   5.187   6.745  10.937 -0.2011  0.3638  0.0197
 6379TIP3    H143332   5.146   6.666  10.973 -1.1141  0.9464  0.2825
 6379TIP3    H243333   5.184   6.731  10.842  0.8005 -0.4751  0.0938
 6380TIP3   OH243334   7.484   1.781  12.538  0.4206 -0.4166  0.4840
 6380TIP3    H143335   7.516   1.823  12.458  1.3850 -1.6782  0.1708
 6380TIP3    H243336   7.399   1.822  12.555  0.9624  1.0703 -0.2278
 6381TIP3   OH243337   2.774   7.064  10.938  0.0052 -0.3650 -0.0207
 6381TIP3    H143338   2.850   7.024  10.895 -0.5871 -1.3478 -0.1747
 6381TIP3    H243339   2.748   7.135  10.881  0.0174 -0.8489 -0.6385
 6382TIP3   OH243340   6.206   7.242  11.738 -0.4834  0.1452 -0.0120
 6382TIP3    H143341   6.241   7.328  11.715 -0.2205  0.8080  2.5760
 6382TIP3    H243342   6.273   7.180  11.709 -0.6831  0.7601 -1.9141
 6383TIP3   OH243343   0.159   0.819  10.618  0.3776  0.1862  0.3878
 6383TIP3    H143344   0.115   0.769  10.549  0.5316  2.6251 -1.6421
 6383TIP3    H243345   0.122   0.786  10.700 -1.3440 -1.4369 -0.9651
 6384TIP3   OH243346   4.858   4.661  12.618  0.3194 -0.0515 -0.0993
 6384TIP3    H143347   4.916   4.719  12.668 -0.5411  0.4121  0.3826
 6384TIP3    H243348   4.789   4.638  12.680 -1.3813  1.4251 -1.3480
 6385TIP3   OH243349   0.450   4.235  11.792  0.0544 -0.6638 -0.4362
 6385TIP3    H143350   0.381   4.179  11.828 -1.5882  0.8719 -1.0797
 6385TIP3    H243351   0.447   4.219  11.697  0.3069 -0.2680 -0.5152
 6386TIP3   OH243352   4.223   0.295  12.042 -0.4640  0.3256 -0.3608
 6386TIP3    H143353   4.208   0.200  12.046  0.8550  0.0645 -1.0407
 6386TIP3    H243354   4.192   0.320  11.956 -1.2658  0.6181  0.0012
 6387TIP3   OH243355   4.652   0.439  10.934  0.2649  1.1851  0.0038
 6387TIP3    H143356   4.591   0.410  11.002 -0.2751 -1.1710 -1.3762
 6387TIP3    H243357   4.737   0.442  10.978 -0.1871  0.4426  0.9715
 6388TIP3   OH243358   3.315   4.208  12.513  0.3171  0.7117 -0.1838
 6388TIP3    H143359   3.329   4.220  12.607 -0.1657  1.9960 -0.2560
 6388TIP3    H243360   3.258   4.280  12.487  0.6456  0.5345 -1.5202
 6389TIP3   OH243361   5.470   2.827  12.930 -0.0155 -0.4346 -0.0328
 6389TIP3    H143362   5.440   2.850  12.842 -0.6412  1.8984  0.7194
 6389TIP3    H243363   5.390   2.803  12.977  0.3018 -1.5593 -0.0572
 6390TIP3   OH243364   3.109   4.835  10.941 -0.4360  0.2018  0.0617
 6390TIP3    H143365   3.051   4.766  10.909 -0.2328  0.3156 -0.5527
 6390TIP3    H243366   3.109   4.823  11.036 -1.5116  0.2372  0.0832
 6391TIP3   OH243367   3.090   1.639  11.617 -0.2530 -0.2474  0.1573
 6391TIP3    H143368   3.092   1.651  11.712  2.2470  2.7728 -0.1284
 6391TIP3    H243369   2.997   1.625  11.597 -1.0657  0.5332  2.8756
 6392TIP3   OH243370   4.583   2.951  12.269 -0.1545 -0.5309 -0.2529
 6392TIP3    H143371   4.605   2.907  12.351 -1.2164  0.2392  0.4776
 6392TIP3    H243372   4.667   2.967  12.227  0.4559 -0.3646  0.9896
 6393TIP3   OH243373   6.733   3.684  11.512  0.5905 -0.1939 -0.8775
 6393TIP3    H143374   6.801   3.665  11.577  0.1942  0.2287 -0.3274
 6393TIP3    H243375   6.651   3.669  11.559  0.3022 -0.3299 -1.4232
 6394TIP3   OH243376   5.676   6.474  10.981  0.1563  0.5309  0.8967
 6394TIP3    H143377   5.727   6.396  10.956 -0.1242  0.5331  0.3141
 6394TIP3    H243378   5.682   6.475  11.077  1.9770  1.0260  0.8238
 6395TIP3   OH243379   1.545   3.535  12.569  0.0171 -0.1875  0.0706
 6395TIP3    H143380   1.464   3.545  12.519  0.2558  1.8963  0.0075
 6395TIP3    H243381   1.520   3.552  12.660  0.1408 -0.9251  0.2477
 6396TIP3   OH243382   1.328   1.126  17.704  0.4993 -0.9215 -0.1605
 6396TIP3    H143383   1.341   1.032  17.697  1.4673 -0.8903  0.9145
 6396TIP3    H243384   1.404   1.164  17.659  0.2081 -0.6559 -0.4312
 6397TIP3   OH243385   1.954   3.807  12.276  0.3147 -0.4006  0.1246
 6397TIP3    H143386   1.863   3.777  12.280 -0.4136  0.9187 -3.0098
 6397TIP3    H243387   1.947   3.903  12.267  2.0248 -0.2393  0.2516
 6398TIP3   OH243388   0.076   3.019  11.428 -0.1070 -0.0607  0.6842
 6398TIP3    H143389   0.001   2.981  11.382  0.7282 -0.1319 -0.6518
 6398TIP3    H243390   0.061   2.995  11.520 -2.1744  0.6787  0.6082
 6399TIP3   OH243391   6.361   3.750  13.020 -0.3349  0.2025 -0.2795
 6399TIP3    H143392   6.324   3.681  12.965  0.8096 -0.6517 -0.0066
 6399TIP3    H243393   6.344   3.831  12.971 -0.4062 -0.4215 -1.3174
 6400TIP3   OH243394   6.175   5.662  10.762  0.3590 -0.3454  0.1683
 6400TIP3    H143395   6.217   5.736  10.806 -0.6762  0.6270 -0.3987
 6400TIP3    H243396   6.095   5.700  10.724 -0.0613 -1.7078 -0.3590
 6401TIP3   OH243397   0.133   1.964  13.219  0.4360  0.3411  0.2221
 6401TIP3    H143398   0.209   1.911  13.194  0.6627  0.3078  0.9596
 6401TIP3    H243399   0.132   1.961  13.314 -0.0170  1.0125  0.2475
 6402TIP3   OH243400   3.585   7.279  12.970 -0.3954  0.0760 -0.2873
 6402TIP3    H143401   3.543   7.242  13.047 -1.2164  0.0651 -0.7272
 6402TIP3    H243402   3.613   7.366  12.998  2.1495 -1.0419  0.9587
 6403TIP3   OH243403   4.799   0.872  12.242 -0.1223  0.0237 -0.4785
 6403TIP3    H143404   4.753   0.796  12.277 -0.7850  0.6827  0.1161
 6403TIP3    H243405   4.825   0.923  12.320  1.2954 -0.1369 -0.8120
 6404TIP3   OH243406   3.555   1.763  11.436 -0.1161 -0.1031 -0.0633
 6404TIP3    H143407   3.479   1.790  11.386 -0.7563 -0.6421  0.5847
 6404TIP3    H243408   3.630   1.799  11.389 -0.8955  3.5050  1.1617
 6405TIP3   OH243409   0.553   1.825  11.946 -0.3529  0.0775 -0.5276
 6405TIP3    H143410   0.544   1.903  11.892  1.0542 -1.3228 -2.9096
 6405TIP3    H243411   0.640   1.832  11.984 -0.7824  0.3241  0.4648
 6406TIP3   OH243412   7.063   7.257  10.793  0.0726 -0.6005 -0.4337
 6406TIP3    H143413   7.136   7.278  10.850  0.0573  0.8499 -0.9044
 6406TIP3    H243414   7.080   7.168  10.763 -0.6164 -2.0133  2.8519
 6407TIP3   OH243415   3.883   1.129  11.961 -0.2142 -0.3213 -0.2391
 6407TIP3    H143416   3.933   1.067  12.015  0.6174 -0.7496 -1.4416
 6407TIP3    H243417   3.874   1.084  11.877 -0.9014  0.6008 -0.6668
 6408TIP3   OH243418   2.744   0.138  12.389  0.4670  0.2212  0.5483
 6408TIP3    H143419   2.805   0.167  12.322 -1.0077  1.1679 -0.4525
 6408TIP3    H243420   2.731   0.045  12.371  0.9273  0.2181  0.2212
 6409TIP3   OH243421   2.170   7.653  12.443 -0.4694 -0.7192 -0.0283
 6409TIP3    H143422   2.137   7.731  12.398  1.9458 -0.6500 -1.8471
 6409TIP3    H243423   2.101   7.587  12.430 -1.7752  0.5854  0.0691
 6410TIP3   OH243424   7.174   1.021  10.584 -0.1036 -0.1415 -0.6964
 6410TIP3    H143425   7.145   0.929  10.581  1.5339 -0.6635 -1.8659
 6410TIP3    H243426   7.229   1.026  10.662  0.0013 -0.2100 -0.7664
 6411TIP3   OH243427   3.480   6.683  12.156  0.4525 -0.0444 -0.0977
 6411TIP3    H143428   3.557   6.626  12.153 -0.1501 -0.8452 -0.8089
 6411TIP3    H243429   3.473   6.708  12.248  1.1833 -0.4824  0.0946
 6412TIP3   OH243430   2.418   1.755  12.624  0.1523  0.5233 -0.1215
 6412TIP3    H143431   2.511   1.746  12.603  0.2644 -0.9213  0.8525
 6412TIP3    H243432   2.416   1.771  12.719 -0.6284 -1.2136  0.1970
 6413TIP3   OH243433   2.681   4.991  13.237 -0.0096  0.5181 -0.1212
 6413TIP3    H143434   2.738   5.046  13.183 -0.4628 -0.2169 -1.3681
 6413TIP3    H243435   2.741   4.943  13.294  0.5636  0.3399 -0.8702
 6414TIP3   OH243436   6.697   4.085  12.031  0.4311  0.1953 -0.0437
 6414TIP3    H143437   6.689   4.064  11.937  0.0151 -0.7969  0.1993
 6414TIP3    H243438   6.675   4.003  12.075  0.8867  0.5861  0.9224
 6415TIP3   OH243439   3.578   1.189  11.942  0.3393 -0.1623 -0.1796
 6415TIP3    H143440   3.661   1.230  11.919  0.9151 -1.3114 -0.2205
 6415TIP3    H243441   3.583   1.101  11.904 -0.5520 -0.5304  0.5067
 6416TIP3   OH243442   2.997   2.616  12.121 -0.3997  0.4302  0.5108
 6416TIP3    H143443   2.981   2.665  12.040  0.2235  0.1369  0.2064
 6416TIP3    H243444   3.071   2.559  12.101 -0.1252  0.4776  1.3412
 6417TIP3   OH243445   4.060   3.730  11.838 -0.3972  0.3402 -0.5684
 6417TIP3    H143446   4.005   3.676  11.895  0.6591 -0.9719 -0.7318
 6417TIP3    H243447   4.144   3.684  11.836  0.6939  2.2148 -0.4129
 6418TIP3   OH243448   5.372   5.251  12.359 -0.3276 -0.1957 -0.7300
 6418TIP3    H143449   5.368   5.281  12.450  0.3254 -0.6349 -0.5498
 6418TIP3    H243450   5.400   5.328  12.309  0.1038 -0.1701 -0.4482
 6419TIP3   OH243451   4.499   4.099  11.599 -0.4884  0.2166  0.6062
 6419TIP3    H143452   4.532   4.029  11.542 -1.8279  0.2451 -0.2574
 6419TIP3    H243453   4.506   4.178  11.547 -1.6877  0.2491  0.4535
 6420TIP3   OH243454   3.902   3.057  11.506 -0.2802  0.2405  0.0226
 6420TIP3    H143455   3.832   3.119  11.486  0.6274  1.1422 -0.4535
 6420TIP3    H243456   3.937   3.032  11.421  0.7616  0.7395  0.2908
 6421TIP3   OH243457   0.793   6.514  10.436 -0.1812 -0.3009  0.4350
 6421TIP3    H143458   0.722   6.506  10.500 -2.5664  3.7280 -1.3606
 6421TIP3    H243459   0.840   6.593  10.460  0.5903 -0.1929 -1.2432
 6422TIP3   OH243460   1.954   6.941  12.690  0.4000  0.2765 -0.5191
 6422TIP3    H143461   2.025   6.955  12.753  1.3364 -2.7593 -0.7223
 6422TIP3    H243462   1.994   6.960  12.605  1.0385 -1.3366 -0.6242
 6423TIP3   OH243463   4.484   1.698  11.823 -0.1415  0.3667 -0.2755
 6423TIP3    H143464   4.445   1.633  11.882 -1.9768  1.0963 -0.6014
 6423TIP3    H243465   4.564   1.726  11.867  1.5810 -3.2093 -0.8638
 6424TIP3   OH243466   0.677   1.812  13.465  0.1252  0.0736 -0.1112
 6424TIP3    H143467   0.652   1.899  13.435  1.3296 -0.2168 -2.1229
 6424TIP3    H243468   0.625   1.752  13.412 -0.0362 -0.4589  0.6264
 6425TIP3   OH243469   2.994   6.391  11.335 -0.4438  0.3600 -0.1051
 6425TIP3    H143470   2.907   6.373  11.301 -1.1854 -0.1236  1.8821
 6425TIP3    H243471   2.988   6.370  11.428  1.9012 -0.0488  0.0261
 6426TIP3   OH243472   3.131   3.086  12.336 -0.1632 -0.4283  0.6439
 6426TIP3    H143473   3.140   3.135  12.254  1.0341 -1.6631 -0.0029
 6426TIP3    H243474   3.204   3.117  12.390 -0.6631  0.0265  1.0752
 6427TIP3   OH243475   1.507   3.790  11.825 -0.0616  0.2320  0.7500
 6427TIP3    H143476   1.446   3.769  11.754  0.1341  0.1261  0.6095
 6427TIP3    H243477   1.500   3.717  11.886  0.2359  0.0102  0.5216
 6428TIP3   OH243478   0.965   1.425  10.550 -0.0970  0.8327  0.1900
 6428TIP3    H143479   0.899   1.402  10.615 -0.5976  2.7963  0.4294
 6428TIP3    H243480   0.933   1.385  10.468 -1.1182  1.0134  0.4888
 6429TIP3   OH243481   1.132   0.030  11.758 -0.0468 -0.6459  0.0053
 6429TIP3    H143482   1.207   0.085  11.732  0.9804 -2.2747 -0.6662
 6429TIP3    H243483   1.078   0.087  11.812  0.0065  1.6004 -2.1393
 6430TIP3   OH243484   1.282   5.608  10.484 -0.1918 -0.2432 -0.3276
 6430TIP3    H143485   1.304   5.701  10.473 -0.0275 -0.1621  0.6135
 6430TIP3    H243486   1.366   5.566  10.501 -0.1072 -0.7624 -1.9026
 6431TIP3   OH243487   2.400   4.983  11.669  0.2252 -0.5196  0.1837
 6431TIP3    H143488   2.463   4.953  11.603 -0.6862  0.2899 -1.1016
 6431TIP3    H243489   2.451   5.042  11.725  0.4884  0.6887 -1.2633
 6432TIP3   OH243490   0.925   6.654  12.612  0.1338 -0.2053  0.0407
 6432TIP3    H143491   0.874   6.680  12.688  0.3510  1.5869 -0.3959
 6432TIP3    H243492   1.016   6.667  12.639  0.2392 -0.3299 -0.2530
 6433TIP3   OH243493   7.038   3.720  10.636  0.0005  0.2785 -0.7106
 6433TIP3    H143494   7.080   3.664  10.701 -1.8949 -0.0278  0.3140
 6433TIP3    H243495   7.032   3.806  10.678 -0.2078  0.3779 -0.9379
 6434TIP3   OH243496   2.278   0.538  12.144  0.1235  0.3459 -0.3244
 6434TIP3    H143497   2.238   0.576  12.066 -0.0635  1.6010  0.3650
 6434TIP3    H243498   2.362   0.583  12.153  0.8964 -0.9543 -0.7056
 6435TIP3   OH243499   4.532   2.169  12.305  0.1321  0.0480  0.6751
 6435TIP3    H143500   4.438   2.153  12.304  0.0351  0.4659  1.5779
 6435TIP3    H243501   4.572   2.082  12.299 -0.2970 -0.0983 -0.1909
 6436TIP3   OH243502   7.405   0.380  11.745  0.4147  0.0897 -0.1963
 6436TIP3    H143503   7.485   0.335  11.717  0.2314 -0.4444  0.1408
 6436TIP3    H243504   7.433   0.471  11.755  1.5284 -0.4182  1.9568
 6437TIP3   OH243505   3.641   7.233  11.940  0.5632 -0.0272 -0.4986
 6437TIP3    H143506   3.582   7.219  12.014  0.5372 -1.2936 -0.7306
 6437TIP3    H243507   3.686   7.315  11.960  1.5763 -1.0205  1.6300
 6438TIP3   OH243508   4.767   0.367  11.204  0.2788 -0.3284 -0.0383
 6438TIP3    H143509   4.740   0.275  11.196  1.5398 -0.7901  0.7413
 6438TIP3    H243510   4.689   0.412  11.235 -0.3931 -1.1175 -0.5507
 6439TIP3   OH243511   7.487   4.178  12.487  0.8471  0.5287 -0.4204
 6439TIP3    H143512   7.541   4.146  12.559 -1.0594  1.8194  1.7349
 6439TIP3    H243513   7.524   4.264  12.466  1.4723  0.1034 -1.0581
 6440TIP3   OH243514   1.426   1.114  11.991 -0.2105  0.4477  0.1469
 6440TIP3    H143515   1.516   1.083  11.985  0.2500  1.6199  0.7531
 6440TIP3    H243516   1.377   1.057  11.931  1.0073  0.0923 -0.5369
 6441TIP3   OH243517   3.100   6.852  12.395 -0.1219 -0.2978  0.2535
 6441TIP3    H143518   3.018   6.806  12.410  0.0632 -0.4685  0.7474
 6441TIP3    H243519   3.167   6.784  12.398  0.0747 -0.1109  0.1742
 6442TIP3   OH243520   7.045   3.717  10.140 -0.3551 -0.2296 -0.0216
 6442TIP3    H143521   7.085   3.669  10.068 -0.0994 -0.0403 -0.0067
 6442TIP3    H243522   7.117   3.736  10.200 -0.5393 -0.2569  0.2115
 6443TIP3   OH243523   2.318   2.235  12.956  0.0803  0.1443 -0.0500
 6443TIP3    H143524   2.288   2.271  13.039  0.0600 -0.0297  0.0176
 6443TIP3    H243525   2.254   2.167  12.935  0.1562  0.1024 -0.1450
 6444TIP3   OH243526   1.765   4.772  13.241 -0.4402  0.1470  0.2336
 6444TIP3    H143527   1.854   4.774  13.275 -1.0868 -0.9194  2.0950
 6444TIP3    H243528   1.731   4.860  13.257  0.2820  0.5920 -0.5852
 6445TIP3   OH243529   7.061   5.162  12.529  0.6587  0.3257  0.7940
 6445TIP3    H143530   7.017   5.116  12.600  1.2322 -2.5281 -0.5677
 6445TIP3    H243531   7.009   5.142  12.451  0.4221  2.8238  0.2295
 6446TIP3   OH243532   1.303   2.146  11.464  0.4202 -0.4516 -0.0283
 6446TIP3    H143533   1.377   2.145  11.526 -0.1056  0.0588  0.6157
 6446TIP3    H243534   1.263   2.232  11.475 -0.1055 -0.6154 -0.5857
 6447TIP3   OH243535   1.673   5.921  12.721 -0.0504  0.5734 -0.1607
 6447TIP3    H143536   1.581   5.946  12.726 -0.1690 -0.0656  1.3770
 6447TIP3    H243537   1.673   5.826  12.735  0.7910  0.4626 -0.8408
 6448TIP3   OH243538   6.191   4.013  10.516  0.0504 -0.1362  0.3924
 6448TIP3    H143539   6.207   4.106  10.535 -2.6451  0.0151  2.6228
 6448TIP3    H243540   6.096   4.007  10.503  0.0432 -2.6771  1.1225
 6449TIP3   OH243541   5.334   4.085  12.814  0.3596 -0.2989 -0.2174
 6449TIP3    H143542   5.306   4.176  12.800 -0.5757 -0.8546 -2.4990
 6449TIP3    H243543   5.425   4.084  12.785  1.4810  0.5013  2.8299
 6450TIP3   OH243544   1.316   4.176  11.557  0.1495  0.3864  0.0638
 6450TIP3    H143545   1.281   4.087  11.557 -1.5511  1.0223 -0.1021
 6450TIP3    H243546   1.354   4.187  11.644 -1.2027  0.0645  0.7232
 6451TIP3   OH243547   6.168   6.077  10.998 -0.0202  0.6935  0.6414
 6451TIP3    H143548   6.102   6.146  10.997  0.9104  1.7084 -2.3909
 6451TIP3    H243549   6.244   6.117  11.039  0.5357  1.5875 -1.1586
 6452TIP3   OH243550   1.268   0.480  12.602  0.1207  0.0653 -0.7932
 6452TIP3    H143551   1.190   0.535  12.612  0.9441  0.9344  1.5274
 6452TIP3    H243552   1.261   0.415  12.671  1.3909  0.0954 -0.6164
 6453TIP3   OH243553   1.215   5.374  11.830  0.5173 -0.9108  0.3224
 6453TIP3    H143554   1.306   5.401  11.816 -0.0836  1.3008  0.2537
 6453TIP3    H243555   1.167   5.456  11.838 -2.0111 -1.8501 -2.8825
 6454TIP3   OH243556   0.286   5.895  10.823 -0.6311 -0.2757  0.1916
 6454TIP3    H143557   0.325   5.836  10.759 -0.9026 -0.7848  0.4961
 6454TIP3    H243558   0.254   5.969  10.771  1.6913  0.6857  0.0260
 6455TIP3   OH243559   7.020   5.814  11.909 -0.1447 -0.1795 -0.7584
 6455TIP3    H143560   7.087   5.788  11.972  0.2050 -0.9888 -1.4438
 6455TIP3    H243561   7.019   5.910  11.912  2.1180 -0.0622 -1.8048
 6456TIP3   OH243562   7.432   3.604  10.758  0.5712 -0.2130  0.8531
 6456TIP3    H143563   7.365   3.536  10.750  0.4448  0.1136 -1.4197
 6456TIP3    H243564   7.384   3.686  10.751  1.0074  0.0852  1.2440
 6457TIP3   OH243565   4.757   5.825  11.352  0.5713  0.0193  0.1327
 6457TIP3    H143566   4.743   5.897  11.290  1.9781  0.0463 -0.1900
 6457TIP3    H243567   4.675   5.820  11.402 -0.7242 -0.2110 -1.9195
 6458TIP3   OH243568   3.998   6.433  10.454 -0.2475  0.1705 -0.0730
 6458TIP3    H143569   4.051   6.498  10.409 -0.9122  0.7342 -0.0653
 6458TIP3    H243570   3.940   6.398  10.387  0.0188 -0.3192 -0.0486
 6459TIP3   OH243571   1.015   4.767  12.343 -0.0817 -0.5706  0.0138
 6459TIP3    H143572   1.014   4.825  12.266 -1.7222  0.1634  0.5511
 6459TIP3    H243573   1.048   4.821  12.414  2.8852 -1.6632 -0.4004
 6460TIP3   OH243574   3.303   2.703  11.330 -0.2832  0.5144  0.0108
 6460TIP3    H143575   3.245   2.775  11.304  1.0167  2.0924  1.2535
 6460TIP3    H243576   3.384   2.746  11.356  1.9279 -1.6813 -2.6553
 6461TIP3   OH243577   5.302   3.387  10.487  0.1701  0.3918 -0.2006
 6461TIP3    H143578   5.207   3.392  10.476 -0.1996 -1.7873  1.5467
 6461TIP3    H243579   5.326   3.473  10.522 -1.0196  1.2099 -1.2886
 6462TIP3   OH243580   5.038   0.160  11.653 -0.1170  0.7665 -0.1768
 6462TIP3    H143581   5.016   0.154  11.746  0.9876  0.3018  0.0738
 6462TIP3    H243582   4.967   0.210  11.615 -1.2157 -0.0735  0.7046
 6463TIP3   OH243583   5.834   7.327  11.101  0.1102  0.4148 -1.0996
 6463TIP3    H143584   5.818   7.387  11.028  1.3874  1.5145 -0.5172
 6463TIP3    H243585   5.817   7.379  11.179  0.3051 -0.2729 -0.5890
 6464TIP3   OH243586   5.957   0.547  12.849 -0.3458  0.3339 -0.1212
 6464TIP3    H143587   5.882   0.497  12.880 -0.1812  0.0137 -0.2397
 6464TIP3    H243588   5.983   0.505  12.767 -0.5306  0.9324 -0.4931
 6465TIP3   OH243589   7.614   1.477  11.147 -0.2239  0.3864  0.6152
 6465TIP3    H143590   7.680   1.464  11.079  0.9234  1.5223  1.4705
 6465TIP3    H243591   7.539   1.512  11.100  0.5229  1.0759 -0.1024
 6466TIP3   OH243592   4.690   6.202  10.774  0.1559  0.1616  0.3631
 6466TIP3    H143593   4.665   6.128  10.829  0.6867  0.6866  1.3468
 6466TIP3    H243594   4.634   6.274  10.803 -0.3750  0.1516 -0.6007
 6467TIP3   OH243595   6.520   4.211  12.630  0.1407  0.2199 -0.1191
 6467TIP3    H143596   6.502   4.252  12.715  0.0166  1.0629 -0.5424
 6467TIP3    H243597   6.435   4.186  12.596  0.1548  0.2309 -0.1639
 6468TIP3   OH243598   0.434   5.567  10.393 -0.0623  0.4967  0.1436
 6468TIP3    H143599   0.502   5.629  10.419  0.8639  0.4005 -1.8025
 6468TIP3    H243600   0.476   5.481  10.400 -1.5671 -0.1194  3.5533
 6469TIP3   OH243601   6.431   4.506  10.179  0.2260  0.2867  0.1532
 6469TIP3    H143602   6.378   4.432  10.208  1.0132  0.5065  2.3125
 6469TIP3    H243603   6.397   4.581  10.229  1.1705  0.8354 -0.0049
 6470TIP3   OH243604   7.624   7.630  10.635  0.0416 -0.3076  0.1039
 6470TIP3    H143605   7.678   7.708  10.626  1.6791 -1.2964  0.8743
 6470TIP3    H243606   7.687   7.558  10.642 -1.4021 -1.6199  0.1793
 6471TIP3   OH243607   4.953   0.969  11.960  0.3258  0.2365  0.3342
 6471TIP3    H143608   4.940   1.012  12.044 -0.5663  0.0066  0.3284
 6471TIP3    H243609   4.909   0.884  11.969 -0.3788  0.4907 -0.5829
 6472TIP3   OH243610   1.873   5.610  12.884 -0.4630  0.0692 -0.4506
 6472TIP3    H143611   1.876   5.564  12.800  0.8478 -2.4319  0.8450
 6472TIP3    H243612   1.963   5.607  12.916 -0.9101  1.1012  0.9711
 6473TIP3   OH243613   2.140   3.559  12.271  0.1832  0.7374 -0.4230
 6473TIP3    H143614   2.066   3.613  12.298  0.1809  0.1197  0.8679
 6473TIP3    H243615   2.209   3.622  12.248  0.2847  1.3150  1.3268
 6474TIP3   OH243616   4.568   5.363  10.996 -0.1961  0.3520  0.0536
 6474TIP3    H143617   4.575   5.267  10.995  1.4254  0.4368  0.4746
 6474TIP3    H243618   4.478   5.380  11.022 -0.2399 -1.0753  0.9451
 6475TIP3   OH243619   0.753   0.903  12.669  1.1237  0.1708 -0.1459
 6475TIP3    H143620   0.801   0.852  12.604  0.4014 -1.4642  0.5623
 6475TIP3    H243621   0.811   0.976  12.689  2.0977 -0.2308 -1.3428
 6476TIP3   OH243622   1.266   6.509  12.517  0.3774 -0.4170 -0.6797
 6476TIP3    H143623   1.219   6.593  12.518  0.1606 -0.5432 -0.0912
 6476TIP3    H243624   1.272   6.483  12.609  2.9188  0.3235 -0.5551
 6477TIP3   OH243625   5.010   5.088  11.376  0.0617  0.0967  0.1266
 6477TIP3    H143626   5.090   5.036  11.368 -0.2154 -0.2977 -0.1369
 6477TIP3    H243627   5.034   5.175  11.343  0.0328 -0.3879 -1.2431
 6478TIP3   OH243628   2.447   6.926  10.615  0.2680  0.5770  0.4104
 6478TIP3    H143629   2.457   6.873  10.535 -1.6928 -1.9216  1.6596
 6478TIP3    H243630   2.452   7.016  10.584  0.1251 -0.2823 -2.4682
 6479TIP3   OH243631   2.623   7.274  11.805  0.3106 -0.4642  0.4078
 6479TIP3    H143632   2.565   7.225  11.747  0.8793 -0.7862  0.1137
 6479TIP3    H243633   2.696   7.300  11.750  0.5651 -0.2594  0.8397
 6480TIP3   OH243634   4.621   5.779  12.590  0.3316  0.1299  0.0023
 6480TIP3    H143635   4.650   5.694  12.624 -0.8446 -0.8282 -1.2618
 6480TIP3    H243636   4.605   5.832  12.668  0.9820 -0.8417  0.8214
 6481TIP3   OH243637   5.710   6.976  12.716  0.8966 -0.4142  0.1382
 6481TIP3    H143638   5.764   6.999  12.792  0.2888  1.6855  0.0020
 6481TIP3    H243639   5.632   6.935  12.754 -0.2931  2.3022  0.9441
 6482TIP3   OH243640   5.512   2.858  11.433  0.3507 -0.0372 -0.6500
 6482TIP3    H143641   5.588   2.802  11.416 -0.4204 -1.2886 -0.1048
 6482TIP3    H243642   5.499   2.906  11.351  0.5691 -1.2357 -1.4197
 6483TIP3   OH243643   5.036   1.048  11.712 -0.1736  0.2288  0.2102
 6483TIP3    H143644   5.021   1.046  11.807 -2.3307 -0.4962 -0.0800
 6483TIP3    H243645   4.960   1.093  11.677 -0.9709 -2.1315 -1.3553
 6484TIP3   OH243646   1.191   1.917  10.717  0.6015  0.6079  0.4582
 6484TIP3    H143647   1.129   1.873  10.774  0.3108 -2.2020 -1.7895
 6484TIP3    H243648   1.144   1.994  10.684 -1.5265 -1.0295 -0.5939
 6485TIP3   OH243649   0.996   0.562  10.647  0.3607 -0.6038  0.4990
 6485TIP3    H143650   0.927   0.546  10.712 -0.8516 -1.5591 -0.9598
 6485TIP3    H243651   1.034   0.475  10.632  2.6601  0.0587  2.0506
 6486TIP3   OH243652   7.389   3.260  12.347 -0.4787 -0.6002  0.3483
 6486TIP3    H143653   7.371   3.350  12.320  1.0625 -0.0589  1.0064
 6486TIP3    H243654   7.344   3.251  12.431  1.2110  0.3504  1.4105
 6487TIP3   OH243655   3.408   4.250  10.799  0.1269 -0.2191 -0.7017
 6487TIP3    H143656   3.449   4.275  10.882  0.5577  0.6067 -1.1498
 6487TIP3    H243657   3.365   4.330  10.768  3.5985  0.8775 -3.3890
 6488TIP3   OH243658   0.557   5.845  12.431  0.4902  0.1326 -0.1068
 6488TIP3    H143659   0.544   5.754  12.404 -0.6725  0.2115  0.1301
 6488TIP3    H243660   0.619   5.840  12.504  0.9249 -0.4054 -0.5084
 6489TIP3   OH243661   2.272   7.189  12.592  0.8003  0.1450 -0.2695
 6489TIP3    H143662   2.269   7.279  12.625 -2.8473  0.6050 -1.4696
 6489TIP3    H243663   2.258   7.198  12.498  2.1871 -1.6503 -0.7020
 6490TIP3   OH243664   4.846   3.294  11.733 -0.1084  0.5893 -0.1453
 6490TIP3    H143665   4.795   3.284  11.814 -1.8600  1.1337 -1.1280
 6490TIP3    H243666   4.792   3.350  11.678  1.1906  0.4749 -1.5957
 6491TIP3   OH243667   3.412   5.133  12.522 -0.0928  0.0087 -0.3270
 6491TIP3    H143668   3.317   5.121  12.515  0.0089 -0.3594 -1.2659
 6491TIP3    H243669   3.433   5.111  12.613 -1.0571  1.2878  0.2358
 6492TIP3   OH243670   5.778   1.157  11.819 -0.4684  0.7695  0.3977
 6492TIP3    H143671   5.712   1.139  11.886  0.7481 -0.2456  1.3836
 6492TIP3    H243672   5.738   1.223  11.763 -1.7880  1.1873  1.7585
 6493TIP3   OH243673   2.735   5.355  11.816  0.2990  0.2486 -0.5881
 6493TIP3    H143674   2.762   5.366  11.907 -0.6696 -1.8862  0.0264
 6493TIP3    H243675   2.669   5.424  11.802  1.0142  1.0864  0.0440
 6494TIP3   OH243676   2.612   5.962  11.826 -0.0362  0.2966  0.4352
 6494TIP3    H143677   2.601   5.908  11.747  0.6233  0.6624  0.0876
 6494TIP3    H243678   2.558   5.918  11.892 -0.0230 -0.4233 -0.0179
 6495TIP3   OH243679   7.397   6.105  12.950  0.3110 -0.1089  0.0832
 6495TIP3    H143680   7.459   6.141  13.013 -0.0415  1.0689 -0.2279
 6495TIP3    H243681   7.452   6.058  12.887  0.6941 -0.9661  1.0367
 6496TIP3   OH243682   5.775   3.370  11.892  1.2930 -0.2107 -0.1455
 6496TIP3    H143683   5.774   3.276  11.912 -2.2778 -0.8764 -2.5244
 6496TIP3    H243684   5.724   3.410  11.962  1.5485 -0.2635  0.0723
 6497TIP3   OH243685   4.323   3.743  11.464  0.1819  0.1643  0.2885
 6497TIP3    H143686   4.394   3.792  11.425  0.3895 -1.3177 -1.3109
 6497TIP3    H243687   4.243   3.780  11.426  0.1148  1.2117  1.3847
 6498TIP3   OH243688   5.908   2.872  12.957 -0.4980  0.2693 -0.5949
 6498TIP3    H143689   5.967   2.887  13.031  0.4430  0.0087 -1.2739
 6498TIP3    H243690   5.966   2.846  12.885 -1.3696  0.7703 -1.4978
 6499TIP3   OH243691   3.385   7.174  11.565  0.1229 -0.0515  0.2812
 6499TIP3    H143692   3.311   7.132  11.522  0.7849 -1.3847  0.3842
 6499TIP3    H243693   3.346   7.238  11.624 -0.9281 -0.5764  0.1698
 6500TIP3   OH243694   3.675   3.776  12.740 -0.3583  0.0012 -0.7900
 6500TIP3    H143695   3.607   3.767  12.806  0.2323  0.2859 -0.1240
 6500TIP3    H243696   3.756   3.750  12.785 -0.0519 -0.5735 -1.6314
 6501TIP3   OH243697   5.069   0.145  10.517 -0.3279  0.0634  0.1298
 6501TIP3    H143698   5.069   0.241  10.508  2.5285 -0.0491 -3.0483
 6501TIP3    H243699   5.092   0.113  10.430  0.8084 -3.4742  1.5554
 6502TIP3   OH243700   6.096   4.087  11.109  0.1811  0.0600  0.6184
 6502TIP3    H143701   6.091   4.181  11.095 -0.4485 -0.3046 -2.2646
 6502TIP3    H243702   6.007   4.055  11.096  0.8098 -1.1576 -1.1585
 6503TIP3   OH243703   3.681   5.689  11.542  0.1327 -0.5226  0.2170
 6503TIP3    H143704   3.766   5.694  11.585 -0.1224  0.7067  0.6240
 6503TIP3    H243705   3.680   5.604  11.499  1.8349 -0.2684 -0.3692
 6504TIP3   OH243706   4.411   7.062  11.582  0.3100 -0.5006 -0.2590
 6504TIP3    H143707   4.433   7.147  11.543  1.6651 -1.3858 -1.5521
 6504TIP3    H243708   4.316   7.057  11.577  0.0108  1.6438  1.4640
 6505TIP3   OH243709   5.108   3.905  10.979 -0.3103 -0.2416  0.0569
 6505TIP3    H143710   5.069   3.869  10.899  0.9583  0.6845 -1.0061
 6505TIP3    H243711   5.195   3.865  10.983  0.0633  0.5897  0.3420
 6506TIP3   OH243712   4.213   3.273  11.236 -0.2713  0.5719  0.4185
 6506TIP3    H143713   4.300   3.269  11.278  0.5936  1.7559 -1.1443
 6506TIP3    H243714   4.163   3.332  11.292  0.4656  1.1591  0.4848
 6507TIP3   OH243715   5.433   4.047  12.175  0.4228 -0.2286 -0.5526
 6507TIP3    H143716   5.390   4.130  12.159  1.1641 -0.1498 -2.3132
 6507TIP3    H243717   5.418   4.030  12.268 -3.9511 -0.5614 -1.1091
 6508TIP3   OH243718   5.995   6.216  11.278  0.1911  0.3613 -0.3704
 6508TIP3    H143719   5.979   6.238  11.186  0.3938 -0.9911 -0.7503
 6508TIP3    H243720   6.041   6.293  11.313  0.5013  0.7243 -1.5103
 6509TIP3   OH243721   7.197   1.746  11.749 -0.2556 -0.0498  0.2046
 6509TIP3    H143722   7.267   1.681  11.747  0.1139  0.3520  0.2108
 6509TIP3    H243723   7.149   1.732  11.668 -0.2988 -0.4645  0.2969
 6510TIP3   OH243724   3.407   1.990  11.254  0.3327 -0.3267 -0.0427
 6510TIP3    H143725   3.345   1.953  11.190 -0.5236 -0.7127  0.9844
 6510TIP3    H243726   3.389   2.084  11.254  0.4682 -0.2967 -0.4943
 6511TIP3   OH243727   6.808   4.673  12.528 -0.2828 -0.8521  0.0892
 6511TIP3    H143728   6.798   4.701  12.437  1.7976  0.9881  0.3241
 6511TIP3    H243729   6.770   4.745  12.579 -0.8979 -1.5978  0.7128
 6512TIP3   OH243730   6.443   5.648  12.105  0.2248 -0.1775  0.0296
 6512TIP3    H143731   6.510   5.589  12.139  0.1638  0.4742  1.3209
 6512TIP3    H243732   6.446   5.635  12.010  1.0394 -1.3553  0.1961
 6513TIP3   OH243733   2.453   3.937  11.187  0.0055  0.4948 -0.2446
 6513TIP3    H143734   2.537   3.892  11.184 -0.3684 -0.2778  0.4475
 6513TIP3    H243735   2.447   3.971  11.276 -1.2672 -1.1886  0.3713
 6514TIP3   OH243736   2.550   3.349  12.333 -0.5379  0.4593  0.1496
 6514TIP3    H143737   2.614   3.342  12.263 -1.1092 -1.5421 -0.2262
 6514TIP3    H243738   2.600   3.377  12.409  0.8974 -1.4241 -0.0362
 6515TIP3   OH243739   3.316   1.512  11.194  0.2859  0.2895  0.1655
 6515TIP3    H143740   3.407   1.539  11.190  0.8088 -1.2860  0.7282
 6515TIP3    H243741   3.282   1.551  11.274  0.9134 -0.3716  0.7633
 6516TIP3   OH243742   0.014   3.537  12.485  0.1028 -0.1568  0.1080
 6516TIP3    H143743  -0.012   3.446  12.475 -1.6433  0.2109  0.7924
 6516TIP3    H243744   0.015   3.551  12.580 -2.4136  1.1830  0.0416
 6517TIP3   OH243745   3.262   7.518  13.026 -0.0108 -0.4486  0.2839
 6517TIP3    H143746   3.347   7.562  13.036 -0.3093  0.0348  0.6951
 6517TIP3    H243747   3.237   7.493  13.114 -2.3473  3.2843  0.8533
 6518TIP3   OH243748   7.068   7.019  13.093 -0.7537 -0.1318 -0.0397
 6518TIP3    H143749   7.080   7.102  13.139  1.5747 -0.5925  0.3123
 6518TIP3    H243750   7.018   6.964  13.154 -1.0371  0.5318  0.3276
 6519TIP3   OH243751   1.129   6.203  10.888 -0.8584 -0.7175  0.2713
 6519TIP3    H143752   1.087   6.204  10.974  0.1112  0.3934  0.7707
 6519TIP3    H243753   1.198   6.138  10.896  0.8689  1.0948  1.2380
 6520TIP3   OH243754   4.045   7.535  10.907  0.1980 -0.3198  0.2611
 6520TIP3    H143755   4.081   7.618  10.875  0.1647 -1.0078 -1.6351
 6520TIP3    H243756   3.955   7.533  10.873  0.0858 -0.9923  0.5811
 6521TIP3   OH243757   1.067   0.726  12.026  0.0173 -0.0883 -0.8039
 6521TIP3    H143758   1.022   0.708  11.944  2.5408  0.9907 -2.5544
 6521TIP3    H243759   1.157   0.694  12.012  1.0288  1.7732  0.8176
 6522TIP3   OH243760   7.457   0.989  13.095 -0.4694 -0.1746 -0.5821
 6522TIP3    H143761   7.374   1.003  13.050 -0.7169  2.1790  0.4439
 6522TIP3    H243762   7.433   0.938  13.173 -0.7360 -0.5786 -0.9224
 6523TIP3   OH243763   5.348   7.653  11.970 -0.4166 -0.1885  0.0084
 6523TIP3    H143764   5.336   7.708  11.893 -2.3685 -0.8742 -0.2367
 6523TIP3    H243765   5.318   7.566  11.942 -1.0596 -0.4768  1.5033
 6524TIP3   OH243766   2.476   3.656  10.979 -0.1894  0.2458 -0.4647
 6524TIP3    H143767   2.401   3.708  11.008 -1.3626 -0.9202 -1.2823
 6524TIP3    H243768   2.514   3.708  10.908 -1.7374 -0.2427 -1.7114
 6525TIP3   OH243769   0.266   2.316  11.277  0.5308  0.0146  0.3622
 6525TIP3    H143770   0.308   2.239  11.238  2.6552  0.9000  0.7091
 6525TIP3    H243771   0.291   2.313  11.369 -1.7999 -0.3631  1.0452
 6526TIP3   OH243772   7.286   5.938  12.114  0.5785  0.2172 -0.2978
 6526TIP3    H143773   7.218   5.988  12.068  2.0206  0.6656 -2.1066
 6526TIP3    H243774   7.246   5.853  12.131 -0.8164  0.8574 -0.2189
 6527TIP3   OH243775   6.060   7.464  11.433 -0.2397 -0.3867  0.0742
 6527TIP3    H143776   6.038   7.384  11.386  1.2111 -1.3987  1.0350
 6527TIP3    H243777   6.151   7.453  11.459 -0.2532  1.2135  0.9773
 6528TIP3   OH243778   7.379   7.480  10.914 -0.0948 -0.0641 -0.8270
 6528TIP3    H143779   7.399   7.573  10.905 -1.8552  0.1755 -2.9647
 6528TIP3    H243780   7.354   7.452  10.826 -0.3549 -2.3938 -0.0804
 6529TIP3   OH243781   1.409   2.792  12.759  0.4026 -0.1932  0.1234
 6529TIP3    H143782   1.389   2.877  12.799  0.5066 -0.6963  1.2774
 6529TIP3    H243783   1.325   2.746  12.758  0.3933 -0.1704 -0.2820
 6530TIP3   OH243784   5.532   2.033  11.788  0.1181  0.0104  0.6647
 6530TIP3    H143785   5.456   2.081  11.820  1.0176  2.2753 -0.3489
 6530TIP3    H243786   5.545   2.066  11.699  0.3673 -2.7461 -0.4291
 6531TIP3   OH243787   5.235   1.361  11.230 -0.1032 -0.2593 -1.0990
 6531TIP3    H143788   5.203   1.317  11.151 -1.3490 -1.1860 -0.1199
 6531TIP3    H243789   5.179   1.329  11.300  1.9286 -0.6189  0.4577
 6532TIP3   OH243790   1.923   0.862  13.655 -0.1732 -0.1673  0.5321
 6532TIP3    H143791   1.833   0.852  13.688 -0.4538  2.2399  0.6578
 6532TIP3    H243792   1.923   0.947  13.612  2.0440 -0.1761  0.4306
 6533TIP3   OH243793   2.799   6.418  12.599 -0.4503 -0.8815 -0.0864
 6533TIP3    H143794   2.778   6.398  12.690 -0.7020 -1.4016 -0.2529
 6533TIP3    H243795   2.756   6.349  12.549  0.4410 -1.1226 -0.5370
 6534TIP3   OH243796   6.695   6.484  10.702  0.2941 -0.0451  0.3199
 6534TIP3    H143797   6.670   6.503  10.793 -1.0290  0.0612 -0.0393
 6534TIP3    H243798   6.629   6.421  10.672  0.9975 -0.4521 -0.4301
 6535TIP3   OH243799   2.839   5.945  12.720 -0.2869  0.4489 -0.2437
 6535TIP3    H143800   2.747   5.927  12.739  0.2504 -3.4650 -0.5685
 6535TIP3    H243801   2.884   5.933  12.804  0.1280  0.8632 -0.3992
 6536TIP3   OH243802   5.889   0.710  10.930  0.3280  0.5478 -0.6522
 6536TIP3    H143803   5.815   0.770  10.940  0.3177  0.4204  0.1185
 6536TIP3    H243804   5.965   0.761  10.956  0.4260  0.4789 -0.8014
 6537TIP3   OH243805   5.710   7.048  11.802 -0.3955 -0.0818  0.0168
 6537TIP3    H143806   5.696   7.058  11.896  0.9549  0.7165  0.1626
 6537TIP3    H243807   5.804   7.064  11.790 -0.0988 -2.3859 -1.1896
 6538TIP3   OH243808   1.914   1.217  11.764  0.4979 -0.0512  0.4386
 6538TIP3    H143809   1.919   1.196  11.671  0.9633 -1.5383  0.7746
 6538TIP3    H243810   2.005   1.218  11.794  0.3528  0.3909  0.8753
 6539TIP3   OH243811   7.060   6.370  12.165  0.2000 -0.4638  0.1899
 6539TIP3    H143812   6.964   6.378  12.164  0.2174 -0.2835 -0.7105
 6539TIP3    H243813   7.077   6.283  12.129  0.4182  0.1465 -1.2410
 6540TIP3   OH243814   3.854   6.340  12.701  0.1401  0.2853  0.0038
 6540TIP3    H143815   3.933   6.287  12.707  1.0008  1.3357 -1.4301
 6540TIP3    H243816   3.849   6.366  12.609 -1.4839  0.8474  0.2066
 6541TIP3   OH243817   1.993   4.076  12.288 -0.0426  0.1583 -0.7956
 6541TIP3    H143818   1.969   4.113  12.373 -0.3271 -0.6884 -0.4966
 6541TIP3    H243819   2.056   4.138  12.252 -0.3303  0.8022 -0.2024
 6542TIP3   OH243820   5.832   5.373  10.840  0.6946  0.4163 -0.2189
 6542TIP3    H143821   5.903   5.407  10.786  1.0506  0.8461  0.4972
 6542TIP3    H243822   5.785   5.450  10.870  0.6246  0.2032  0.2389
 6543TIP3   OH243823   1.209   2.457  11.848  0.2391 -0.5641 -0.2912
 6543TIP3    H143824   1.120   2.492  11.852  0.1177 -0.9470  0.9708
 6543TIP3    H243825   1.261   2.529  11.812 -0.2981  0.3047  0.5833
 6544TIP3   OH243826   1.009   6.752  10.590 -0.0782  0.5254 -0.2524
 6544TIP3    H143827   1.101   6.737  10.615  0.0212  1.2325 -0.1869
 6544TIP3    H243828   0.962   6.677  10.627  0.9942 -2.1382 -3.6713
 6545TIP3   OH243829   5.138   4.897  11.591  0.1394  0.1356  0.2959
 6545TIP3    H143830   5.130   4.991  11.608  1.7831  0.1955  0.8994
 6545TIP3    H243831   5.113   4.856  11.674 -1.5537 -0.0399 -0.2623
 6546TIP3   OH243832   2.248   6.631  13.531  0.2020  0.2002  0.7091
 6546TIP3    H143833   2.236   6.700  13.596  0.0820  0.6835  0.1879
 6546TIP3    H243834   2.343   6.624  13.522  0.2076  0.8156  0.2342
 6547TIP3   OH243835   5.396   4.986  10.623 -0.4950 -0.1180 -0.5560
 6547TIP3    H143836   5.491   4.985  10.612 -0.1921 -1.0623  1.7313
 6547TIP3    H243837   5.375   5.075  10.650 -0.3618  0.2564 -1.6501
 6548TIP3   OH243838   4.980   7.214  10.805  0.1116  0.1167  0.0060
 6548TIP3    H143839   4.992   7.294  10.755 -0.0931 -0.0816 -0.3573
 6548TIP3    H243840   5.060   7.164  10.789  0.5963  0.5865  0.8663
 6549TIP3   OH243841   0.024   3.445  11.620  0.1136 -0.1026  0.3064
 6549TIP3    H143842   0.096   3.390  11.589 -0.7469 -0.6742 -0.7570
 6549TIP3    H243843   0.003   3.412  11.707  0.8687 -0.1984  0.4513
 6550TIP3   OH243844   3.837   5.269  12.211  0.3885  0.2340  0.0139
 6550TIP3    H143845   3.841   5.311  12.297  0.2318  1.0319 -0.3550
 6550TIP3    H243846   3.877   5.183  12.224  1.4239  0.7861  0.6277
 6551TIP3   OH243847   4.754   0.257  12.560 -0.2423 -0.4019 -0.2682
 6551TIP3    H143848   4.722   0.298  12.640  0.4420 -1.1122  0.3822
 6551TIP3    H243849   4.715   0.309  12.489 -1.6832 -0.3828  0.4969
 6552TIP3   OH243850   2.518   2.575  11.087 -0.2235 -0.0005  0.1224
 6552TIP3    H143851   2.540   2.575  10.994  0.2626  0.1518  0.2336
 6552TIP3    H243852   2.512   2.483  11.111 -0.1701 -0.0395 -0.0186
 6553TIP3   OH243853   5.909   4.415  13.235  0.4807  0.0447 -0.4196
 6553TIP3    H143854   5.970   4.346  13.211  0.4057 -0.3656  0.5288
 6553TIP3    H243855   5.964   4.490  13.257  0.6038 -0.0615 -0.3710
 6554TIP3   OH243856   4.283   4.489  11.993 -0.1071  0.4643  0.4944
 6554TIP3    H143857   4.304   4.398  12.013  0.7071  0.5708  0.1796
 6554TIP3    H243858   4.190   4.488  11.970  0.0838 -0.4216 -0.2816
 6555TIP3   OH243859   3.973   2.689  12.241  1.0973  0.1375  0.1012
 6555TIP3    H143860   3.926   2.714  12.162  0.6716 -2.4600 -0.5586
 6555TIP3    H243861   4.023   2.767  12.264 -0.8108  1.8578 -1.1610
 6556TIP3   OH243862   5.254   6.753  10.649  0.4266 -0.2903  0.7721
 6556TIP3    H143863   5.291   6.665  10.656  0.4160 -0.3607  0.0576
 6556TIP3    H243864   5.320   6.810  10.689  0.6257 -0.5783  0.8561
 6557TIP3   OH243865   4.214   4.227  11.765 -0.0091  0.2566 -0.3668
 6557TIP3    H143866   4.290   4.274  11.733 -0.9828  0.5599 -2.4428
 6557TIP3    H243867   4.247   4.140  11.787  1.2582  0.9635  0.6555
 6558TIP3   OH243868   7.613   7.373  12.828 -0.4092  0.0944 -0.2836
 6558TIP3    H143869   7.536   7.316  12.830 -0.2117 -0.2430 -1.5516
 6558TIP3    H243870   7.623   7.402  12.919 -0.2249 -2.2852  0.5461
 6559TIP3   OH243871   5.940   1.650  12.869 -0.4310  0.3889 -0.3109
 6559TIP3    H143872   5.975   1.563  12.853 -1.6712 -0.2880  0.5152
 6559TIP3    H243873   5.947   1.662  12.964 -2.5749  0.1214 -0.0695
 6560TIP3   OH243874   2.192   2.089  12.342 -0.0691 -0.1778  0.0485
 6560TIP3    H143875   2.178   2.165  12.285 -0.4518 -0.9121 -0.8616
 6560TIP3    H243876   2.286   2.072  12.336 -0.3728 -1.4993 -2.0615
 6561TIP3   OH243877   1.297   6.355  11.894  0.3667  0.3855  0.1688
 6561TIP3    H143878   1.215   6.394  11.862 -0.1565  0.0751  1.0928
 6561TIP3    H243879   1.283   6.345  11.988 -0.0823 -3.2526 -0.1651
 6562TIP3   OH243880   1.805   7.611  10.927 -0.2277 -0.1486  0.0854
 6562TIP3    H143881   1.825   7.666  11.003  0.6598  1.0198 -0.9410
 6562TIP3    H243882   1.732   7.655  10.884  0.3175  0.1060 -0.6014
 6563TIP3   OH243883   6.886   3.859  10.988 -0.2932 -0.6610 -0.2763
 6563TIP3    H143884   6.844   3.900  11.064  0.1487 -1.0239  0.1757
 6563TIP3    H243885   6.935   3.930  10.947 -0.3942 -0.4980 -0.1184
 6564TIP3   OH243886   4.486   1.271  12.925  0.4129 -0.3140 -0.3987
 6564TIP3    H143887   4.564   1.240  12.971  0.1742 -0.4173 -0.0523
 6564TIP3    H243888   4.417   1.209  12.951  0.2044 -0.1965 -0.6604
 6565TIP3   OH243889   0.199   6.372  12.168 -0.0550 -0.3339 -0.2769
 6565TIP3    H143890   0.147   6.392  12.090 -0.6347 -0.8486 -0.0251
 6565TIP3    H243891   0.276   6.325  12.134  0.0313  0.0449 -0.6039
 6566TIP3   OH243892   2.101   4.808  10.879 -0.5355  0.4643 -0.6494
 6566TIP3    H143893   2.025   4.821  10.936 -0.7082 -0.6900 -0.5810
 6566TIP3    H243894   2.085   4.864  10.803 -1.3540  0.3851 -0.5380
 6567TIP3   OH243895   2.347   5.352  12.736 -0.1485 -0.4997 -0.2117
 6567TIP3    H143896   2.418   5.366  12.798  0.4472  0.5086 -1.0942
 6567TIP3    H243897   2.313   5.265  12.758 -0.1518 -0.0627  1.7009
 6568TIP3   OH243898   0.895   7.594  11.994  0.1394 -0.1738 -0.9014
 6568TIP3    H143899   0.875   7.570  11.903 -0.8832 -1.3000 -0.4096
 6568TIP3    H243900   0.975   7.547  12.014  0.2560 -0.0892 -1.1629
 6569TIP3   OH243901   6.037   4.851  11.637 -0.0252 -0.3117 -0.1965
 6569TIP3    H143902   6.126   4.818  11.632 -0.5651 -1.8442 -0.0597
 6569TIP3    H243903   5.995   4.798  11.705 -1.0930  0.2579 -0.3808
 6570TIP3   OH243904   6.064   4.305  11.533  0.3551 -0.5747 -0.4680
 6570TIP3    H143905   6.000   4.371  11.507  0.3382  0.8039  2.5857
 6570TIP3    H243906   6.013   4.225  11.545 -1.1969  0.7427  2.9421
 6571TIP3   OH243907   6.436   3.872  11.396 -0.4932 -0.4127 -0.7845
 6571TIP3    H143908   6.359   3.878  11.339 -0.0181  1.7746 -1.2633
 6571TIP3    H243909   6.492   3.943  11.368  0.1526  0.2119  1.8607
 6572TIP3   OH243910   2.128   3.817  12.529 -0.1289 -0.7824 -0.1695
 6572TIP3    H143911   2.073   3.876  12.580  0.9018 -0.9133  1.1413
 6572TIP3    H243912   2.093   3.823  12.440  0.0824  1.9936 -0.1549
 6573TIP3   OH243913   0.268   0.103  10.852 -0.3266 -0.1523  0.3303
 6573TIP3    H143914   0.253   0.017  10.814 -3.4068  0.4867 -0.1906
 6573TIP3    H243915   0.242   0.094  10.944 -1.1758  0.2867  0.1508
 6574TIP3   OH243916   6.256   4.047  12.058  0.0199  0.4954 -0.2377
 6574TIP3    H143917   6.309   3.988  12.111  0.4252 -0.4369 -1.6249
 6574TIP3    H243918   6.269   4.133  12.097  3.0207  0.4136 -0.8461
 6575TIP3   OH243919   7.088   0.496  12.371 -0.4938  0.0913 -0.0294
 6575TIP3    H143920   7.160   0.470  12.313 -0.8391 -0.7664 -0.0978
 6575TIP3    H243921   7.109   0.585  12.398 -0.7494  0.8696 -2.1744
 6576TIP3   OH243922   6.532   6.002  12.032  0.3033  0.2946  0.3334
 6576TIP3    H143923   6.570   5.929  11.983  0.2504  0.0170  0.7017
 6576TIP3    H243924   6.593   6.016  12.104  0.1239  0.3781  0.4690
 6577TIP3   OH243925   1.736   3.634  11.259 -0.5563 -0.2215  0.1305
 6577TIP3    H143926   1.654   3.601  11.297 -2.3858  2.8093 -0.7609
 6577TIP3    H243927   1.715   3.651  11.168  1.3161 -0.0076 -0.3042
 6578TIP3   OH243928   0.294   2.190  11.570  0.2055 -0.2468  0.1966
 6578TIP3    H143929   0.214   2.233  11.601  0.7278  0.0107  1.2309
 6578TIP3    H243930   0.277   2.097  11.581 -0.3792 -0.2615 -0.6888
 6579TIP3   OH243931   7.664   5.019  10.931  0.2056 -0.1380 -0.6664
 6579TIP3    H143932   7.641   5.051  10.844  1.1133  0.0705 -0.8358
 6579TIP3    H243933   7.690   5.097  10.980 -2.6299  0.1359  0.6042
 6580TIP3   OH243934   4.295   2.698  12.293  0.2938 -0.2058 -0.1520
 6580TIP3    H143935   4.248   2.624  12.331 -0.4971 -0.4381 -1.5022
 6580TIP3    H243936   4.293   2.682  12.198 -0.3857  1.7962 -0.5291
 6581TIP3   OH243937   1.283   5.171  11.219  0.1324 -0.3129 -0.0587
 6581TIP3    H143938   1.217   5.219  11.169 -1.3134 -0.6297  1.4443
 6581TIP3    H243939   1.336   5.239  11.259 -1.5059  0.1169  1.5396
 6582TIP3   OH243940   4.109   3.514  12.271  0.2993 -0.2981  0.5261
 6582TIP3    H143941   4.162   3.515  12.351 -0.0449  1.6779  0.7664
 6582TIP3    H243942   4.170   3.541  12.202 -0.0215  0.4977  0.5500
 6583TIP3   OH243943   6.741   4.030  12.572 -0.1920  0.1061 -0.1416
 6583TIP3    H143944   6.669   4.089  12.594  1.6925  2.4286  0.2759
 6583TIP3    H243945   6.749   3.972  12.648  0.1401  1.7290  1.1277
 6584TIP3   OH243946   2.271   5.994  10.984  0.4323 -0.2130  0.1345
 6584TIP3    H143947   2.225   5.943  11.051  2.1323 -0.9710  0.7896
 6584TIP3    H243948   2.208   6.000  10.911 -2.0946  2.0154  2.2855
 6585TIP3   OH243949   3.827   1.429  11.266  0.2074 -0.0650  0.3608
 6585TIP3    H143950   3.911   1.470  11.243  1.1803 -1.3809  1.4166
 6585TIP3    H243951   3.835   1.408  11.359 -1.2090 -0.4555  0.4175
 6586TIP3   OH243952   5.590   6.230  10.697 -0.6650 -0.3632 -0.0628
 6586TIP3    H143953   5.535   6.157  10.725 -0.1842 -0.7774 -0.1715
 6586TIP3    H243954   5.529   6.294  10.661 -1.1002 -0.6900  0.0798
 6587TIP3   OH243955   3.841   1.894  11.598 -0.1530  0.4825 -0.3250
 6587TIP3    H143956   3.907   1.937  11.545  1.4548 -1.1365  0.2656
 6587TIP3    H243957   3.853   1.930  11.686 -0.8303  1.0086 -0.4427
 6588TIP3   OH243958   7.587   5.637  11.511  0.7768  0.5877 -0.3248
 6588TIP3    H143959   7.527   5.643  11.436  0.5107 -2.3802 -0.4649
 6588TIP3    H243960   7.535   5.595  11.579  2.3910 -1.1553 -0.1254
 6589TIP3   OH243961   2.788   5.405  12.098  0.0195  0.2268  0.7080
 6589TIP3    H143962   2.697   5.432  12.102  0.2211  1.9157 -2.6777
 6589TIP3    H243963   2.836   5.473  12.146 -0.3607 -0.2319  1.7816
 6590TIP3   OH243964   3.354   0.173  13.078 -0.0071 -0.2094 -0.7175
 6590TIP3    H143965   3.323   0.212  13.160  2.9199 -1.1030  0.9732
 6590TIP3    H243966   3.356   0.247  13.017 -1.5640  0.6455  0.1785
 6591TIP3   OH243967   6.275   3.739  10.785  0.3541 -0.0381  0.1109
 6591TIP3    H143968   6.283   3.830  10.814 -2.3656 -0.4314  2.6739
 6591TIP3    H243969   6.228   3.744  10.702 -0.4639  0.9232  0.6074
 6592TIP3   OH243970   0.690   3.229  10.783  0.0592 -0.5854  0.2483
 6592TIP3    H143971   0.739   3.180  10.718 -1.0060  0.9993 -1.8568
 6592TIP3    H243972   0.736   3.313  10.789 -0.0943 -0.5545  1.2849
 6593TIP3   OH243973   3.837   3.856  11.336 -0.2265  0.2678 -0.4755
 6593TIP3    H143974   3.914   3.894  11.295  0.4187  1.2305  1.4899
 6593TIP3    H243975   3.829   3.902  11.420 -3.3529  0.7318 -0.8776
 6594TIP3   OH243976   2.006   4.140  12.834  0.0441  0.0163 -0.0336
 6594TIP3    H143977   1.978   4.080  12.765 -2.1306  1.0104 -0.0981
 6594TIP3    H243978   1.983   4.095  12.916  2.0922 -0.9113  0.0833
 6595TIP3   OH243979   1.042   2.105  11.655 -0.0686  0.4118 -0.4463
 6595TIP3    H143980   1.084   2.150  11.582 -0.0019 -2.2774 -2.1940
 6595TIP3    H243981   1.090   2.022  11.663 -1.4687 -0.3059  1.2174
 6596TIP3   OH243982   4.669   0.890  10.966  0.4691  0.2257 -0.2573
 6596TIP3    H143983   4.698   0.939  11.042 -0.3025 -0.6539  0.6297
 6596TIP3    H243984   4.663   0.800  10.996  0.4309 -0.1851 -1.4422
 6597TIP3   OH243985   6.970   1.073  12.279 -0.1040  0.2831  0.3166
 6597TIP3    H143986   7.047   1.035  12.237  0.6284  1.6434  0.3420
 6597TIP3    H243987   6.906   1.083  12.209 -0.0188 -0.2854  0.1595
 6598TIP3   OH243988   4.922   2.188  11.529 -0.2971  0.1019  0.0781
 6598TIP3    H143989   4.892   2.249  11.597  0.4227 -0.1478  0.6271
 6598TIP3    H243990   5.005   2.155  11.561  0.8910  1.2200 -1.6764
 6599TIP3   OH243991   1.549   5.419  12.148 -0.1555  0.1431  0.2585
 6599TIP3    H143992   1.474   5.448  12.096  0.1501 -1.1481 -0.9614
 6599TIP3    H243993   1.512   5.361  12.214 -0.1993 -1.0785 -0.7970
 6600TIP3   OH243994   3.087   6.140  11.241 -0.0576  0.3020  0.1462
 6600TIP3    H143995   3.030   6.084  11.189 -1.0996  1.0575  0.4448
 6600TIP3    H243996   3.087   6.224  11.196  1.6241  0.0606 -0.3873
 6601TIP3   OH243997   1.690   3.479  12.966 -0.2997  0.2270  0.0199
 6601TIP3    H143998   1.653   3.466  13.053 -0.8635  2.5625  0.1928
 6601TIP3    H243999   1.623   3.528  12.919  0.0834 -0.8033 -1.6901
 6602TIP3   OH244000   0.114   4.433  12.419 -0.0606  0.4160 -0.4208
 6602TIP3    H144001   0.098   4.421  12.512  1.2554  3.3592  0.3171
 6602TIP3    H244002   0.204   4.405  12.406 -0.4998 -0.7941 -1.0512
 6603TIP3   OH244003   3.577   7.584  11.079  0.4025 -0.0983  0.3496
 6603TIP3    H144004   3.493   7.621  11.108  0.3850 -0.7053  1.0963
 6603TIP3    H244005   3.552   7.519  11.013  0.4041  0.8549 -0.6209
 6604TIP3   OH244006   3.950   0.716  11.055 -0.0192  0.1551 -0.2392
 6604TIP3    H144007   3.918   0.736  10.967 -0.6191 -0.0554 -0.0760
 6604TIP3    H244008   3.992   0.797  11.084  0.4799  0.1153 -0.8484
 6605TIP3   OH244009   1.840   5.384  10.906 -0.0634 -0.1804  0.3957
 6605TIP3    H144010   1.789   5.348  10.979 -0.0219  1.2940  1.1905
 6605TIP3    H244011   1.833   5.479  10.916 -2.6259  0.2350 -3.2717
 6606TIP3   OH244012   4.208   2.445  10.722 -0.0850 -0.2141 -0.1960
 6606TIP3    H144013   4.176   2.462  10.633 -0.1360  1.6912  0.1365
 6606TIP3    H244014   4.129   2.431  10.774 -0.0386 -1.7551 -0.4924
 6607TIP3   OH244015   4.669   3.931  12.026 -0.2916 -0.3111  0.2764
 6607TIP3    H144016   4.677   4.022  11.998 -1.4720  0.3582  1.9692
 6607TIP3    H244017   4.724   3.925  12.104 -1.3875 -0.6281  1.0472
 6608TIP3   OH244018   1.484   2.807  10.729  0.3853 -0.1396  0.1080
 6608TIP3    H144019   1.548   2.743  10.760  0.5077  0.6482  1.5747
 6608TIP3    H244020   1.534   2.861  10.667  0.6929 -0.5102  0.0245
 6609TIP3   OH244021   1.323   5.765  11.433  0.1009 -0.1053  0.1121
 6609TIP3    H144022   1.256   5.696  11.432 -0.7919  0.7457 -1.1094
 6609TIP3    H244023   1.406   5.717  11.425 -0.5453 -1.0453 -1.6937
 6610TIP3   OH244024   7.366   4.935  17.235  0.0280  0.1712 -0.4417
 6610TIP3    H144025   7.389   4.951  17.144  0.0304  0.8401 -0.3270
 6610TIP3    H244026   7.297   4.999  17.254 -0.8915 -0.8131 -0.3446
 6611TIP3   OH244027   3.251   4.214  13.236 -0.4116 -0.3259  0.3433
 6611TIP3    H144028   3.156   4.200  13.242 -0.3878 -0.2035  1.1348
 6611TIP3    H244029   3.263   4.303  13.271 -0.0214 -0.2762  0.0794
 6612TIP3   OH244030   7.653   1.495  13.301 -0.1427 -0.3411  0.0888
 6612TIP3    H144031   7.576   1.441  13.319 -0.6593  0.0567 -0.8716
 6612TIP3    H244032   7.619   1.583  13.287  0.6136  0.0840  0.8032
 6613TIP3   OH244033   6.933   6.515  10.586  0.1405  0.6372  0.4709
 6613TIP3    H144034   6.845   6.490  10.615  0.0131 -1.1375 -1.2909
 6613TIP3    H244035   6.986   6.437  10.599  0.7886  0.7854 -1.0872
 6614TIP3   OH244036   0.733   2.626  11.972  0.0687 -0.2151 -0.1147
 6614TIP3    H144037   0.749   2.719  11.956  0.1258  0.0322  1.2297
 6614TIP3    H244038   0.655   2.624  12.027 -0.5100 -1.0341 -0.9422
 6615TIP3   OH244039   2.270   5.334  11.418 -0.1072 -0.1934  0.4584
 6615TIP3    H144040   2.244   5.270  11.485 -0.0809 -1.1964 -0.4771
 6615TIP3    H244041   2.270   5.285  11.336  0.2602  0.9266 -0.2303
 6616TIP3   OH244042   5.513   7.474  12.127 -0.6281  0.2454 -0.3850
 6616TIP3    H144043   5.529   7.424  12.046 -2.6699 -0.4380 -0.4169
 6616TIP3    H244044   5.450   7.541  12.101  0.7275  1.7560  0.0830
 6617TIP3   OH244045   5.210   7.570  11.296 -0.1235  0.4491 -0.3729
 6617TIP3    H144046   5.133   7.562  11.352 -0.5606 -0.0653 -1.0358
 6617TIP3    H244047   5.266   7.497  11.322  0.4755  1.2212  0.5900
 6618TIP3   OH244048   1.293   1.222  12.609 -0.2637 -0.1439 -0.0003
 6618TIP3    H144049   1.246   1.196  12.530 -0.6469  2.6962 -0.8210
 6618TIP3    H244050   1.227   1.266  12.663  0.6985  0.8884  0.3741
 6619TIP3   OH244051   4.656   0.718  11.737 -0.7014 -0.1027 -0.5121
 6619TIP3    H144052   4.673   0.809  11.711 -0.7618 -0.8651 -3.4860
 6619TIP3    H244053   4.711   0.705  11.815 -1.2808  2.6719  0.4726
 6620TIP3   OH244054   6.277   0.257  12.454 -0.1288  0.5038 -0.4722
 6620TIP3    H144055   6.336   0.279  12.526  0.9472  1.4730 -1.5967
 6620TIP3    H244056   6.335   0.238  12.380 -1.2038 -0.4325 -1.0956
 6621TIP3   OH244057   5.161   6.246  11.817 -0.2165  0.0419  0.2552
 6621TIP3    H144058   5.128   6.281  11.900  0.4468 -1.7120  1.3140
 6621TIP3    H244059   5.144   6.152  11.823  1.4037 -0.3451 -0.8520
 6622TIP3   OH244060   7.298   7.523  12.209  0.2263 -0.1697 -0.5114
 6622TIP3    H144061   7.219   7.494  12.163  0.1672 -0.2061 -0.3880
 6622TIP3    H244062   7.273   7.605  12.250 -0.6512 -1.5306  1.9057
 6623TIP3   OH244063   7.110   4.665  12.604  0.4253  0.3085  0.5872
 6623TIP3    H144064   7.060   4.596  12.559  1.0450  1.3272 -1.8294
 6623TIP3    H244065   7.126   4.629  12.691  0.8707 -2.7065 -0.5976
 6624TIP3   OH244066   7.217   0.585  13.128  0.4372  0.2357  0.3512
 6624TIP3    H144067   7.157   0.654  13.101 -2.2530 -1.8891  0.4614
 6624TIP3    H244068   7.218   0.589  13.223 -0.5962 -0.5330  0.4037
 6625TIP3   OH244069   4.001   6.314  11.196 -0.2750  0.0501 -0.4697
 6625TIP3    H144070   3.961   6.373  11.260  0.3879  1.0984 -0.9826
 6625TIP3    H244071   3.935   6.304  11.128 -1.3087 -1.7476  0.7462
 6626TIP3   OH244072   7.501   5.614  11.787 -0.4241 -0.7407 -0.2150
 6626TIP3    H144073   7.467   5.587  11.872 -0.0928  0.4980  0.3293
 6626TIP3    H244074   7.564   5.683  11.806  0.8078 -1.4901 -1.3714
 6627TIP3   OH244075   5.586   5.367  11.016 -0.4954  0.4704  0.3295
 6627TIP3    H144076   5.545   5.285  11.044  0.4922 -0.6221 -1.2287
 6627TIP3    H244077   5.678   5.357  11.038 -0.6037  1.8535  1.5339
 6628TIP3   OH244078   3.603   1.989  12.932 -0.3083  0.3503 -0.5801
 6628TIP3    H144079   3.522   2.003  12.980  0.6804 -0.8243  1.5555
 6628TIP3    H244080   3.640   2.076  12.920 -0.5948  0.6800  0.8075
 6629TIP3   OH244081   4.433   2.953  12.002  0.1523 -0.0058  0.5718
 6629TIP3    H144082   4.467   2.952  12.092  0.4595  0.8094  0.4720
 6629TIP3    H244083   4.496   3.006  11.953 -0.2284 -0.1101 -0.0427
 6630TIP3   OH244084   2.898   3.198  10.624  0.5874  0.2908 -0.1734
 6630TIP3    H144085   2.805   3.220  10.625  0.5865  0.4188 -1.1659
 6630TIP3    H244086   2.900   3.104  10.603  0.6756  0.2764 -0.1003
 6631TIP3   OH244087   7.461   6.439  10.756  0.4305  0.5545 -0.3557
 6631TIP3    H144088   7.430   6.477  10.674  1.3642 -0.1815 -1.0665
 6631TIP3    H244089   7.453   6.345  10.743  1.1072  0.4138  0.1889
 6632TIP3   OH244090   0.398   5.306  11.563  0.1216 -0.1819 -0.0246
 6632TIP3    H144091   0.304   5.319  11.566  0.1799  0.0464  1.1799
 6632TIP3    H244092   0.436   5.389  11.592  0.6219 -0.9019  1.5131
 6633TIP3   OH244093   1.409   7.368  10.705  0.4698  0.3788  0.1233
 6633TIP3    H144094   1.343   7.412  10.651 -0.0666  1.8348  1.8995
 6633TIP3    H244095   1.381   7.276  10.706 -1.0194  0.8125  0.1170
 6634TIP3   OH244096   6.290   0.638  10.972 -0.2749  0.4052 -0.5237
 6634TIP3    H144097   6.315   0.681  10.890  1.1725 -0.1522 -0.4033
 6634TIP3    H244098   6.277   0.547  10.948  2.9851 -0.3942  0.2819
 6635TIP3   OH244099   1.238   5.654  11.783  0.1058  0.6206 -0.4745
 6635TIP3    H144100   1.273   5.610  11.860 -0.0682 -0.8205 -1.1851
 6635TIP3    H244101   1.295   5.729  11.770 -0.9071  1.9690  2.0776
 6636TIP3   OH244102   0.050   4.622  11.929 -0.2790 -0.8750 -0.0137
 6636TIP3    H144103  -0.045   4.632  11.933 -0.1385  0.3934  2.8892
 6636TIP3    H244104   0.077   4.614  12.021  2.5880  0.7266 -0.5952
 6637TIP3   OH244105   0.155   0.355  11.512  0.5684  0.0592 -0.0669
 6637TIP3    H144106   0.238   0.352  11.465  0.2728 -0.3892 -0.5683
 6637TIP3    H244107   0.139   0.449  11.526 -0.7160  0.4592 -3.3759
 6638TIP3   OH244108   7.589   1.742  13.221  0.0789 -0.1565  0.3222
 6638TIP3    H144109   7.576   1.769  13.130  1.1830 -4.3338 -1.2794
 6638TIP3    H244110   7.662   1.796  13.252  0.1830  0.8331 -1.5203
 6639TIP3   OH244111   3.070   7.319  11.595 -0.2123 -0.0346 -0.1726
 6639TIP3    H144112   3.124   7.311  11.674 -2.1109 -0.3227  1.1441
 6639TIP3    H244113   3.125   7.281  11.526  1.8626  1.0587  0.7846
 6640TIP3   OH244114   3.731   6.582  12.158  0.2714 -0.4973 -0.0610
 6640TIP3    H144115   3.815   6.538  12.174  0.3378 -0.0232  0.9973
 6640TIP3    H244116   3.745   6.671  12.189 -1.0767 -0.8146  1.5737
 6641TIP3   OH244117   7.368   5.740  11.017 -0.2609 -0.2402 -0.3555
 6641TIP3    H144118   7.459   5.722  10.993  0.0355  2.2109 -1.3316
 6641TIP3    H244119   7.318   5.670  10.976  0.9346  0.0333 -2.3750
 6642TIP3   OH244120   1.762   2.313  11.942  0.2201  0.4816  0.0947
 6642TIP3    H144121   1.795   2.366  12.015  2.2850  0.5956 -0.8576
 6642TIP3    H244122   1.680   2.355  11.918  0.7716  2.0129  0.7096
 6643TIP3   OH244123   0.637   5.557  12.087 -0.8453  0.1930  0.4735
 6643TIP3    H144124   0.615   5.467  12.111 -2.5935  0.2749 -0.6209
 6643TIP3    H244125   0.555   5.605  12.100 -0.1609  1.4635  0.2451
 6644TIP3   OH244126   0.731   0.593  12.424 -0.3148  0.0560  0.2806
 6644TIP3    H144127   0.726   0.567  12.516 -0.4458 -0.6221  0.0914
 6644TIP3    H244128   0.804   0.655  12.420 -0.2348 -0.0039  0.8215
 6645TIP3   OH244129   0.693   3.597  12.635 -0.6603 -0.2138 -0.1921
 6645TIP3    H144130   0.623   3.613  12.699 -1.6202 -2.9485 -0.3971
 6645TIP3    H244131   0.731   3.513  12.662  1.8048  0.6443 -0.7880
 6646TIP3   OH244132   0.437   6.296  10.723  0.1409 -0.6231 -0.2239
 6646TIP3    H144133   0.467   6.281  10.633  1.1299 -0.4209  0.0717
 6646TIP3    H244134   0.508   6.264  10.778 -0.0425  0.1694  0.4790
 6647TIP3   OH244135   1.291   5.870  10.502  0.4908  0.1929  0.4219
 6647TIP3    H144136   1.196   5.878  10.500  0.5102  0.3663 -0.9269
 6647TIP3    H244137   1.320   5.941  10.560 -0.2229 -0.2524  1.3390
 6648TIP3   OH244138   4.294   5.729  11.151 -0.0431 -0.1746 -0.5196
 6648TIP3    H144139   4.328   5.791  11.216 -0.2327  2.1762 -2.5012
 6648TIP3    H244140   4.246   5.664  11.203  1.1745  0.6307  1.7698
 6649TIP3   OH244141   6.690   3.730  10.852  0.3060 -0.5485  0.0739
 6649TIP3    H144142   6.706   3.749  10.760 -0.7768  0.9834  0.1751
 6649TIP3    H244143   6.766   3.766  10.898 -0.1596  0.6212 -0.0456
 6650TIP3   OH244144   3.285   5.861  10.937 -0.4437  1.0939  0.1798
 6650TIP3    H144145   3.330   5.945  10.930  0.1046  0.8320  0.4683
 6650TIP3    H244146   3.312   5.826  11.022  0.6174 -0.0951 -0.6147
 6651TIP3   OH244147   6.903   3.579  11.694 -0.4812 -0.0904 -0.5771
 6651TIP3    H144148   6.971   3.521  11.727 -2.1374 -2.0262 -0.3856
 6651TIP3    H244149   6.840   3.586  11.766  0.0386  2.7051 -0.2647
 6652TIP3   OH244150   5.542   1.781  12.847 -0.2162 -0.2357 -0.2630
 6652TIP3    H144151   5.575   1.742  12.928  0.6045  1.1239  0.0901
 6652TIP3    H244152   5.505   1.865  12.873 -1.9155 -0.7026 -1.0161
 6653TIP3   OH244153   0.620   6.165  11.501 -0.7424 -0.2090 -0.3630
 6653TIP3    H144154   0.650   6.127  11.584  1.9105  0.4818 -0.8953
 6653TIP3    H244155   0.578   6.247  11.525 -0.3034 -0.1804  0.3347
 6654TIP3   OH244156   2.775   3.504  12.412  0.6109  0.0652 -0.3758
 6654TIP3    H144157   2.839   3.550  12.466  0.6249  0.7167 -0.9378
 6654TIP3    H244158   2.825   3.432  12.373  0.5420 -0.5614  0.6525
 6655TIP3   OH244159   1.310   5.842  12.385  0.2803 -0.4576  0.4974
 6655TIP3    H144160   1.368   5.768  12.400  0.2622 -0.7065 -0.5995
 6655TIP3    H244161   1.355   5.896  12.321  0.1571  0.3443  1.0648
 6656TIP3   OH244162   3.687   3.446  12.270 -0.3910  0.1344 -0.1904
 6656TIP3    H144163   3.743   3.425  12.344  2.2538  0.5948 -1.8894
 6656TIP3    H244164   3.691   3.542  12.264 -0.6476  0.1106 -0.8403
 6657TIP3   OH244165   3.063   6.448  12.217 -0.1604 -0.3908  0.5914
 6657TIP3    H144166   3.078   6.363  12.175 -1.8296 -0.2628 -0.3645
 6657TIP3    H244167   3.078   6.432  12.310 -0.1839 -1.6683  0.3946
 6658TIP3   OH244168   5.044   0.536  10.779 -0.0996 -0.5144 -0.2919
 6658TIP3    H144169   4.983   0.569  10.712 -1.9161 -2.5555  0.2439
 6658TIP3    H244170   4.991   0.532  10.859  1.1438 -1.0845  0.5285
 6659TIP3   OH244171   4.629   3.607  12.468  0.4146 -0.0992  0.3235
 6659TIP3    H144172   4.673   3.627  12.550  1.0198  0.6241 -0.1665
 6659TIP3    H244173   4.555   3.551  12.493 -0.0418  0.9807  1.4772
 6660TIP3   OH244174   6.164   5.621  11.535 -0.0165 -0.0982  0.1197
 6660TIP3    H144175   6.083   5.667  11.512  0.3145 -0.4205 -1.8168
 6660TIP3    H244176   6.217   5.625  11.456  1.4231 -0.8710  1.0067
 6661TIP3   OH244177   7.342   0.522  11.090  1.0531  0.2676  0.1301
 6661TIP3    H144178   7.395   0.445  11.070  1.9908  0.3705  1.9396
 6661TIP3    H244179   7.264   0.487  11.134  1.3329  0.3195  0.6756
 6662TIP3   OH244180   1.034   1.732  12.283 -0.2462  0.1319 -0.4883
 6662TIP3    H144181   1.107   1.730  12.345 -1.0056  0.7071  0.4528
 6662TIP3    H244182   1.017   1.825  12.268 -0.6098  0.0032 -0.9305
 6663TIP3   OH244183   6.492   6.670  10.566  0.0868  0.5321  0.1265
 6663TIP3    H144184   6.486   6.668  10.471 -0.5729  0.8065  0.1597
 6663TIP3    H244185   6.514   6.580  10.591  2.8288  0.9587 -0.4351
 6664TIP3   OH244186   4.450   1.515  10.995 -0.4702 -0.2365 -0.4221
 6664TIP3    H144187   4.528   1.471  10.960 -0.2353 -0.4024  0.2998
 6664TIP3    H244188   4.461   1.607  10.969  0.5252 -0.0457  0.6099
 6665TIP3   OH244189   1.010   3.210  11.123 -0.3376 -0.3366  0.2095
 6665TIP3    H144190   1.021   3.174  11.036  0.5350 -0.3641  0.3170
 6665TIP3    H244191   0.997   3.304  11.109  0.8040 -0.1827  0.0843
 6666TIP3   OH244192   5.457   6.748  11.031  0.1557  0.1476  0.0856
 6666TIP3    H144193   5.367   6.781  11.018  0.3756  0.0703 -1.9953
 6666TIP3    H244194   5.465   6.737  11.125 -1.8058  0.7988  0.3775
 6667TIP3   OH244195   4.987   5.599  11.739 -0.2731  0.3187 -0.5147
 6667TIP3    H144196   4.959   5.690  11.730 -0.7675  0.3526  1.0921
 6667TIP3    H244197   5.029   5.595  11.825  0.1316 -0.8890 -0.7412
 6668TIP3   OH244198   3.638   0.595  11.637 -0.0215 -0.3087 -0.3408
 6668TIP3    H144199   3.653   0.667  11.576  2.0805 -0.0552  0.3886
 6668TIP3    H244200   3.557   0.555  11.607 -1.4259  2.4948 -0.6051
 6669TIP3   OH244201   2.863   0.179  13.317  0.2676 -0.4231  0.5338
 6669TIP3    H144202   2.876   0.086  13.296 -0.2145 -0.1963 -0.8712
 6669TIP3    H244203   2.944   0.204  13.362  1.2071 -1.0786 -0.7126
 6670TIP3   OH244204   1.015   0.711  11.242 -0.3433  0.2370 -0.3302
 6670TIP3    H144205   1.069   0.684  11.316 -1.5359 -0.8416  0.2083
 6670TIP3    H244206   1.048   0.796  11.217  1.1379 -0.0916  0.4100
 6671TIP3   OH244207   0.137   3.704  11.308 -0.3901  0.3755  0.0865
 6671TIP3    H144208   0.093   3.776  11.352 -1.6013 -0.5220  0.4000
 6671TIP3    H244209   0.070   3.667  11.250  0.5395  0.1896 -0.8990
 6672TIP3   OH244210   1.090   5.075  11.855  0.1280  0.4509  0.4182
 6672TIP3    H144211   1.148   5.136  11.901 -0.4738  0.2196  1.5058
 6672TIP3    H244212   1.021   5.131  11.818 -0.5213  0.4276  1.5653
 6673TIP3   OH244213   3.900   0.925  12.857  0.5822  0.1814 -0.4178
 6673TIP3    H144214   3.830   0.931  12.923 -1.1557 -1.0034 -2.0553
 6673TIP3    H244215   3.909   1.015  12.825  0.3847  0.4943  0.3673
 6674TIP3   OH244216   1.361   6.672  11.623 -0.2014  0.1180  0.4372
 6674TIP3    H144217   1.283   6.664  11.568  0.3098  1.5598 -0.5400
 6674TIP3    H244218   1.336   6.735  11.691  0.0079  0.3643  0.2888
 6675TIP3   OH244219   6.380   2.469  10.331  0.1928 -0.5860 -0.1317
 6675TIP3    H144220   6.347   2.541  10.384 -1.1501  0.1728 -1.8779
 6675TIP3    H244221   6.313   2.400  10.340  0.0735 -0.5390 -0.6197
 6676TIP3   OH244222   2.340   5.877  12.812 -0.5468  0.3225 -0.5749
 6676TIP3    H144223   2.285   5.881  12.890 -0.6840  1.1707 -0.6975
 6676TIP3    H244224   2.427   5.856  12.845 -0.8177 -0.4134 -0.3115
 6677TIP3   OH244225   6.394   4.660  13.598  0.2681  0.2777 -0.4106
 6677TIP3    H144226   6.352   4.710  13.528 -0.1324 -1.2866 -1.3363
 6677TIP3    H244227   6.324   4.604  13.633  0.8371 -0.0922  0.1692
 6678TIP3   OH244228   6.838   1.052  11.152 -0.3005  0.0976  0.3283
 6678TIP3    H144229   6.777   0.993  11.197 -0.9206  0.3861 -0.1151
 6678TIP3    H244230   6.924   1.028  11.186 -0.6834 -0.1524  1.1556
 6679TIP3   OH244231   0.945   6.224  11.431  0.0455  0.2696  0.0627
 6679TIP3    H144232   0.891   6.223  11.510  1.0930  1.4055  0.8241
 6679TIP3    H244233   0.936   6.312  11.396 -2.2609 -0.8219 -2.4837
 6680TIP3   OH244234   6.264   5.037  11.912 -0.0105  0.2272  0.0309
 6680TIP3    H144235   6.177   5.072  11.893  0.8559  2.3045 -0.4368
 6680TIP3    H244236   6.248   4.961  11.967 -2.0723  1.4647  1.2661
 6681TIP3   OH244237   6.945   3.558  12.683 -0.2968  0.4563  0.2718
 6681TIP3    H144238   7.036   3.529  12.690 -0.2566 -0.3749 -2.5109
 6681TIP3    H244239   6.900   3.514  12.756  1.3524  0.3091  1.2585
 6682TIP3   OH244240   5.042   5.283  10.397  0.2285 -0.5551 -0.0941
 6682TIP3    H144241   4.997   5.363  10.370 -0.9580 -1.0522  0.3863
 6682TIP3    H244242   4.974   5.216  10.401  1.1596 -1.5466 -0.2383
 6683TIP3   OH244243   5.914   3.472  10.440 -0.2157 -0.6021  0.0178
 6683TIP3    H144244   5.893   3.469  10.346 -1.3207 -1.6221  0.2658
 6683TIP3    H244245   5.992   3.416  10.448  0.6557  0.5029 -0.4456
 6684TIP3   OH244246   3.366   7.148  12.184 -0.5614  0.3348 -0.3887
 6684TIP3    H144247   3.359   7.243  12.182  0.0863  0.3847 -1.4300
 6684TIP3    H244248   3.286   7.117  12.142 -1.5422  0.3413  1.3991
 6685TIP3   OH244249   3.233   5.676  11.844 -0.5010 -0.1852 -0.3726
 6685TIP3    H144250   3.204   5.592  11.880 -1.1075 -0.1918 -0.8577
 6685TIP3    H244251   3.328   5.671  11.845 -0.5091 -0.4359  0.6326
 6686TIP3   OH244252   2.652   0.162  11.215  0.4680 -0.8286 -0.6011
 6686TIP3    H144253   2.733   0.205  11.187 -0.4465  0.6692 -1.0560
 6686TIP3    H244254   2.680   0.098  11.281  2.0804 -0.8252 -1.2379
 6687TIP3   OH244255   5.001   5.737  12.768 -0.2946 -0.4264 -0.2992
 6687TIP3    H144256   5.011   5.801  12.698  1.0992  1.2407  1.3322
 6687TIP3    H244257   5.091   5.720  12.799 -0.3708 -4.3895 -1.6130
 6688TIP3   OH244258   1.250   2.965  10.688 -0.0218  0.2354 -0.1260
 6688TIP3    H144259   1.170   2.912  10.685 -0.0484  0.3060 -0.8299
 6688TIP3    H244260   1.320   2.903  10.705 -0.3432  0.3107  1.6171
 6689TIP3   OH244261   5.319   6.546  11.537 -0.0388  0.2307  0.6865
 6689TIP3    H144262   5.227   6.523  11.552 -0.1771  0.5424  0.3396
 6689TIP3    H244263   5.368   6.473  11.573 -0.5109 -1.7912 -2.4100
 6690TIP3   OH244264   1.094   4.977  12.195  0.5070 -0.2212  0.0602
 6690TIP3    H144265   1.137   5.062  12.187 -0.9483  0.7541  1.7634
 6690TIP3    H244266   1.006   4.991  12.159  0.2306 -0.9902  0.4051
 6691TIP3   OH244267   7.100   3.177  10.769 -0.3729 -0.2621  0.0735
 6691TIP3    H144268   7.008   3.197  10.750 -0.2523  0.4997  0.2527
 6691TIP3    H244269   7.097   3.095  10.819 -0.9013 -0.6359 -0.5603
 6692TIP3   OH244270   5.784   7.649  10.628 -0.6167  0.0549  0.0329
 6692TIP3    H144271   5.776   7.651  10.532 -0.2973  0.8455  0.0138
 6692TIP3    H244272   5.802   7.740  10.652  2.2077 -0.5344  0.5664
 6693TIP3   OH244273   1.632   5.203  13.242 -0.6141 -0.1671 -0.1959
 6693TIP3    H144274   1.597   5.218  13.329 -1.9687  0.2203 -0.7896
 6693TIP3    H244275   1.610   5.282  13.193  0.1541 -0.3706 -0.8903
 6694TIP3   OH244276   6.287   1.238  10.803  0.2453  0.5905  0.1869
 6694TIP3    H144277   6.213   1.218  10.745  0.6955 -3.6111  0.8051
 6694TIP3    H244278   6.354   1.272  10.743 -0.8518  0.8301 -0.9703
 6695TIP3   OH244279   6.847   3.406  12.452 -0.1806 -0.0386  0.1921
 6695TIP3    H144280   6.758   3.441  12.441 -0.8402 -1.5720  0.4597
 6695TIP3    H244281   6.880   3.451  12.530  0.0171  1.9323 -0.9590
 6696TIP3   OH244282   2.310   4.581  12.643 -0.4907 -0.0444  0.4562
 6696TIP3    H144283   2.261   4.521  12.698 -1.2084  1.4993  1.5750
 6696TIP3    H244284   2.345   4.647  12.704 -0.1545  0.9492 -0.7603
 6697TIP3   OH244285   0.549   0.910  12.261  0.6237 -0.4493  0.2701
 6697TIP3    H144286   0.561   0.888  12.354  1.2238 -3.5442 -0.4128
 6697TIP3    H244287   0.634   0.941  12.232  0.8195 -0.8214  0.4450
 6698TIP3   OH244288   7.517   6.449  12.992  0.1267  0.2822  0.1799
 6698TIP3    H144289   7.568   6.479  12.916  0.4384 -1.1118 -0.2055
 6698TIP3    H244290   7.573   6.383  13.033 -0.0345  1.0397  1.6559
 6699TIP3   OH244291   2.856   0.635  11.906  0.0159  0.6849 -0.1540
 6699TIP3    H144292   2.824   0.635  11.816 -1.3303  1.3684  0.2902
 6699TIP3    H244293   2.785   0.598  11.958  1.5037 -1.5362  0.4469
 6700TIP3   OH244294   7.394   0.683  12.392 -0.8579  0.4197 -0.1813
 6700TIP3    H144295   7.414   0.690  12.299  0.5335  2.7937  0.2099
 6700TIP3    H244296   7.309   0.727  12.401 -0.1667  1.8058 -0.1357
 6701TIP3   OH244297   0.877   2.207  13.052  0.2092 -0.5526  0.1043
 6701TIP3    H144298   0.799   2.234  13.100  0.2428 -0.9882  0.4207
 6701TIP3    H244299   0.922   2.288  13.031 -0.3949 -0.2912 -0.1915
 6702TIP3   OH244300   3.624   4.948  10.579  0.1579  0.7527  0.9737
 6702TIP3    H144301   3.613   5.026  10.633  2.2887  0.1760  2.3478
 6702TIP3    H244302   3.699   4.902  10.617 -0.8926 -1.8878  0.1048
 6703TIP3   OH244303   0.991   6.435  12.920 -0.1642  0.2224 -0.0363
 6703TIP3    H144304   1.062   6.496  12.940 -1.2602  1.9601 -1.1032
 6703TIP3    H244305   0.918   6.466  12.973 -0.8630  0.1082 -0.9108
 6704TIP3   OH244306   0.554   2.110  10.785  0.5588  0.3367  0.1866
 6704TIP3    H144307   0.581   2.024  10.818 -1.8296 -0.3682  0.5067
 6704TIP3    H244308   0.607   2.172  10.835 -0.4723 -0.8335  2.9623
 6705TIP3   OH244309   3.696   3.131  10.728  0.0265 -0.1135 -0.2744
 6705TIP3    H144310   3.625   3.128  10.793 -0.7296  2.6427 -0.8188
 6705TIP3    H244311   3.653   3.158  10.647  1.3935 -0.6394 -1.2149
 6706TIP3   OH244312   6.321   3.958  10.950 -0.2788  0.1326 -0.0940
 6706TIP3    H144313   6.353   3.903  11.022  0.8979  1.5790  0.5379
 6706TIP3    H244314   6.232   3.983  10.977 -0.9514 -1.6243 -0.5283
 6707TIP3   OH244315   1.349   4.052  10.956 -0.2106  0.2985 -0.0337
 6707TIP3    H144316   1.385   4.117  11.016 -0.2031  0.0599  0.2205
 6707TIP3    H244317   1.410   4.052  10.882  0.6221 -0.4804  0.6269
 6708TIP3   OH244318   0.879   4.458  11.755  0.9026 -0.0534  0.1734
 6708TIP3    H144319   0.895   4.469  11.848  3.0907 -0.3276 -0.1284
 6708TIP3    H244320   0.949   4.401  11.724 -0.1166 -0.4722 -1.5444
 6709TIP3   OH244321   4.919   2.916  12.254  0.4505  0.1872  0.1439
 6709TIP3    H144322   5.008   2.882  12.248 -0.1769 -1.4745 -0.5887
 6709TIP3    H244323   4.924   3.003  12.216  1.4690 -0.5181 -1.4516
 6710TIP3   OH244324   2.621   4.434  12.873  0.3251  0.7587  0.2670
 6710TIP3    H144325   2.540   4.423  12.923 -0.6972 -0.4575 -1.5430
 6710TIP3    H244326   2.690   4.403  12.932 -0.8671 -1.0248  0.8028
 6711TIP3   OH244327   5.200   1.817  10.973 -0.0924  0.6733 -0.0853
 6711TIP3    H144328   5.200   1.751  10.904 -2.9316  0.6551 -0.1820
 6711TIP3    H244329   5.261   1.784  11.038 -0.0086 -1.0881 -1.0035
 6712TIP3   OH244330   2.364   2.559  12.961  0.0643 -0.0245 -0.2759
 6712TIP3    H144331   2.362   2.650  12.993 -2.3610  0.3928 -1.3682
 6712TIP3    H244332   2.294   2.515  13.009  0.0703 -0.8609 -1.0070
 6713TIP3   OH244333   6.254   6.421  12.571  0.6527  0.0094 -0.1206
 6713TIP3    H144334   6.163   6.445  12.552  0.7061 -0.3000 -0.7682
 6713TIP3    H244335   6.266   6.445  12.663  0.2211  0.9824 -0.3030
 6714TIP3   OH244336   4.153   1.292  11.942  0.5060 -0.0048  0.1733
 6714TIP3    H144337   4.081   1.228  11.946  2.0365 -1.7589  1.6375
 6714TIP3    H244338   4.225   1.249  11.987  1.6868  2.7639  1.1327
 6715TIP3   OH244339   2.463   0.975  11.782  0.3193  0.2408  0.2175
 6715TIP3    H144340   2.533   1.024  11.826  1.6414 -2.2308  1.0309
 6715TIP3    H244341   2.507   0.901  11.740 -1.5394 -0.0935 -1.3109
 6716TIP3   OH244342   1.475   6.671  12.401 -0.0350  0.5530  1.4260
 6716TIP3    H144343   1.405   6.697  12.341  1.5441  0.8103 -0.4527
 6716TIP3    H244344   1.445   6.590  12.441 -0.2878 -0.9281 -1.5005
 6717TIP3   OH244345   4.883   4.758  10.608 -0.1657  0.0543  0.0542
 6717TIP3    H144346   4.890   4.735  10.515 -1.5894  0.2486 -0.1160
 6717TIP3    H244347   4.957   4.816  10.623 -0.1940  0.4225 -1.0870
 6718TIP3   OH244348   1.933   6.012  11.050  0.7192  0.3986  0.1180
 6718TIP3    H144349   1.895   6.088  11.094  0.2316 -0.1913  0.7313
 6718TIP3    H244350   1.944   6.040  10.959 -1.8278  0.3910 -0.2546
 6719TIP3   OH244351   5.259   3.823  12.690  0.6733  0.0527  0.8823
 6719TIP3    H144352   5.218   3.872  12.619  1.5410  0.0216  0.3373
 6719TIP3    H244353   5.266   3.886  12.762 -0.1728  0.0957  0.9338
 6720TIP3   OH244354   7.672   3.307  12.340 -0.0692  0.1381  0.1058
 6720TIP3    H144355   7.580   3.283  12.346 -0.9149  3.3038  2.7360
 6720TIP3    H244356   7.685   3.334  12.249 -1.2685 -1.7093 -0.6663
 6721TIP3   OH244357   6.331   4.533  13.107  0.4595 -0.4601  0.2401
 6721TIP3    H144358   6.336   4.624  13.077 -0.1829 -0.0542  1.3060
 6721TIP3    H244359   6.421   4.503  13.108  0.9003  0.7972  1.7255
 6722TIP3   OH244360   4.380   4.606  11.345 -0.0658  0.1562 -0.5270
 6722TIP3    H144361   4.353   4.516  11.326  1.2053 -0.1118 -1.0997
 6722TIP3    H244362   4.472   4.599  11.372  0.1943  1.3396 -1.0476
 6723TIP3   OH244363   3.556   5.212  10.695 -0.0298  0.1020 -0.2744
 6723TIP3    H144364   3.562   5.306  10.677  1.4633  0.0864 -0.0133
 6723TIP3    H244365   3.601   5.201  10.779  1.3083 -1.0623 -1.1086
 6724TIP3   OH244366   1.523   6.176  11.948 -0.1830  0.0340  0.0175
 6724TIP3    H144367   1.601   6.226  11.922  1.0947  0.1526  3.5241
 6724TIP3    H244368   1.452   6.240  11.945  0.2069  0.4361 -1.3633
 6725TIP3   OH244369   4.068   0.933  11.177 -0.0853  0.5598  0.2159
 6725TIP3    H144370   4.108   0.968  11.257  0.7970 -0.9938  0.5111
 6725TIP3    H244371   4.138   0.936  11.112  0.2882 -1.2818  0.4670
 6726TIP3   OH244372   1.614   4.106  12.194  0.4650  0.9191  0.0218
 6726TIP3    H144373   1.520   4.089  12.199  0.9126 -1.7881  0.8683
 6726TIP3    H244374   1.635   4.151  12.276  0.2228 -0.4819  0.8789
 6727TIP3   OH244375   2.370   0.552  11.305 -0.0799  0.1863 -0.1847
 6727TIP3    H144376   2.404   0.465  11.323 -2.3069 -0.6292  0.4514
 6727TIP3    H244377   2.284   0.553  11.347 -1.0144  1.9484 -1.9507
 6728TIP3   OH244378   4.200   6.506  12.210  0.2605  1.1158 -0.1950
 6728TIP3    H144379   4.264   6.549  12.154 -0.6663  1.9014 -0.6867
 6728TIP3    H244380   4.237   6.420  12.227  1.5028  1.6000 -0.3489
 6729TIP3   OH244381   2.871   2.990  12.040  0.1406  0.2418 -0.1701
 6729TIP3    H144382   2.902   2.929  12.108 -0.2043 -0.4721 -0.6343
 6729TIP3    H244383   2.793   3.030  12.078 -0.4983 -0.7294 -0.4251
 6730TIP3   OH244384   7.255   2.792  11.565 -0.0017 -0.5094 -0.1755
 6730TIP3    H144385   7.198   2.770  11.492  0.4798  0.1732 -0.7649
 6730TIP3    H244386   7.309   2.713  11.579  0.7728 -0.2197 -1.3805
 6731TIP3   OH244387   0.385   3.510  10.688  0.1437  0.0636 -0.2012
 6731TIP3    H144388   0.438   3.431  10.694  0.8336  0.5571  0.3510
 6731TIP3    H244389   0.294   3.479  10.694  0.3586 -0.7656 -0.9194
 6732TIP3   OH244390   0.825   6.105  10.555  0.2621  0.2326 -0.1099
 6732TIP3    H144391   0.808   6.174  10.490  1.6565  0.5534 -0.1729
 6732TIP3    H244392   0.870   6.150  10.627 -0.3658 -0.3069  0.6336
 6733TIP3   OH244393   5.102   4.228  12.552 -0.4169  0.1240 -0.0038
 6733TIP3    H144394   5.047   4.169  12.604 -0.9000 -1.3612 -2.0470
 6733TIP3    H244395   5.040   4.284  12.506 -0.0486  0.7031  0.1946
 6734TIP3   OH244396   3.663   3.846  12.093  0.8438 -0.4506 -0.1925
 6734TIP3    H144397   3.703   3.898  12.023  0.3149 -0.9479 -0.8815
 6734TIP3    H244398   3.664   3.904  12.169  0.2040  0.6121 -0.9647
 6735TIP3   OH244399   4.454   1.806  11.548  0.1602  0.6755 -0.2879
 6735TIP3    H144400   4.528   1.808  11.487 -0.1517  1.0016 -0.6608
 6735TIP3    H244401   4.492   1.775  11.630  0.1434 -2.2159 -1.2501
 6736TIP3   OH244402   3.240   0.497  10.972 -0.1899  0.2268 -0.4072
 6736TIP3    H144403   3.190   0.577  10.954  1.9880  1.8698  0.4302
 6736TIP3    H244404   3.209   0.468  11.057 -0.7854  0.3361 -0.5828
 6737TIP3   OH244405   4.119   1.250  10.784 -0.5116  0.0905  0.0099
 6737TIP3    H144406   4.037   1.228  10.739 -0.4183  0.4574 -0.3547
 6737TIP3    H244407   4.091   1.287  10.868 -0.8259  1.9163 -0.8363
 6738TIP3   OH244408   6.407   2.915  13.134 -0.0177 -0.4114 -0.3129
 6738TIP3    H144409   6.323   2.871  13.144  0.2160 -1.4280 -2.2452
 6738TIP3    H244410   6.426   2.909  13.040  2.3401 -0.4902  0.1030
 6739TIP3   OH244411   5.222   7.305  10.243  0.1750 -0.1991  0.0151
 6739TIP3    H144412   5.161   7.264  10.304  0.6146 -0.0691  0.5443
 6739TIP3    H244413   5.308   7.272  10.268  0.4457  0.4515 -0.0473
 6740TIP3   OH244414   3.058   3.990  11.940  0.4843  0.2108 -0.4289
 6740TIP3    H144415   3.012   3.937  12.005  0.2188  2.3249  1.2346
 6740TIP3    H244416   2.995   3.999  11.868  1.7698 -4.4412 -2.4472
 6741TIP3   OH244417   3.292   7.195  12.919 -0.2404  0.1822  0.0556
 6741TIP3    H144418   3.378   7.232  12.901  0.2751 -0.3372  1.3659
 6741TIP3    H244419   3.234   7.239  12.856  0.3908  2.8963  1.2241
 6742TIP3   OH244420   2.466   5.675  11.163 -0.1242 -1.1039  0.1089
 6742TIP3    H144421   2.386   5.668  11.111 -0.7646 -1.9604  1.1783
 6742TIP3    H244422   2.515   5.596  11.141  0.5562 -0.4766 -0.7100
 6743TIP3   OH244423   0.547   5.940  13.386 -0.0399  0.2241  0.8509
 6743TIP3    H144424   0.492   5.907  13.315  0.2504  0.1347  0.6672
 6743TIP3    H244425   0.532   6.034  13.386  2.0330  0.6566 -1.1576
 6744TIP3   OH244426   0.557   1.117  10.829 -0.7370 -0.2361 -0.1006
 6744TIP3    H144427   0.520   1.076  10.906  1.4530  0.1138  1.2271
 6744TIP3    H244428   0.623   1.055  10.797 -0.1131  0.5375 -0.3732
 6745TIP3   OH244429   7.133   4.393  10.648  0.4998  0.3177 -0.2267
 6745TIP3    H144430   7.073   4.320  10.634  2.3710 -1.0882 -1.3586
 6745TIP3    H244431   7.097   4.464  10.596 -1.2292  0.1865  0.7092
 6746TIP3   OH244432   1.856   0.751  12.305 -0.2916 -0.7358 -0.8314
 6746TIP3    H144433   1.812   0.698  12.371  0.3217 -0.5129 -0.2259
 6746TIP3    H244434   1.931   0.788  12.351  0.3504 -0.8605 -1.7533
 6747TIP3   OH244435   2.423   0.963  12.773 -0.3350 -0.5377  0.1558
 6747TIP3    H144436   2.335   0.995  12.795  0.0184  1.3647 -0.9871
 6747TIP3    H244437   2.481   1.010  12.833 -0.0017 -1.1582  0.3308
 6748TIP3   OH244438   7.395   4.833  11.000 -0.2530  0.5708 -0.1779
 6748TIP3    H144439   7.299   4.832  11.005 -0.2876  0.9190 -0.6705
 6748TIP3    H244440   7.423   4.857  11.089 -0.5715 -0.9174  0.3450
 6749TIP3   OH244441   5.795   0.452  12.489  0.1212  0.2293  0.3303
 6749TIP3    H144442   5.730   0.472  12.558 -0.5891 -2.0515  0.4144
 6749TIP3    H244443   5.742   0.424  12.414  0.9304 -2.3253  0.6111
 6750TIP3   OH244444   4.051   2.912  12.715 -0.4562  0.0447  0.0158
 6750TIP3    H144445   4.087   2.872  12.636 -0.0634  1.6856 -0.6841
 6750TIP3    H244446   3.960   2.883  12.717  0.1682 -2.0388  0.3658
 6751TIP3   OH244447   3.191   6.604  11.777 -0.1869  0.2561  0.0986
 6751TIP3    H144448   3.216   6.608  11.869  1.4233 -2.1996 -0.1181
 6751TIP3    H244449   3.175   6.511  11.761  2.3759  0.1430 -2.6967
 6752TIP3   OH244450   1.345   6.913  11.261 -0.1033 -0.2578 -0.1058
 6752TIP3    H144451   1.288   6.980  11.222  1.4015  2.6337  2.2798
 6752TIP3    H244452   1.426   6.917  11.210 -0.0805 -0.4114 -0.0830
 6753TIP3   OH244453   3.232   1.437  10.611 -0.2554  0.0723  0.2127
 6753TIP3    H144454   3.314   1.390  10.630 -0.2888  0.0791  0.3748
 6753TIP3    H244455   3.212   1.483  10.693  1.4747  2.9604 -0.8526
 6754TIP3   OH244456   1.072   0.632  12.691  0.4267 -0.2805 -0.3597
 6754TIP3    H144457   1.121   0.653  12.771 -0.2381  1.8563 -0.4618
 6754TIP3    H244458   0.989   0.597  12.723 -0.2513  1.5191 -0.0442
 6755TIP3   OH244459   2.407   0.365  11.952  0.0823  0.8718  0.4187
 6755TIP3    H144460   2.388   0.378  11.859 -2.5117 -0.8184  0.5891
 6755TIP3    H244461   2.396   0.451  11.991  0.7863  1.5241 -0.7634
 6756TIP3   OH244462   3.027   3.492  12.564 -0.1335 -0.9310 -0.8310
 6756TIP3    H144463   3.101   3.451  12.609 -0.0502 -0.5455 -0.6134
 6756TIP3    H244464   2.951   3.442  12.592  0.0195 -1.2104 -0.9073
 6757TIP3   OH244465   1.582   3.972  11.184  0.0987  0.4779  0.3702
 6757TIP3    H144466   1.545   4.032  11.119  0.8570  0.8611  0.2894
 6757TIP3    H244467   1.560   3.885  11.151  1.8991  0.5992 -1.2885
 6758TIP3   OH244468   0.974   5.937  10.760 -0.5394 -0.3444 -0.0617
 6758TIP3    H144469   1.067   5.914  10.768 -0.4078 -0.2611 -1.1956
 6758TIP3    H244470   0.951   5.971  10.847  0.8047  0.7480 -0.0858
 6759TIP3   OH244471   4.632   1.517  12.224  0.5605 -0.5884 -0.0471
 6759TIP3    H144472   4.721   1.535  12.253  0.4697 -0.2042 -0.0085
 6759TIP3    H244473   4.576   1.547  12.296  0.3937 -0.7832 -0.0912
 6760TIP3   OH244474   6.803   1.692  12.267  0.4191 -0.0698  0.1154
 6760TIP3    H144475   6.717   1.649  12.275  1.3118 -1.7989  0.9488
 6760TIP3    H244476   6.823   1.724  12.355  0.9050 -0.2243  0.0627
 6761TIP3   OH244477   7.661   5.642  10.416 -0.0374 -0.5299  1.0362
 6761TIP3    H144478   7.697   5.555  10.402  0.2675 -0.1611 -0.6493
 6761TIP3    H244479   7.737   5.697  10.434 -0.0247 -0.2560  0.1644
 6762TIP3   OH244480   5.441   0.510  11.192 -0.3688 -0.4440  0.4862
 6762TIP3    H144481   5.385   0.485  11.266  0.3198 -2.0502  0.5194
 6762TIP3    H244482   5.530   0.506  11.227 -0.1287  0.2823 -0.0322
 6763TIP3   OH244483   4.254   4.114  10.846 -0.9635  0.1178  0.2962
 6763TIP3    H144484   4.350   4.108  10.843 -1.0681 -1.8063 -0.0136
 6763TIP3    H244485   4.224   4.024  10.853 -2.8574  0.4351 -2.2363
 6764TIP3   OH244486   6.659   2.472  11.362 -0.0727 -0.0172  0.0887
 6764TIP3    H144487   6.595   2.543  11.355 -1.3125 -1.2733 -1.8513
 6764TIP3    H244488   6.607   2.393  11.376  1.2435 -0.7346  1.2410
 6765TIP3   OH244489   0.374   4.477  11.974 -0.3041  0.0917  0.6186
 6765TIP3    H144490   0.383   4.387  11.943 -0.0563  0.0480  0.8156
 6765TIP3    H244491   0.332   4.523  11.901  1.3393  0.2469 -0.2761
 6766TIP3   OH244492   4.339   7.194  12.091  0.2692  0.0319 -0.1699
 6766TIP3    H144493   4.291   7.122  12.132 -0.5900  0.1341 -0.9807
 6766TIP3    H244494   4.343   7.262  12.159 -1.3178  0.2788 -0.2864
 6767TIP3   OH244495   0.477   6.274  11.117  0.8294  0.4741  0.5523
 6767TIP3    H144496   0.414   6.226  11.063 -0.9995  1.1051  2.0130
 6767TIP3    H244497   0.500   6.212  11.187  1.0381  0.5875  0.5834
 6768TIP3   OH244498   5.561   2.112  12.201 -0.2205 -0.0012  0.8271
 6768TIP3    H144499   5.498   2.150  12.262  0.0304  1.2754  0.3319
 6768TIP3    H244500   5.528   2.024  12.182 -0.4824 -0.2912  2.5211
 6769TIP3   OH244501   4.458   7.666  12.193 -0.1012 -0.0426 -0.4857
 6769TIP3    H144502   4.514   7.591  12.171  0.8145  0.0778  1.2353
 6769TIP3    H244503   4.380   7.654  12.139  0.8968 -1.0903 -1.7894
 6770TIP3   OH244504   4.681   3.405  11.549  0.3543 -0.1466 -0.1215
 6770TIP3    H144505   4.648   3.493  11.535  0.8367 -0.3484 -3.3328
 6770TIP3    H244506   4.606   3.348  11.531  0.8037 -0.4439 -1.0972
 6771TIP3   OH244507   0.909   6.410  12.506 -0.2677 -0.2933  0.2924
 6771TIP3    H144508   0.919   6.502  12.533  2.2981 -0.4629  0.1448
 6771TIP3    H244509   0.908   6.362  12.588 -0.1563 -0.2318  0.3308
 6772TIP3   OH244510   6.779   1.485  12.851 -0.1055  0.4287  0.2318
 6772TIP3    H144511   6.770   1.526  12.766  2.1191 -0.4066 -0.4817
 6772TIP3    H244512   6.712   1.417  12.853 -0.1298  0.4096 -0.8985
 6773TIP3   OH244513   6.409   6.917  10.532  0.2405  0.2207 -0.3254
 6773TIP3    H144514   6.469   6.980  10.572 -0.7999  0.1093  1.5177
 6773TIP3    H244515   6.464   6.842  10.509  1.1542  0.9930 -0.7512
 6774TIP3   OH244516   2.389   6.983  11.776 -0.0706 -0.2722  0.1007
 6774TIP3    H144517   2.368   7.057  11.719 -1.3282  1.2152  2.3360
 6774TIP3    H244518   2.485   6.979  11.776  0.0521  1.7531  0.3542
 6775TIP3   OH244519   1.276   4.990  11.025 -0.1578  0.0659  0.0465
 6775TIP3    H144520   1.276   4.905  11.069 -0.3155  0.6526  1.1957
 6775TIP3    H244521   1.297   5.053  11.093 -1.7951  1.1516 -0.3973
 6776TIP3   OH244522   2.536   7.566  11.752 -0.1190 -0.2724  0.2360
 6776TIP3    H144523   2.630   7.548  11.744 -0.2242 -2.8255  3.2061
 6776TIP3    H244524   2.532   7.640  11.813 -0.0547  0.6085 -0.8025
 6777TIP3   OH244525   7.317   3.587  12.998  0.0109  1.0691 -0.3928
 6777TIP3    H144526   7.302   3.599  13.092 -0.6562 -1.6276 -0.0831
 6777TIP3    H244527   7.402   3.543  12.993 -1.0728 -1.1107 -0.8029
 6778TIP3   OH244528   2.034   6.784  12.938  0.7641  0.2327 -0.4179
 6778TIP3    H144529   1.992   6.860  12.977  1.5964  0.0333  0.9312
 6778TIP3    H244530   2.126   6.809  12.931  1.0304 -0.6063 -0.0341
 6779TIP3   OH244531   5.640   5.848  12.365 -0.2335  0.0673 -0.4281
 6779TIP3    H144532   5.679   5.806  12.289  0.3756 -1.9086  0.8805
 6779TIP3    H244533   5.689   5.813  12.440 -2.8277 -0.6163  1.1110
 6780TIP3   OH244534   0.909   2.974  12.600 -0.3560  0.5243  0.1622
 6780TIP3    H144535   0.867   2.971  12.686  1.3535 -0.0376  1.0239
 6780TIP3    H244536   0.839   2.951  12.539 -1.2904 -0.4784  1.5356
 6781TIP3   OH244537   1.854   1.899  11.890  0.1619 -0.4568  0.0974
 6781TIP3    H144538   1.792   1.876  11.959  0.0470 -1.5501 -0.3596
 6781TIP3    H244539   1.938   1.906  11.935 -0.2110  0.6307  0.6492
 6782TIP3   OH244540   2.655   1.248  12.384  0.3597 -0.3697  0.4689
 6782TIP3    H144541   2.715   1.281  12.317  0.4131 -3.0665 -0.9235
 6782TIP3    H244542   2.675   1.301  12.462  2.4895  0.7507 -0.7330
 6783TIP3   OH244543   5.071   0.833  10.769 -0.1598  0.5022  0.0186
 6783TIP3    H144544   5.074   0.822  10.674  0.9062 -0.1654  0.1113
 6783TIP3    H244545   5.046   0.747  10.803 -2.6534  1.2418  0.2854
 6784TIP3   OH244546   2.174   5.547  11.079  0.3518  0.3908 -0.2294
 6784TIP3    H144547   2.099   5.493  11.102 -0.2934  1.8677  1.3946
 6784TIP3    H244548   2.138   5.616  11.023  1.0249 -0.3628 -1.6479
 6785TIP3   OH244549   0.121   6.044  10.641  0.4880  0.2541  0.1890
 6785TIP3    H144550   0.034   6.003  10.637  0.5392  0.2354 -2.2061
 6785TIP3    H244551   0.105   6.137  10.625  0.8694  0.3015  0.0710
 6786TIP3   OH244552   6.439   2.967  11.486 -0.2244 -0.1071 -0.7303
 6786TIP3    H144553   6.381   2.946  11.413 -0.6338 -1.0902 -0.1339
 6786TIP3    H244554   6.475   3.053  11.463  0.4182 -0.8124 -2.5638
 6787TIP3   OH244555   2.506   1.254  10.774 -0.2482  0.7220 -0.2848
 6787TIP3    H144556   2.473   1.176  10.731  0.5197  0.0586  0.2960
 6787TIP3    H244557   2.519   1.317  10.703  2.3065 -0.7925 -1.2948
 6788TIP3   OH244558   6.682   4.674  13.490 -0.7064  0.1024  0.2877
 6788TIP3    H144559   6.689   4.767  13.468 -0.2506  0.8522  3.1704
 6788TIP3    H244560   6.610   4.670  13.553 -0.8812 -1.5757  0.0246
 6789TIP3   OH244561   4.941   0.654  11.638  0.4092  0.1991 -0.2131
 6789TIP3    H144562   4.849   0.633  11.654  0.7414 -0.9995  0.2441
 6789TIP3    H244563   4.962   0.610  11.556  0.6785  0.1602 -0.1232
 6790TIP3   OH244564   6.981   6.278  10.992  0.1022 -0.1696  0.1572
 6790TIP3    H144565   7.038   6.289  10.916  0.4806 -1.1758  0.2893
 6790TIP3    H244566   6.925   6.205  10.969 -1.1282  0.7702  0.0549
 6791TIP3   OH244567   0.561   3.905  10.971 -0.1973  0.3828 -0.0424
 6791TIP3    H144568   0.597   3.820  10.996 -1.9018  0.2879  2.5154
 6791TIP3    H244569   0.502   3.886  10.898 -0.5202 -0.6450  0.4618
 6792TIP3   OH244570   7.535   6.982  10.756  0.0172  0.1641 -0.1669
 6792TIP3    H144571   7.534   7.058  10.698 -2.1559  0.1434 -0.2159
 6792TIP3    H244572   7.443   6.957  10.765  0.5372 -1.4068  1.2443
 6793TIP3   OH244573   6.649   2.365  12.576  0.5657  0.3508 -0.6339
 6793TIP3    H144574   6.662   2.271  12.569  1.6495  0.5927 -2.8878
 6793TIP3    H244575   6.624   2.380  12.667 -0.4148 -2.1755 -0.4363
 6794TIP3   OH244576   2.406   1.514  10.912 -0.1056 -0.7916  0.2703
 6794TIP3    H144577   2.468   1.523  10.839 -1.6459 -0.2499 -1.0227
 6794TIP3    H244578   2.457   1.537  10.989  0.6877  2.3781 -1.0383
 6795TIP3   OH244579   4.373   1.099  11.995  0.0788 -0.5114 -0.1838
 6795TIP3    H144580   4.408   1.015  11.964 -0.7303  0.0705 -2.8480
 6795TIP3    H244581   4.433   1.125  12.065  2.0942 -1.8697 -1.3210
 6796TIP3   OH244582   1.880   4.591  12.411  0.5612  0.4781 -0.3478
 6796TIP3    H144583   1.890   4.605  12.506  1.8029 -3.8480  0.3773
 6796TIP3    H244584   1.786   4.583  12.398  0.4332 -0.2603  0.8326
 6797TIP3   OH244585   0.339   1.035  11.944 -0.1825 -0.3998  0.8525
 6797TIP3    H144586   0.361   0.946  11.971  0.8350  0.0837  1.6277
 6797TIP3    H244587   0.395   1.052  11.868  1.3232  0.4021  2.1093
 6798TIP3   OH244588   0.932   4.050  12.153 -0.1955 -0.4230  0.3052
 6798TIP3    H144589   0.849   4.095  12.140 -0.1656 -0.3912  0.2185
 6798TIP3    H244590   0.984   4.111  12.206  0.3741  0.2968 -1.0316
 6799TIP3   OH244591   5.568   7.626  13.190 -0.2786 -0.3368 -0.2257
 6799TIP3    H144592   5.556   7.542  13.233 -1.7028  0.5031  1.1385
 6799TIP3    H244593   5.484   7.643  13.148  0.1535  0.1977 -0.8943
 6800TIP3   OH244594   2.329   5.423  12.228  0.1704 -0.1484 -0.2196
 6800TIP3    H144595   2.252   5.472  12.258  0.4391 -0.4328  1.0139
 6800TIP3    H244596   2.390   5.489  12.197 -0.0871  0.1801 -0.0351
 6801TIP3   OH244597   6.438   4.490  10.923 -0.1974  0.1311  0.0860
 6801TIP3    H144598   6.434   4.396  10.907 -0.6264 -0.1199  1.4948
 6801TIP3    H244599   6.515   4.501  10.979 -1.0120  0.3864  1.1986
 6802TIP3   OH244600   6.190   2.797  10.873 -0.8740  0.9510 -0.0280
 6802TIP3    H144601   6.274   2.763  10.840 -0.4730  1.4914  0.4168
 6802TIP3    H244602   6.214   2.851  10.948 -1.6472  0.9318  0.2427
 6803TIP3   OH244603   2.980   0.740  11.614  0.0749  0.3507  0.0840
 6803TIP3    H144604   2.954   0.806  11.678 -0.0688 -0.1603  0.5603
 6803TIP3    H244605   2.983   0.788  11.531 -0.5264  0.8448  0.3346
 6804TIP3   OH244606   2.794   2.199  12.271 -0.3897  0.4723  0.6783
 6804TIP3    H144607   2.795   2.293  12.287  0.6889  0.3372  1.5751
 6804TIP3    H244608   2.850   2.187  12.194 -1.6717  0.6692 -0.3244
 6805TIP3   OH244609   4.820   0.480  10.281 -0.1451  0.6543 -0.0043
 6805TIP3    H144610   4.808   0.506  10.189 -1.0666 -0.5504 -0.2416
 6805TIP3    H244611   4.762   0.405  10.293  1.1894 -0.2556  1.1034
 6806TIP3   OH244612   4.449   3.715  11.175  0.3015 -0.3254 -0.5165
 6806TIP3    H144613   4.524   3.693  11.121  0.7021 -1.1806  0.3455
 6806TIP3    H244614   4.434   3.636  11.228  0.0678  0.5422  0.7590
 6807TIP3   OH244615   7.638   3.069  12.082 -0.1598  0.0844  0.5392
 6807TIP3    H144616   7.590   3.006  12.028 -0.6180  0.8553  0.0198
 6807TIP3    H244617   7.585   3.149  12.077  1.4982  1.1890 -0.6336
 6808TIP3   OH244618   2.036   4.825  12.351  0.3037  0.0928 -0.1224
 6808TIP3    H144619   1.971   4.797  12.286  0.7799  0.9733 -1.0095
 6808TIP3    H244620   2.119   4.789  12.319  0.2001 -1.6280  1.3789
 6809TIP3   OH244621   1.163   4.885  11.602  0.3432 -0.1151  0.2577
 6809TIP3    H144622   1.180   4.794  11.626  0.3095 -0.0839  0.3984
 6809TIP3    H244623   1.217   4.900  11.524  1.3315  0.1228  0.9720
 6810TIP3   OH244624   1.407   5.899  11.209  0.3736 -0.7274 -0.3610
 6810TIP3    H144625   1.483   5.933  11.258  0.5974 -2.7862  0.8510
 6810TIP3    H244626   1.356   5.852  11.275  0.4545 -3.2814 -1.9892
 6811TIP3   OH244627   2.947   5.116  13.317  0.3131  0.2514  0.3803
 6811TIP3    H144628   3.035   5.079  13.310  0.3509  0.4293 -0.1391
 6811TIP3    H244629   2.902   5.060  13.381  0.6400 -0.1610  0.2514
 6812TIP3   OH244630   4.519   0.204  13.048  0.7813  0.0177 -0.2224
 6812TIP3    H144631   4.507   0.112  13.025  0.0750 -0.5911  2.3008
 6812TIP3    H244632   4.592   0.204  13.109  0.6970  1.1284 -0.1100
 6813TIP3   OH244633   2.427   3.648  11.598 -0.5203 -0.2386  0.0765
 6813TIP3    H144634   2.424   3.717  11.664  2.6909 -2.1042  2.4900
 6813TIP3    H244635   2.513   3.659  11.557 -1.6250 -0.3965 -2.4998
 6814TIP3   OH244636   6.491   5.208  11.827 -0.0731  0.4565  0.0947
 6814TIP3    H144637   6.475   5.196  11.734 -0.2082  0.0049  0.1734
 6814TIP3    H244638   6.405   5.203  11.868 -0.0354  0.8555  0.2199
 6815TIP3   OH244639   5.021   6.099  12.303 -0.2037  0.2705  0.0619
 6815TIP3    H144640   5.067   6.018  12.325  1.6629  1.1309 -0.5063
 6815TIP3    H244641   4.955   6.073  12.238 -0.3963 -0.9575  0.7276
 6816TIP3   OH244642   3.449   5.921  12.842  0.6693  0.0710 -0.5982
 6816TIP3    H144643   3.401   5.842  12.868 -0.7329  0.6900 -1.2072
 6816TIP3    H244644   3.385   5.973  12.794  0.9048  2.5647  1.5444
 6817TIP3   OH244645   1.825   0.683  11.458  0.0200  0.3447 -0.7543
 6817TIP3    H144646   1.813   0.719  11.370 -0.7706  1.0521 -0.3825
 6817TIP3    H244647   1.850   0.759  11.511  1.7960 -0.2961 -0.5906
 6818TIP3   OH244648   1.950   2.238  11.059  0.0924  0.2158  0.1740
 6818TIP3    H144649   1.929   2.149  11.087  0.0849  0.1157 -0.1536
 6818TIP3    H244650   1.995   2.228  10.975 -3.4075  0.6817 -1.9604
 6819TIP3   OH244651   6.845   6.374  10.202  0.5807 -0.0603  0.0821
 6819TIP3    H144652   6.801   6.421  10.273 -0.3322 -0.6632 -0.0741
 6819TIP3    H244653   6.777   6.357  10.138  1.2798 -0.0300 -0.6836
 6820TIP3   OH244654   0.499   0.006  11.118  0.1353 -0.0459  0.5780
 6820TIP3    H144655   0.462   0.051  11.194 -1.2056  0.4361 -0.3172
 6820TIP3    H244656   0.458  -0.081  11.120  1.5062 -0.7168  1.4024
 6821TIP3   OH244657   3.257   7.315  11.799  0.1697 -0.0976  0.3625
 6821TIP3    H144658   3.260   7.272  11.885 -1.4129  1.1067  1.0586
 6821TIP3    H244659   3.332   7.375  11.800  0.5575 -0.5780  0.6274
 6822TIP3   OH244660   4.350   2.747  10.486 -0.3848 -0.6283 -0.3580
 6822TIP3    H144661   4.257   2.764  10.477 -0.5971 -0.8508  1.1235
 6822TIP3    H244662   4.366   2.747  10.581  0.6934 -2.7151 -0.4587
 6823TIP3   OH244663   1.491   5.820  12.149 -0.2510  0.1414 -0.0601
 6823TIP3    H144664   1.575   5.852  12.115 -0.3264  1.2943  0.7585
 6823TIP3    H244665   1.429   5.891  12.130 -0.5849  0.2053  1.1679
 6824TIP3   OH244666   5.079   1.685  18.123  0.2211  0.4213  0.0400
 6824TIP3    H144667   5.027   1.607  18.139 -0.3492  0.9855  1.0744
 6824TIP3    H244668   5.158   1.672  18.174 -0.3290  0.9487  1.0675
 6825TIP3   OH244669   2.874   1.650  10.921 -0.7714 -0.5505 -0.0155
 6825TIP3    H144670   2.909   1.716  10.980 -0.7709  0.3576 -1.0114
 6825TIP3    H244671   2.949   1.595  10.898 -0.0093  1.1330 -1.8105
 6826TIP3   OH244672   4.942   1.783  10.585  0.6556  0.2374 -0.3355
 6826TIP3    H144673   4.934   1.694  10.617  1.0506  0.1313 -0.5202
 6826TIP3    H244674   4.919   1.777  10.492  2.0061  0.0732 -0.6753
 6827TIP3   OH244675   2.657   3.603  11.439  0.7464  0.5710  0.6147
 6827TIP3    H144676   2.617   3.541  11.377 -0.6093  1.0039  1.0160
 6827TIP3    H244677   2.674   3.551  11.517  1.6544  0.2204  0.1938
 6828TIP3   OH244678   5.486   5.273  11.882 -0.1500 -0.0485 -0.0361
 6828TIP3    H144679   5.575   5.249  11.855  0.1849  1.2624 -0.1662
 6828TIP3    H244680   5.476   5.364  11.852 -1.3046  0.0244  0.5402
 6829TIP3   OH244681   1.896   3.720  10.809 -0.0494 -0.2358  0.1456
 6829TIP3    H144682   1.989   3.735  10.822 -0.0595 -0.2041  0.1843
 6829TIP3    H244683   1.873   3.775  10.734  0.3913 -1.8432 -1.2162
 6830TIP3   OH244684   1.670   4.923  10.754  0.3084 -0.4435  0.2093
 6830TIP3    H144685   1.645   4.949  10.842 -2.4579  2.6218 -1.2460
 6830TIP3    H244686   1.756   4.962  10.741  0.0816  0.3846  1.0821
 6831TIP3   OH244687   6.116   2.406  11.037 -0.8026  0.4867  0.1059
 6831TIP3    H144688   6.049   2.358  11.086  1.3161 -1.1895  1.5766
 6831TIP3    H244689   6.197   2.359  11.055  0.6207  1.6731 -2.6057
 6832TIP3   OH244690   7.304   4.509  12.097  0.2243 -0.6971  0.1706
 6832TIP3    H144691   7.323   4.519  12.004  0.7886  3.4045  0.5373
 6832TIP3    H244692   7.220   4.553  12.110 -0.5479 -2.4104  1.4585
 6833TIP3   OH244693   3.928   2.031  11.808 -0.3824 -0.3824 -0.6305
 6833TIP3    H144694   3.993   2.096  11.782 -1.9361  0.9678 -1.3466
 6833TIP3    H244695   3.879   2.073  11.879 -1.2972 -0.8373 -0.9809
 6834TIP3   OH244696   7.615   2.276  11.552 -0.5342  0.4641 -0.6640
 6834TIP3    H144697   7.544   2.273  11.616  1.7836 -0.5099  2.0666
 6834TIP3    H244698   7.596   2.204  11.491 -2.3484  0.8588 -0.6081
 6835TIP3   OH244699   5.532   2.901  11.994  0.8399  0.3960 -0.2599
 6835TIP3    H144700   5.523   2.900  11.898 -0.9063  1.1827 -0.1493
 6835TIP3    H244701   5.462   2.959  12.024 -0.5936 -2.1252  1.6719
 6836TIP3   OH244702   2.742   5.393  12.492  0.0313  0.6251  0.0338
 6836TIP3    H144703   2.648   5.412  12.498 -0.1164  0.3311 -1.0812
 6836TIP3    H244704   2.748   5.323  12.427  1.1378  1.6595 -1.0451
 6837TIP3   OH244705   6.421   3.487  12.940 -0.0047  0.3838  0.2260
 6837TIP3    H144706   6.326   3.498  12.942 -0.2649 -1.1443 -0.9706
 6837TIP3    H244707   6.439   3.457  12.851  1.7640  1.7496  0.0746
 6838TIP3   OH244708   5.240   0.682  13.140 -0.1279 -0.0023 -0.3705
 6838TIP3    H144709   5.155   0.638  13.145 -0.9414  1.5483  0.1892
 6838TIP3    H244710   5.302   0.617  13.173 -1.3954 -0.4479  1.2872
 6839TIP3   OH244711   3.567   3.565  10.727  0.0833 -0.3560 -0.2488
 6839TIP3    H144712   3.506   3.503  10.689 -0.0893 -0.0862 -0.4168
 6839TIP3    H244713   3.631   3.511  10.773  0.4009 -0.7023 -1.0708
 6840TIP3   OH244714   3.387   7.504  13.356 -0.6220  0.7751  0.8100
 6840TIP3    H144715   3.395   7.409  13.353 -0.2020  0.8284  0.0903
 6840TIP3    H244716   3.293   7.521  13.361 -0.7156  0.3350  0.5175
 6841TIP3   OH244717   7.650   2.002  12.842  0.2350 -0.2836  0.3498
 6841TIP3    H144718   7.731   1.970  12.881 -0.2614 -1.0984  0.7243
 6841TIP3    H244719   7.583   1.984  12.907 -0.5490 -1.3568 -0.7142
 6842TIP3   OH244720   1.702   0.645  11.905 -0.3492 -0.3043  0.2987
 6842TIP3    H144721   1.747   0.569  11.943  0.1005  0.3925  1.1808
 6842TIP3    H244722   1.681   0.617  11.815 -1.4705 -2.0009  1.0255
 6843TIP3   OH244723   4.705   2.701  11.589  0.3374 -0.6248  0.2907
 6843TIP3    H144724   4.800   2.696  11.595  0.3727 -0.2201  0.1291
 6843TIP3    H244725   4.687   2.794  11.574 -0.0855 -0.6909  0.3744
 6844TIP3   OH244726   4.830   1.194  11.643 -0.3979 -0.2562 -0.3540
 6844TIP3    H144727   4.777   1.190  11.723 -0.2304  2.6972  0.0047
 6844TIP3    H244728   4.774   1.237  11.579  0.1251 -0.9165 -1.2725
 6845TIP3   OH244729   1.337   7.147  11.052  0.4449 -0.0239  0.3781
 6845TIP3    H144730   1.409   7.204  11.080  0.0928  1.5605 -1.6437
 6845TIP3    H244731   1.293   7.197  10.983 -1.6636 -1.5967  0.4735
 6846TIP3   OH244732   6.075   2.578  10.706  0.1001 -0.2581  0.4216
 6846TIP3    H144733   6.116   2.641  10.766 -0.9395  0.3427  0.5114
 6846TIP3    H244734   6.032   2.515  10.764  2.2444 -1.8890  0.3835
 6847TIP3   OH244735   4.090   6.351  11.656 -0.1111 -0.5764 -0.3376
 6847TIP3    H144736   4.093   6.418  11.724  0.7858 -0.7640 -0.1790
 6847TIP3    H244737   3.997   6.337  11.639 -0.3187  0.0116  0.3159
 6848TIP3   OH244738   6.881   6.135  12.440  0.2485 -0.5438  0.2946
 6848TIP3    H144739   6.922   6.222  12.435  1.9536 -1.2821  0.6737
 6848TIP3    H244740   6.842   6.133  12.528 -0.9065  0.2763 -0.1764
 6849TIP3   OH244741   1.659   1.526  12.740 -0.5575 -0.0397 -0.0286
 6849TIP3    H144742   1.578   1.490  12.776 -0.5523 -0.1635 -0.1375
 6849TIP3    H244743   1.640   1.536  12.646 -0.2306 -0.6857 -0.1759
 6850TIP3   OH244744   3.381   0.020  12.290 -0.0103  0.1963 -0.2367
 6850TIP3    H144745   3.355  -0.003  12.379  0.3511 -0.6086 -0.3255
 6850TIP3    H244746   3.472  -0.008  12.284  0.9148  2.8314  0.0306
 6851TIP3   OH244747   7.381   0.810  13.279 -0.6823  0.1647 -0.9357
 6851TIP3    H144748   7.306   0.862  13.307 -1.6894 -0.7166 -1.9124
 6851TIP3    H244749   7.348   0.720  13.274  0.6036 -0.3441 -0.8070
 6852TIP3   OH244750   7.193   5.576  11.624  0.1340  0.4623  0.2617
 6852TIP3    H144751   7.277   5.617  11.643  0.4215 -0.6614  1.6438
 6852TIP3    H244752   7.173   5.524  11.702 -0.7998 -0.9921 -0.8661
 6853TIP3   OH244753   6.621   2.294  11.145 -0.1880 -0.3791 -0.1227
 6853TIP3    H144754   6.648   2.260  11.060 -1.9036 -0.8015 -0.5373
 6853TIP3    H244755   6.608   2.388  11.131 -0.5837 -0.4687 -0.3665
 6854TIP3   OH244756   5.270   5.304  11.483  0.0288  0.4692 -0.0018
 6854TIP3    H144757   5.301   5.308  11.392 -1.5162 -0.1812 -0.5918
 6854TIP3    H244758   5.272   5.395  11.512 -1.7458  1.0689 -1.5389
 6855TIP3   OH244759   3.061   0.238  10.725  0.0641  0.2267 -0.1073
 6855TIP3    H144760   3.093   0.182  10.655  0.3159  1.7741 -1.2925
 6855TIP3    H244761   2.984   0.281  10.688  0.4549  1.4091  0.3884
 6856TIP3   OH244762   4.258   2.930  12.458  0.2277 -0.3095 -0.1151
 6856TIP3    H144763   4.274   2.888  12.373  1.7852  0.0795 -0.0520
 6856TIP3    H244764   4.193   2.997  12.439  1.8761  1.0215 -1.4561
 6857TIP3   OH244765   2.892   2.990  12.423 -0.5936  0.4581  0.6187
 6857TIP3    H144766   2.883   2.910  12.370 -0.3708  0.4586  0.5795
 6857TIP3    H244767   2.983   3.017  12.410 -0.4809  0.3468  1.1616
 6858TIP3   OH244768   1.686   3.955  11.968 -0.3715  0.3702  0.0526
 6858TIP3    H144769   1.659   4.007  12.044  1.6379  2.2947 -0.4329
 6858TIP3    H244770   1.606   3.912  11.938 -1.4661  0.5982  2.4553
 6859TIP3   OH244771   1.411   6.408  11.369 -0.2195 -0.0043  0.5191
 6859TIP3    H144772   1.426   6.497  11.337 -2.3639  0.4261  0.5368
 6859TIP3    H244773   1.436   6.411  11.461  1.6395 -0.0041  0.0420
 6860TIP3   OH244774   4.970   6.284  12.013 -0.2660  0.1545 -0.1325
 6860TIP3    H144775   4.976   6.304  12.106 -1.6035 -1.1061  0.2696
 6860TIP3    H244776   4.952   6.190  12.010  0.3485  0.0570 -1.6969
 6861TIP3   OH244777   0.999   1.316  11.359 -0.4660  0.2776 -0.1879
 6861TIP3    H144778   1.089   1.348  11.355 -0.5548  0.5419 -0.1298
 6861TIP3    H244779   0.992   1.273  11.444 -0.2014 -0.3490 -0.4742
 6862TIP3   OH244780   5.292   1.149  11.711 -0.7415  0.0990  0.0517
 6862TIP3    H144781   5.228   1.079  11.730 -0.2339  0.1651  2.2509
 6862TIP3    H244782   5.277   1.214  11.780  0.2315  1.1539 -0.7060
 6863TIP3   OH244783   4.115   2.416  13.098  0.4236 -0.2718  0.1415
 6863TIP3    H144784   4.104   2.490  13.157  0.1370 -0.1037 -0.1239
 6863TIP3    H244785   4.069   2.344  13.141  0.5652 -0.2571  0.3189
 6864TIP3   OH244786   1.379   5.809  12.865  0.3381 -0.1279 -0.1580
 6864TIP3    H144787   1.328   5.790  12.945  0.0322 -1.2248 -0.5954
 6864TIP3    H244788   1.448   5.743  12.865  0.3432 -0.1196 -0.8025
 6865TIP3   OH244789   5.570   2.798  12.248  0.4568 -0.6904 -0.0274
 6865TIP3    H144790   5.650   2.848  12.263  0.2496 -0.1402 -0.6779
 6865TIP3    H244791   5.530   2.840  12.171 -1.1036 -0.1197  1.0520
 6866TIP3   OH244792   3.093   5.418  11.225 -0.1176  0.2218  0.8061
 6866TIP3    H144793   3.108   5.510  11.245 -1.4890  0.5415  0.4727
 6866TIP3    H244794   3.006   5.416  11.183  0.6373 -0.9985 -0.8040
 6867TIP3   OH244795   4.005   4.461  11.456 -0.0080 -0.1572  0.4799
 6867TIP3    H144796   4.078   4.419  11.408 -1.5064  0.5882 -2.7487
 6867TIP3    H244797   3.934   4.396  11.452  0.1448 -0.5575  2.9091
 6868TIP3   OH244798   2.718   6.325  12.849 -0.1560 -0.6115 -0.4929
 6868TIP3    H144799   2.713   6.249  12.907 -1.1751  0.0866  0.3819
 6868TIP3    H244800   2.628   6.341  12.822 -0.1879  1.1595  0.5317
 6869TIP3   OH244801   2.025   4.269  12.507 -0.3473 -0.2320 -0.2587
 6869TIP3    H144802   2.021   4.338  12.574 -0.3379 -0.5436  0.0662
 6869TIP3    H244803   2.087   4.206  12.542 -0.0201 -0.1908 -0.7620
 6870TIP3   OH244804   3.889   1.403  11.536 -0.1450  0.2312 -0.4623
 6870TIP3    H144805   3.967   1.347  11.538 -0.1156  0.2818  1.5273
 6870TIP3    H244806   3.921   1.490  11.559 -0.7745  0.2505  0.3758
 6871TIP3   OH244807   0.223   7.324  11.509 -0.5067 -0.0353  0.0509
 6871TIP3    H144808   0.298   7.383  11.499  1.4541 -2.2862  0.4643
 6871TIP3    H244809   0.219   7.276  11.427  1.1966 -2.7549  1.4212
 6872TIP3   OH244810   2.153   1.847  10.772 -0.1549  0.0776 -0.0242
 6872TIP3    H144811   2.228   1.788  10.777  2.8508  3.5948  0.5557
 6872TIP3    H244812   2.106   1.820  10.693  1.8048 -2.1418 -0.5354
 6873TIP3   OH244813   5.120   1.289  10.986 -0.3180 -0.0311  0.4736
 6873TIP3    H144814   5.089   1.201  10.965 -3.0963  0.9124  0.1934
 6873TIP3    H244815   5.042   1.334  11.020  0.8594  2.4933  0.0330
 6874TIP3   OH244816   4.732   7.616  12.782  0.5530 -0.1849  1.0530
 6874TIP3    H144817   4.686   7.642  12.862 -0.7300  2.0826 -0.3232
 6874TIP3    H244818   4.792   7.547  12.811 -2.9793 -2.6913  3.1603
 6875TIP3   OH244819   1.073   3.171  11.647 -0.9576  0.4559 -0.3503
 6875TIP3    H144820   0.980   3.188  11.628 -1.3232 -1.4895 -0.5167
 6875TIP3    H244821   1.116   3.180  11.562 -1.4091 -0.9950 -0.7581
 6876TIP3   OH244822   0.002   5.802  11.863 -0.2140 -0.1096  0.2638
 6876TIP3    H144823   0.043   5.747  11.930  0.8863 -0.8098 -0.9164
 6876TIP3    H244824   0.058   5.791  11.786 -2.0649 -0.2621 -1.1327
 6877TIP3   OH244825   2.661   7.263  10.772  0.7486  0.9417  0.4644
 6877TIP3    H144826   2.664   7.344  10.823  0.6424  0.5180  1.1527
 6877TIP3    H244827   2.602   7.283  10.699 -0.2222  1.1206  1.2749
 6878TIP3   OH244828   5.583   4.665  13.295  0.3917 -0.0015  0.1490
 6878TIP3    H144829   5.608   4.757  13.292 -0.2351  0.1463 -0.8048
 6878TIP3    H244830   5.488   4.666  13.310  0.6138 -0.5307  1.9007
 6879TIP3   OH244831   5.143   6.592  10.172  0.0259  0.2992 -0.2993
 6879TIP3    H144832   5.187   6.628  10.249  0.9803 -2.1286  0.3885
 6879TIP3    H244833   5.206   6.604  10.101 -0.0826  0.8617 -0.3050
 6880TIP3   OH244834   1.641   0.275  11.188 -0.1758 -0.3509 -0.3459
 6880TIP3    H144835   1.561   0.224  11.175 -0.3426 -0.8578  2.1721
 6880TIP3    H244836   1.707   0.230  11.135 -1.5576  0.2838 -2.7619
 6881TIP3   OH244837   1.676   1.997  12.978  0.3946  0.5800  0.1852
 6881TIP3    H144838   1.638   1.973  13.063  1.0775  1.5395  0.7849
 6881TIP3    H244839   1.601   2.000  12.918 -0.0531 -0.4386  0.6674
 6882TIP3   OH244840   0.904   0.184  12.200  0.0766 -0.3247  0.1387
 6882TIP3    H144841   0.849   0.262  12.211 -0.9973 -1.3375  2.6124
 6882TIP3    H244842   0.910   0.146  12.288  1.0855 -2.7050 -0.8739
 6883TIP3   OH244843   0.550   3.364  10.440 -0.3965 -0.1323  0.3171
 6883TIP3    H144844   0.478   3.349  10.501 -0.0680  0.9543  1.0012
 6883TIP3    H244845   0.559   3.281  10.392 -2.7879  0.0442 -0.5539
 6884TIP3   OH244846   4.941   1.500  10.661  0.0748 -0.1735 -0.4121
 6884TIP3    H144847   4.876   1.521  10.728 -0.2763 -0.3591 -0.6889
 6884TIP3    H244848   4.927   1.407  10.643 -0.0034 -0.0649 -0.9226
 6885TIP3   OH244849   0.276   3.470  11.416  0.4285 -0.0371  0.3381
 6885TIP3    H144850   0.323   3.499  11.494 -0.8631  0.2070  1.0539
 6885TIP3    H244851   0.231   3.549  11.385 -1.6179 -0.7785  1.2169
 6886TIP3   OH244852   6.042   6.026  12.272  0.4285  0.3416 -0.4859
 6886TIP3    H144853   6.127   6.006  12.233  0.2692 -0.8895 -0.2403
 6886TIP3    H244854   6.035   6.121  12.267  0.4728  0.2880 -3.3823
 6887TIP3   OH244855   6.496   4.522  12.141  0.2130  0.5673 -0.0294
 6887TIP3    H144856   6.587   4.545  12.121  0.9653  0.5064  2.8194
 6887TIP3    H244857   6.475   4.451  12.080  2.1769  0.3805 -0.5623
 6888TIP3   OH244858   6.115   4.361  11.058  0.4132  0.4768 -0.7728
 6888TIP3    H144859   6.155   4.448  11.053  0.5110  0.4691 -0.2123
 6888TIP3    H244860   6.164   4.308  10.995  0.5864  0.7409 -0.8599
 6889TIP3   OH244861   4.677   3.016  11.869 -0.2363 -0.0842 -0.3359
 6889TIP3    H144862   4.678   3.007  11.774  3.2455  0.4911 -0.4847
 6889TIP3    H244863   4.716   2.935  11.902 -0.9615 -0.0756  0.6228
 6890TIP3   OH244864   5.304   5.109  12.026  0.4153 -0.0755 -0.0767
 6890TIP3    H144865   5.330   5.039  12.086  1.2573 -0.3934 -0.7935
 6890TIP3    H244866   5.386   5.149  11.999  0.0758 -0.1372 -1.2458
 6891TIP3   OH244867   7.139   7.054  11.997  0.1699  0.0203  0.3005
 6891TIP3    H144868   7.220   7.047  11.946 -0.9257 -1.4926 -1.3558
 6891TIP3    H244869   7.070   7.034  11.934 -1.6576  2.6038  1.3076
 6892TIP3   OH244870   6.051   1.042  12.764  0.2137 -0.2301 -0.5062
 6892TIP3    H144871   5.971   1.046  12.817 -0.7096 -0.0561 -1.8362
 6892TIP3    H244872   6.086   0.955  12.781 -0.6721 -0.5889 -0.4298
 6893TIP3   OH244873   2.971   6.178  12.625  0.1081 -0.3026  0.2018
 6893TIP3    H144874   2.908   6.107  12.633 -0.7528 -0.1460 -3.5816
 6893TIP3    H244875   2.919   6.258  12.632  0.3638 -0.1123 -0.0240
 6894TIP3   OH244876   5.183   4.631  11.548 -0.7622  0.4069 -0.0626
 6894TIP3    H144877   5.185   4.702  11.484  0.8604 -0.2569 -0.8102
 6894TIP3    H244878   5.259   4.576  11.526 -1.4447 -1.0688  1.0453
 6895TIP3   OH244879   3.404   0.164  11.956  0.6313  0.0523 -0.3615
 6895TIP3    H144880   3.433   0.226  11.889  1.1789  0.9190  0.6483
 6895TIP3    H244881   3.462   0.181  12.030 -0.0812 -0.7684  0.4005
 6896TIP3   OH244882   3.399   7.419  12.113  0.7113 -0.3219  0.1151
 6896TIP3    H144883   3.479   7.453  12.154 -0.2089  1.9575  0.1873
 6896TIP3    H244884   3.397   7.461  12.027 -1.4038  1.3472  0.9027
 6897TIP3   OH244885   0.757   3.121  12.078  0.6396 -0.9299  0.3566
 6897TIP3    H144886   0.706   3.086  12.151  0.3207 -0.1258  0.5259
 6897TIP3    H244887   0.812   3.189  12.117 -0.5762  0.5377 -0.3508
 6898TIP3   OH244888   7.178   2.392  11.641 -0.0449 -0.0174  0.0219
 6898TIP3    H144889   7.199   2.441  11.561 -0.1386  0.3043  0.1900
 6898TIP3    H244890   7.084   2.375  11.633  0.5592 -3.3424 -1.7768
 6899TIP3   OH244891   0.436   3.628  11.852  0.2349  0.3118 -0.1503
 6899TIP3    H144892   0.477   3.713  11.835  0.1997  0.4284  0.3386
 6899TIP3    H244893   0.370   3.619  11.783  1.9603 -0.4800 -1.8086
 6900TIP3   OH244894   6.931   3.450  11.389  0.4323  0.6435 -0.4339
 6900TIP3    H144895   6.900   3.522  11.444  1.1387  1.5911 -1.2319
 6900TIP3    H244896   6.998   3.407  11.442  0.9434  1.4054 -0.4407
 6901TIP3   OH244897   1.920   1.120  13.252  0.6401  0.1182 -0.0865
 6901TIP3    H144898   1.966   1.121  13.168  0.3451 -0.0601 -0.2501
 6901TIP3    H244899   1.985   1.086  13.314  0.7827  0.0298 -0.2840
 6902TIP3   OH244900   0.328   0.711  12.745 -0.3933 -0.1926 -0.2749
 6902TIP3    H144901   0.320   0.764  12.665  3.4991  0.8886 -0.1060
 6902TIP3    H244902   0.376   0.633  12.717  0.8047  0.0831  0.9084
 6903TIP3   OH244903   5.838   4.821  10.779  0.3936  0.5625 -0.1696
 6903TIP3    H144904   5.753   4.793  10.813  0.8814  0.7606  1.3075
 6903TIP3    H244905   5.876   4.742  10.740 -0.7080  0.6203 -1.4118
 6904TIP3   OH244906   6.433   7.662  11.444  0.0807  0.3584  0.4591
 6904TIP3    H144907   6.388   7.746  11.432 -0.6150  0.1359  1.4566
 6904TIP3    H244908   6.501   7.662  11.376  0.4439  1.9622  0.7838
 6905TIP3   OH244909   0.709   5.904  12.665  0.0783  0.1677  0.6017
 6905TIP3    H144910   0.677   5.933  12.751 -2.0722  1.5189 -0.5651
 6905TIP3    H244911   0.796   5.943  12.657 -0.6644  2.0327  1.2133
 6906TIP3   OH244912   0.550   3.625  11.226 -0.2966 -0.8355 -0.0831
 6906TIP3    H144913   0.521   3.614  11.317 -0.6934  3.0421  0.4362
 6906TIP3    H244914   0.470   3.648  11.178  0.2381 -0.6610 -0.9088
 6907TIP3   OH244915   0.652   7.373  11.528  0.1062  0.4516  0.4131
 6907TIP3    H144916   0.731   7.392  11.477 -0.7966  0.8263 -0.8807
 6907TIP3    H244917   0.588   7.438  11.500 -1.1780 -0.8157  0.2560
 6908TIP3   OH244918   3.626   5.016  11.893 -0.0831 -0.2333 -0.2561
 6908TIP3    H144919   3.565   4.983  11.959 -1.1062 -1.2785 -1.6747
 6908TIP3    H244920   3.712   4.987  11.924 -0.6307 -1.4425  0.2062
 6909TIP3   OH244921   0.752   0.479  10.834 -0.0983  0.1410  0.2860
 6909TIP3    H144922   0.664   0.515  10.820  0.4851  0.9684 -1.6293
 6909TIP3    H244923   0.784   0.525  10.912 -1.9124 -1.3608  2.0223
 6910TIP3   OH244924   0.675   5.150  12.735  0.5098  0.4889 -0.1163
 6910TIP3    H144925   0.724   5.145  12.817 -0.0935  1.5794  0.3344
 6910TIP3    H244926   0.609   5.217  12.751 -0.6274 -0.3771 -0.9738
 6911TIP3   OH244927   6.065   7.051  10.698 -0.2040 -0.1766  0.5785
 6911TIP3    H144928   6.098   7.061  10.609 -0.8002 -1.3197  0.2136
 6911TIP3    H244929   6.072   7.139  10.735  1.1086  0.0826 -0.2099
 6912TIP3   OH244930   4.299   2.218  12.660  0.0905  0.4719 -0.4900
 6912TIP3    H144931   4.264   2.267  12.735 -2.2339  0.9842 -1.7966
 6912TIP3    H244932   4.316   2.284  12.594 -1.3462 -0.2376 -1.6371
 6913TIP3   OH244933   0.491   1.192  11.478  0.0735  0.6098  0.2928
 6913TIP3    H144934   0.553   1.127  11.511 -0.2343  1.0439  1.8243
 6913TIP3    H244935   0.463   1.158  11.393  1.3531 -0.2807  0.2018
 6914TIP3   OH244936   2.184   2.709  10.736 -0.1548 -0.3455 -1.0009
 6914TIP3    H144937   2.270   2.667  10.726  0.1779 -0.7146  2.3038
 6914TIP3    H244938   2.124   2.636  10.753 -0.2757  0.1580  0.9603
 6915TIP3   OH244939   4.516   4.608  12.154  0.2708  0.6335  0.0711
 6915TIP3    H144940   4.554   4.570  12.233  0.9277 -0.6144 -0.8182
 6915TIP3    H244941   4.421   4.600  12.167  0.3050 -3.0327 -0.7715
 6916TIP3   OH244942   6.147   1.791  11.701 -0.2649  0.4657  0.4906
 6916TIP3    H144943   6.056   1.768  11.719  0.0012 -0.4216  0.7490
 6916TIP3    H244944   6.161   1.873  11.748 -0.2814 -0.5556  2.3590
 6917TIP3   OH244945   1.968   6.700  10.677 -0.2555 -0.2174 -0.3182
 6917TIP3    H144946   2.047   6.752  10.697  0.3607 -0.4654 -1.9300
 6917TIP3    H244947   1.907   6.764  10.640  0.2417 -0.4655 -1.6387
 6918TIP3   OH244948   0.161   6.008  11.482  0.1750 -0.1341 -0.5794
 6918TIP3    H144949   0.142   5.929  11.533  0.2868  0.0672 -0.2228
 6918TIP3    H244950   0.171   6.077  11.547  0.6518  0.0604 -0.8542
 6919TIP3   OH244951   7.570   3.491  10.544 -0.0545 -0.2117  0.1039
 6919TIP3    H144952   7.530   3.561  10.493 -1.5360 -2.1350 -1.5519
 6919TIP3    H244953   7.561   3.520  10.635 -2.0187  1.0875 -0.4307
 6920TIP3   OH244954   4.274   6.579  12.734  0.2060  0.5966  0.5490
 6920TIP3    H144955   4.224   6.539  12.805  0.7796  0.5990  0.9616
 6920TIP3    H244956   4.359   6.598  12.772  0.3291  1.1458  0.0257
 6921TIP3   OH244957   2.965   6.816  11.374  0.0194  0.5014  0.1469
 6921TIP3    H144958   2.923   6.884  11.320 -0.1519 -0.6628 -1.2603
 6921TIP3    H244959   2.947   6.842  11.464  1.3248  3.1691 -0.2745
 6922TIP3   OH244960   1.301   6.928  12.398  0.1008 -0.2403 -0.1030
 6922TIP3    H144961   1.246   6.897  12.326  1.6265 -1.7577 -0.6768
 6922TIP3    H244962   1.335   7.012  12.368 -1.9577  0.8293  0.3410
 6923TIP3   OH244963   0.400   0.809  11.611 -0.2014  0.0387 -0.4168
 6923TIP3    H144964   0.460   0.852  11.672  0.1794 -0.0644 -0.7168
 6923TIP3    H244965   0.316   0.852  11.626 -0.5768 -1.2400  1.5066
 6924TIP3   OH244966   2.304   1.402  11.617  0.0610 -0.7352  0.3878
 6924TIP3    H144967   2.232   1.428  11.560  2.1830  0.4582 -1.9265
 6924TIP3    H244968   2.292   1.307  11.630 -1.0518 -0.8412 -1.2108
 6925TIP3   OH244969   2.700   5.305  12.751  0.0049  0.1473 -0.3761
 6925TIP3    H144970   2.665   5.390  12.777 -2.5752 -0.0284 -2.7835
 6925TIP3    H244971   2.749   5.322  12.671  0.7799 -0.4460 -0.0434
 6926TIP3   OH244972   4.181   1.991  10.946  0.4128 -0.1014  0.3118
 6926TIP3    H144973   4.209   1.950  10.864  0.0961 -1.1054  0.7004
 6926TIP3    H244974   4.260   2.036  10.978  0.5162  0.3787 -0.5713
 6927TIP3   OH244975   4.411   7.279  11.432  0.3354 -0.2842 -0.1516
 6927TIP3    H144976   4.347   7.336  11.388  1.0952  0.2118 -0.6348
 6927TIP3    H244977   4.459   7.238  11.361  2.3827  1.4251  0.1421
 6928TIP3   OH244978   0.453   2.860  11.465  0.1624 -0.3671  0.5201
 6928TIP3    H144979   0.408   2.790  11.417 -0.9653 -0.3946  1.5615
 6928TIP3    H244980   0.446   2.937  11.408 -2.1298 -0.1139  1.0482
 6929TIP3   OH244981   7.445   0.154  11.156  0.0778 -0.2600  0.2340
 6929TIP3    H144982   7.489   0.132  11.074  0.7328 -0.6010  0.6629
 6929TIP3    H244983   7.489   0.234  11.186  0.6466 -0.7785  0.8240
 6930TIP3   OH244984   3.844   0.300  12.471 -0.0096  0.5073 -0.1812
 6930TIP3    H144985   3.890   0.380  12.497 -0.3214  0.8339 -0.6129
 6930TIP3    H244986   3.841   0.305  12.375 -0.8113  0.4156 -0.1643
 6931TIP3   OH244987   0.198   3.715  12.751 -0.7276 -0.5134 -0.3400
 6931TIP3    H144988   0.161   3.785  12.804 -1.4157 -0.4057 -0.9503
 6931TIP3    H244989   0.162   3.635  12.788 -0.3043 -0.5193  0.0672
 6932TIP3   OH244990   7.268   6.946  11.163  0.1932 -0.0207  0.4309
 6932TIP3    H144991   7.346   6.892  11.161  0.2565  0.0856 -0.8054
 6932TIP3    H244992   7.222   6.926  11.081 -0.1536  1.2281  0.2913
 6933TIP3   OH244993   1.996   6.895  13.311 -0.6091  0.1774  0.5763
 6933TIP3    H144994   2.084   6.875  13.279 -0.5556  0.4642  0.5413
 6933TIP3    H244995   1.980   6.829  13.379 -0.0606  0.5985  1.1233
 6934TIP3   OH244996   2.459   1.279  11.059  0.2978 -0.5234 -0.1581
 6934TIP3    H144997   2.485   1.258  10.970 -0.5005  0.4191 -0.6425
 6934TIP3    H244998   2.408   1.360  11.050  0.2549 -0.3855  1.1573
 6935TIP3   OH244999   0.830   3.833  12.277 -0.6458  0.0309 -0.9344
 6935TIP3    H145000   0.818   3.869  12.365  1.2540 -2.2401  0.3854
 6935TIP3    H245001   0.896   3.889  12.237  0.6158 -0.5706  0.2318
 6936TIP3   OH245002   4.046   2.884  10.956 -0.5633 -0.1984  0.1910
 6936TIP3    H145003   4.139   2.873  10.974 -0.8984  0.5112  2.7106
 6936TIP3    H245004   4.002   2.840  11.028 -2.1562  0.8625 -0.0755
 6937TIP3   OH245005   2.752   5.379  10.911 -0.2260  0.3214  0.1937
 6937TIP3    H145006   2.692   5.428  10.967 -0.3152  1.7575 -1.0851
 6937TIP3    H245007   2.839   5.416  10.930 -0.3087  1.1138 -0.8623
 6938TIP3   OH245008   4.743   5.215  12.437 -0.1637  0.3664 -0.1562
 6938TIP3    H145009   4.732   5.233  12.343  0.0054  1.4354  0.0199
 6938TIP3    H245010   4.712   5.125  12.447 -0.3141  0.2792 -1.2143
 6939TIP3   OH245011   0.484   5.755  12.859  0.0711 -0.2844  0.4276
 6939TIP3    H145012   0.405   5.738  12.911 -0.5668  2.3904  0.4926
 6939TIP3    H245013   0.452   5.771  12.771  0.6615 -0.1155  0.2416
 6940TIP3   OH245014   2.074   0.422  13.359  0.3501 -0.0641  0.0183
 6940TIP3    H145015   2.010   0.369  13.408  0.6695 -0.3686  0.1061
 6940TIP3    H245016   2.132   0.358  13.318  1.1003  0.2223  0.6089
 6941TIP3   OH245017   4.435   7.507  10.369 -0.2133 -0.1137  0.2161
 6941TIP3    H145018   4.518   7.516  10.323 -0.1057 -0.0146  0.4259
 6941TIP3    H245019   4.372   7.481  10.302  0.1094 -0.7757  0.1643
 6942TIP3   OH245020   2.206   1.603  12.502  0.4192 -0.3608 -0.4066
 6942TIP3    H145021   2.275   1.653  12.545 -0.0132  0.2680 -0.4316
 6942TIP3    H245022   2.251   1.528  12.462  0.7022 -1.7779  2.2842
 6943TIP3   OH245023   2.650   2.781  12.503  0.0707  0.0374 -0.3866
 6943TIP3    H145024   2.745   2.787  12.500  0.1143 -0.7707 -1.5900
 6943TIP3    H245025   2.623   2.850  12.563  1.4361 -0.0173  0.3341
 6944TIP3   OH245026   7.044   1.864  12.423 -0.5929  0.2548 -0.5101
 6944TIP3    H145027   7.053   1.817  12.506  0.2515 -0.9244 -1.2353
 6944TIP3    H245028   6.959   1.908  12.429 -0.6267  0.0433  0.8941
 6945TIP3   OH245029   3.314   5.593  10.828 -0.0397 -0.1677 -0.9841
 6945TIP3    H145030   3.379   5.574  10.759 -0.3499  0.3094 -1.4116
 6945TIP3    H245031   3.340   5.679  10.862  0.7370 -0.8473  0.2293
 6946TIP3   OH245032   7.346   2.950  12.284  0.2296  0.3093  0.0525
 6946TIP3    H145033   7.336   3.045  12.280  2.0536  0.5024 -1.1083
 6946TIP3    H245034   7.304   2.925  12.366 -0.4384  2.0910  0.3049
 6947TIP3   OH245035   5.955   5.272  11.526 -0.0187  0.0685  0.0750
 6947TIP3    H145036   5.872   5.315  11.504 -0.1759  0.8953  2.1117
 6947TIP3    H245037   5.953   5.190  11.476 -2.0556  0.0671  0.0747
 6948TIP3   OH245038   1.979   1.373  13.384  0.3888  0.3346  0.5072
 6948TIP3    H145039   1.970   1.455  13.337 -0.5620 -0.1764 -0.2330
 6948TIP3    H245040   2.020   1.313  13.321 -0.5755 -0.2584  0.4244
 6949TIP3   OH245041   2.721   7.334  12.813  0.0028  0.9464 -0.5323
 6949TIP3    H145042   2.815   7.338  12.827  0.0493  2.5047 -1.0239
 6949TIP3    H245043   2.684   7.328  12.901  0.5434  1.2592 -0.2746
 6950TIP3   OH245044   7.632   6.249  12.483  0.0186 -0.1176  0.5174
 6950TIP3    H145045   7.577   6.171  12.487  1.7916 -1.4124  0.6191
 6950TIP3    H245046   7.630   6.284  12.572 -0.1234 -0.5363  0.6819
 6951TIP3   OH245047   2.981   3.758  10.779  0.4336  0.4219 -0.1551
 6951TIP3    H145048   2.891   3.754  10.746  0.7298 -0.3334 -0.9342
 6951TIP3    H245049   2.972   3.769  10.873 -0.5187 -1.2305 -0.0039
 6952TIP3   OH245050   3.337   5.314  12.347 -0.0339 -0.5528 -0.3901
 6952TIP3    H145051   3.282   5.350  12.417  0.5179  0.4024 -0.4348
 6952TIP3    H245052   3.395   5.251  12.391  0.4647  0.2104  0.0580
 6953TIP3   OH245053   3.810   1.057  11.690  0.1860 -0.1671 -0.0256
 6953TIP3    H145054   3.766   1.124  11.637 -0.4672 -0.6328 -0.0831
 6953TIP3    H245055   3.740   1.016  11.740  0.8315  0.4069  1.3842
 6954TIP3   OH245056   2.105   2.261  13.370  0.8682  0.7251  0.5009
 6954TIP3    H145057   2.059   2.197  13.423  0.4070  1.0783  0.5333
 6954TIP3    H245058   2.078   2.346  13.405 -0.8721  1.0327 -1.4220
 6955TIP3   OH245059   6.415   2.154  12.674  0.2262 -0.3995  0.0013
 6955TIP3    H145060   6.457   2.236  12.700 -1.7243  1.0472 -1.2014
 6955TIP3    H245061   6.448   2.137  12.586 -1.2727  0.5446 -0.7972
 6956TIP3   OH245062   6.513   6.699  12.267  0.3646 -0.1938 -0.1516
 6956TIP3    H145063   6.485   6.628  12.325 -0.4631  0.1000 -0.1698
 6956TIP3    H245064   6.489   6.669  12.179 -0.3142  0.2360 -0.1276
 6957TIP3   OH245065   1.568   5.220  10.687  0.0105  0.0472 -0.0188
 6957TIP3    H145066   1.637   5.155  10.701  0.5697  0.6869  0.2644
 6957TIP3    H245067   1.548   5.254  10.774 -1.2507 -0.7023  0.0100
 6958TIP3   OH245068   2.189   2.451  11.422 -0.3563  0.1081  0.1023
 6958TIP3    H145069   2.119   2.440  11.486 -1.0587  1.2877 -0.4377
 6958TIP3    H245070   2.146   2.447  11.337  0.1608  1.1384 -0.2314
 6959TIP3   OH245071   7.237   4.337  12.306 -0.0674 -0.2930  0.1198
 6959TIP3    H145072   7.309   4.287  12.343  0.8528  0.3144 -0.7992
 6959TIP3    H245073   7.274   4.379  12.229 -1.1688  0.7553  0.1326
 6960TIP3   OH245074   5.732   1.137  10.405  0.1233 -0.5212  0.5034
 6960TIP3    H145075   5.685   1.056  10.425 -2.3464  0.2054 -1.7783
 6960TIP3    H245076   5.684   1.205  10.453 -0.1461  0.0289 -0.5161
 6961TIP3   OH245077   6.679   2.523  11.808 -0.5023 -0.2270  0.3262
 6961TIP3    H145078   6.613   2.590  11.788  0.5277  1.2419  1.6066
 6961TIP3    H245079   6.751   2.572  11.848  0.7152 -1.9970  0.3940
 6962TIP3   OH245080   7.105   5.744  12.169  0.3748  0.4939  0.0655
 6962TIP3    H145081   7.118   5.691  12.247 -1.0031  0.9317  0.6297
 6962TIP3    H245082   7.037   5.807  12.194 -0.4255  0.3473 -1.6195
 6963TIP3   OH245083   2.057   1.021  11.576 -0.2870 -0.2543  0.1037
 6963TIP3    H145084   2.019   0.958  11.636 -0.1841 -1.5132 -1.0963
 6963TIP3    H245085   2.029   0.991  11.489  1.6603  0.0146 -0.6612
 6964TIP3   OH245086   1.078   3.595  10.826  0.1267 -0.1278  0.3490
 6964TIP3    H145087   1.164   3.556  10.814  1.0740  1.7647  0.5319
 6964TIP3    H245088   1.094   3.671  10.883 -1.0749  2.1032 -2.0497
 6965TIP3   OH245089   2.463   5.487  12.952 -0.2356 -0.0619 -0.1309
 6965TIP3    H145090   2.535   5.514  12.895 -1.4427  0.5064 -1.4723
 6965TIP3    H245091   2.449   5.562  13.010 -1.4410  1.0000 -1.6707
 6966TIP3   OH245092   5.903   4.098  11.527 -0.5400 -0.1108  0.6441
 6966TIP3    H145093   5.881   4.099  11.434 -1.5752 -0.5944  0.8636
 6966TIP3    H245094   5.818   4.096  11.572 -0.1096  1.3797  1.6366
 6967TIP3   OH245095   7.011   2.488  12.576 -0.0640  0.1340  0.0271
 6967TIP3    H145096   7.073   2.436  12.524 -2.1877 -1.5858 -0.9876
 6967TIP3    H245097   7.009   2.445  12.661  2.1647  1.9338  1.0766
 6968TIP3   OH245098   4.457   1.776  12.930  0.6753 -0.1685 -0.1911
 6968TIP3    H145099   4.427   1.685  12.923  0.2062 -0.0573  0.2508
 6968TIP3    H245100   4.527   1.773  12.995  2.2052 -0.5553 -1.8129
 6969TIP3   OH245101   6.832   0.064  11.292  0.1450  0.0633  0.0170
 6969TIP3    H145102   6.779   0.002  11.242  1.1311  0.4116 -1.5038
 6969TIP3    H245103   6.798   0.150  11.268  1.4366  0.3011 -1.0873
 6970TIP3   OH245104   5.136   4.648  11.010  0.5288  0.3853 -0.1433
 6970TIP3    H145105   5.058   4.703  11.008  1.0985  1.1875 -1.3112
 6970TIP3    H245106   5.132   4.598  10.928  1.1757  0.3257 -0.1386
 6971TIP3   OH245107   5.925   3.358  11.620  0.3920 -0.0389  0.4477
 6971TIP3    H145108   5.854   3.296  11.603  0.5191 -0.2625  0.7310
 6971TIP3    H245109   6.001   3.303  11.641  1.2268  0.1274 -1.9282
 6972TIP3   OH245110   3.437   7.553  11.613 -0.2182 -0.1997 -0.1315
 6972TIP3    H145111   3.449   7.631  11.558  1.0931  1.7534  2.7158
 6972TIP3    H245112   3.504   7.492  11.582  1.2390  1.2778 -0.0682
 6973TIP3   OH245113   6.370   0.492  12.342 -0.1675 -0.7852  0.4355
 6973TIP3    H145114   6.297   0.431  12.351 -0.9128 -0.3252 -1.8716
 6973TIP3    H245115   6.436   0.443  12.292 -1.7288  0.8653 -3.6308
 6974TIP3   OH245116   1.634   3.110  13.111 -0.1844  0.3158  0.0861
 6974TIP3    H145117   1.678   3.139  13.031  0.1941  1.7060  0.7578
 6974TIP3    H245118   1.704   3.071  13.164 -0.7393 -2.2385 -0.9259
 6975TIP3   OH245119   2.316   1.783  11.354 -0.0983 -0.4580 -0.3757
 6975TIP3    H145120   2.235   1.792  11.404  1.4112  2.2306  1.8563
 6975TIP3    H245121   2.297   1.823  11.269 -1.3315 -0.7448 -0.2545
 6976TIP3   OH245122   0.860   5.937  12.270  0.2780 -0.0808 -0.1461
 6976TIP3    H145123   0.847   6.017  12.220  0.3297 -0.4288 -0.7198
 6976TIP3    H245124   0.949   5.945  12.306  1.0468 -0.7394 -1.8024
 6977TIP3   OH245125   2.375   4.817  12.810 -0.8818  0.4196  0.5755
 6977TIP3    H145126   2.459   4.845  12.845 -0.4596  0.8534 -0.7189
 6977TIP3    H245127   2.329   4.777  12.884  0.8817 -0.7934  1.0623
 6978TIP3   OH245128   4.595   5.607  11.518  0.7578 -0.1183 -0.3278
 6978TIP3    H145129   4.600   5.601  11.422  1.5577  1.2875 -0.4000
 6978TIP3    H245130   4.676   5.566  11.548 -0.4375 -2.4798 -0.1059
 6979TIP3   OH245131   4.886   3.578  11.517  0.0433 -0.1032 -0.2214
 6979TIP3    H145132   4.830   3.502  11.532 -1.2083  0.7738 -0.2531
 6979TIP3    H245133   4.871   3.601  11.425  2.1627 -1.1441 -0.8909
 6980TIP3   OH245134   3.515   2.442  12.664  0.3082 -0.0798  0.1890
 6980TIP3    H145135   3.465   2.523  12.652 -0.3229 -0.5127 -0.1736
 6980TIP3    H245136   3.557   2.452  12.749 -0.0551  0.4735  0.3108
 6981TIP3   OH245137   2.642   6.549  12.194  0.5020 -0.4786 -0.3329
 6981TIP3    H145138   2.637   6.475  12.254 -0.5468 -2.2040 -2.4071
 6981TIP3    H245139   2.552   6.564  12.166  0.9203  0.4343 -1.2708
 6982TIP3   OH245140   5.403   4.922  11.524 -0.5849  0.1678 -0.3983
 6982TIP3    H145141   5.360   4.947  11.442 -2.3011  0.6821  0.6091
 6982TIP3    H245142   5.331   4.896  11.581  0.4347  1.1120  1.3859
 6983TIP3   OH245143   3.137   3.188  10.747  0.0397 -0.7235 -0.2441
 6983TIP3    H145144   3.145   3.094  10.729  0.7904 -0.6772 -0.1840
 6983TIP3    H245145   3.051   3.211  10.714 -0.2695 -1.4951 -0.0067
 6984TIP3   OH245146   6.435   5.119  10.864  0.5429  0.6077 -0.2474
 6984TIP3    H145147   6.509   5.178  10.848  1.9304 -1.1576 -0.6742
 6984TIP3    H245148   6.388   5.116  10.781 -0.1000  1.8128  0.0521
 6985TIP3   OH245149   4.305   4.771  11.983  0.1583  0.1636 -0.2408
 6985TIP3    H145150   4.283   4.764  12.076  0.5531  0.9961 -0.0649
 6985TIP3    H245151   4.314   4.681  11.953  0.8288 -0.1149  0.7327
 6986TIP3   OH245152   2.658   4.730  10.963  0.3086 -0.0118 -0.0612
 6986TIP3    H145153   2.672   4.818  10.997  1.2619  0.1337 -0.7777
 6986TIP3    H245154   2.698   4.672  11.028 -0.6678  0.0483  0.6045
 6987TIP3   OH245155   0.176   4.664  12.740  0.1809  0.2215 -0.1644
 6987TIP3    H145156   0.169   4.571  12.760 -0.1842 -0.1053 -1.6565
 6987TIP3    H245157   0.260   4.691  12.776  1.7922 -1.4587 -2.3747
 6988TIP3   OH245158   5.737   0.154  11.549 -0.1241  0.1152 -0.5043
 6988TIP3    H145159   5.818   0.121  11.589 -0.9422  1.0970  2.2286
 6988TIP3    H245160   5.731   0.108  11.465  2.1368 -1.6287  0.1805
 6989TIP3   OH245161   4.110   4.676  11.337 -0.0523 -0.1366  0.2684
 6989TIP3    H145162   4.076   4.601  11.385 -0.4355 -0.2491 -0.1677
 6989TIP3    H245163   4.205   4.664  11.337 -0.1725 -1.3084 -0.8821
 6990TIP3   OH245164   5.561   4.218  11.063  0.0567 -0.2189  0.4459
 6990TIP3    H145165   5.531   4.270  11.139 -0.2123  0.2163  0.0458
 6990TIP3    H245166   5.504   4.141  11.064  0.9818 -0.9229  1.5133
 6991TIP3   OH245167   5.637   0.875  10.507 -0.3126 -0.4997 -0.4005
 6991TIP3    H145168   5.690   0.839  10.578  0.1445 -0.4078 -0.6925
 6991TIP3    H245169   5.546   0.859  10.534 -0.1220 -1.6969 -0.4379
 6992TIP3   OH245170   1.008   5.939  12.673 -0.5556 -0.2491 -0.0624
 6992TIP3    H145171   1.043   5.948  12.584 -2.1994 -0.7549 -0.7953
 6992TIP3    H245172   1.032   5.850  12.699 -0.1816 -0.1439 -0.0448
 6993TIP3   OH245173   1.299   6.383  12.161 -0.1540  0.5282 -0.4652
 6993TIP3    H145174   1.384   6.379  12.203  0.9398 -1.2608 -2.6443
 6993TIP3    H245175   1.274   6.476  12.165  0.1869  0.6094  3.2439
 6994TIP3   OH245176   1.832   5.009  11.508 -0.4570 -0.1775 -0.8884
 6994TIP3    H145177   1.750   4.979  11.547  1.1875 -2.6900  1.0159
 6994TIP3    H245178   1.861   5.080  11.565 -0.7471 -0.0770 -0.8633
 6995TIP3   OH245179   5.291   5.702  12.493 -0.1746 -0.3390  0.1018
 6995TIP3    H145180   5.207   5.689  12.449  0.4544 -1.5677 -0.7920
 6995TIP3    H245181   5.269   5.701  12.586 -1.0586 -1.4938 -0.0921
 6996TIP3   OH245182   6.058   0.325  12.186 -0.0569 -0.5514  0.2992
 6996TIP3    H145183   6.090   0.374  12.263 -0.6926 -0.4437  0.4954
 6996TIP3    H245184   6.038   0.238  12.220 -1.7841 -0.0702  0.5913
 6997TIP3   OH245185   5.969   4.613  11.119  0.4156 -0.3259  0.5766
 6997TIP3    H145186   6.039   4.626  11.054  1.3543  0.4768  1.7090
 6997TIP3    H245187   6.011   4.629  11.203 -1.3917  1.2527  1.2420
 6998TIP3   OH245188   4.460   0.965  13.052  0.0179 -0.6236 -0.2019
 6998TIP3    H145189   4.536   1.021  13.039  0.4532 -0.7130  1.7571
 6998TIP3    H245190   4.487   0.880  13.017  0.7585 -0.6023  0.2904
 6999TIP3   OH245191   0.725   1.622  11.219 -0.4091  0.0126  0.5736
 6999TIP3    H145192   0.701   1.708  11.183  1.0290  0.5296  0.7729
 6999TIP3    H245193   0.740   1.638  11.312 -1.2344 -0.7066  0.8438
 7000TIP3   OH245194   0.679   5.961  12.941 -0.1387 -0.5178 -0.2602
 7000TIP3    H145195   0.619   5.887  12.937  0.3001 -1.2305  2.9877
 7000TIP3    H245196   0.636   6.024  12.999  1.0326  0.1599 -0.0834
 7001TIP3   OH245197   2.811   4.563  11.135  0.2572 -0.2244  0.4150
 7001TIP3    H145198   2.878   4.584  11.199  0.6032  1.1550 -0.3604
 7001TIP3    H245199   2.784   4.474  11.156 -1.1880  0.8429  3.8545
 7002TIP3   OH245200   0.452   3.248  12.286 -0.2712 -0.1756 -0.2702
 7002TIP3    H145201   0.521   3.302  12.247 -0.1756 -0.2164 -0.1552
 7002TIP3    H245202   0.489   3.160  12.291  0.2335  0.0991  1.2067
 7003TIP3   OH245203   7.384   7.608  11.357  0.0107 -0.3587 -0.2350
 7003TIP3    H145204   7.398   7.595  11.451  0.3182  2.1141  0.1200
 7003TIP3    H245205   7.431   7.688  11.337 -0.4720 -0.5747 -2.4190
 7004TIP3   OH245206   5.430   4.542  11.000  0.0242  0.1353 -0.2787
 7004TIP3    H145207   5.424   4.520  11.093 -0.1655  0.2543 -0.2622
 7004TIP3    H245208   5.346   4.583  10.980  0.1948  0.4242 -0.4195
 7005TIP3   OH245209   0.499   4.843  11.221 -0.3132  0.0557 -0.2486
 7005TIP3    H145210   0.493   4.901  11.297 -0.3559 -1.6349  1.1048
 7005TIP3    H245211   0.572   4.878  11.170  0.4607  0.5808  1.1649
 7006TIP3   OH245212   3.010   3.868  11.355  0.7073  0.0567  0.5517
 7006TIP3    H145213   2.965   3.822  11.426  1.7563 -0.8449  0.6679
 7006TIP3    H245214   3.100   3.835  11.359  0.6640 -0.4408 -1.5405
 7007TIP3   OH245215   6.559   0.706  13.122  0.0542 -0.1948  0.1082
 7007TIP3    H145216   6.485   0.765  13.109  0.0768 -0.0497  0.5984
 7007TIP3    H245217   6.636   0.757  13.099  0.1304  0.2043  1.1740
 7008TIP3   OH245218   3.847   0.511  12.881  0.2113 -0.2619  0.1649
 7008TIP3    H145219   3.926   0.457  12.871 -0.1250 -1.1337  1.8766
 7008TIP3    H245220   3.881   0.597  12.909  0.6321 -0.1270 -0.7167
 7009TIP3   OH245221   6.235   3.735  10.179 -0.1378 -0.3254 -1.1398
 7009TIP3    H145222   6.247   3.643  10.204 -1.1639  0.2437  1.8184
 7009TIP3    H245223   6.325   3.769  10.172  0.2347 -1.1243 -0.4460
 7010TIP3   OH245224   5.856   5.661  12.356  0.2188 -0.7731  0.3294
 7010TIP3    H145225   5.848   5.711  12.275 -1.5443  2.0652  2.0481
 7010TIP3    H245226   5.947   5.674  12.384  0.0632  0.7708  0.2298
 7011TIP3   OH245227   3.441   3.474  12.730 -0.6117 -0.5134  0.6884
 7011TIP3    H145228   3.362   3.517  12.698  0.8837  0.9160 -1.3932
 7011TIP3    H245229   3.442   3.491  12.824 -1.8892  0.9558  0.4687
 7012TIP3   OH245230   3.646   4.539  10.666 -0.0729 -0.1097  0.2503
 7012TIP3    H145231   3.636   4.451  10.632  3.0660 -0.2323 -0.7183
 7012TIP3    H245232   3.600   4.595  10.603  1.5385 -0.7593 -1.6040
 7013TIP3   OH245233   7.540   0.805  11.478  0.4054  0.3711 -0.3363
 7013TIP3    H145234   7.502   0.774  11.396 -0.0298 -0.4074  0.1375
 7013TIP3    H245235   7.503   0.892  11.490 -0.2310  0.1366 -0.5371
 7014TIP3   OH245236   0.254   1.173  12.150  0.7008  0.7273  0.1553
 7014TIP3    H145237   0.297   1.127  12.078 -0.6105  1.0158 -0.8483
 7014TIP3    H245238   0.311   1.157  12.226  0.9351 -1.4902 -0.4245
 7015TIP3   OH245239   6.025   3.594  12.614  0.6347 -0.2525  0.1049
 7015TIP3    H145240   6.073   3.514  12.595  1.0602  0.2794 -1.1800
 7015TIP3    H245241   5.936   3.577  12.584  1.1356  0.3306 -1.8792
 7016TIP3   OH245242   4.777   0.822  11.221  0.4855 -0.5165  0.1657
 7016TIP3    H145243   4.729   0.746  11.253 -1.5416  1.0904  1.1602
 7016TIP3    H245244   4.868   0.806  11.247  0.0456 -2.4206  0.6332
 7017TIP3   OH245245   6.338   5.793  11.063  0.0535  0.0715  0.1260
 7017TIP3    H145246   6.248   5.807  11.032  0.4828 -1.7403 -2.2542
 7017TIP3    H245247   6.392   5.807  10.985  1.7247 -0.0683  1.2254
 7018TIP3   OH245248   5.620   7.278  11.508  0.2781  0.0605 -0.0329
 7018TIP3    H145249   5.681   7.227  11.455  1.1511  1.3521 -0.3061
 7018TIP3    H245250   5.615   7.363  11.464  0.8405  1.0904  1.7833
 7019TIP3   OH245251   0.644   5.271  10.807  0.0649 -0.0792 -0.2402
 7019TIP3    H145252   0.696   5.268  10.727 -0.0424  1.2314 -0.3863
 7019TIP3    H245253   0.585   5.195  10.801  0.0573  0.0073 -1.4099
 7020TIP3   OH245254   2.756   3.603  11.018 -0.1445  0.0426  0.4231
 7020TIP3    H145255   2.686   3.562  11.069  0.3488 -1.1480  0.1949
 7020TIP3    H245256   2.801   3.529  10.976  0.5859  0.8630 -0.2783
 7021TIP3   OH245257   5.787   3.493  12.505  0.4716  0.0472  0.2050
 7021TIP3    H145258   5.861   3.459  12.456  0.6069 -0.6454  0.8652
 7021TIP3    H245259   5.735   3.416  12.528  0.6431  0.2965  1.5017
 7022TIP3   OH245260   2.841   1.681  11.498  0.1973 -0.4843  0.1873
 7022TIP3    H145261   2.854   1.588  11.476 -0.2252 -0.4382 -0.2792
 7022TIP3    H245262   2.749   1.686  11.524  0.3432 -0.2794  0.6757
 7023TIP3   OH245263   2.101   6.118  11.655 -0.4215 -0.1409 -0.2488
 7023TIP3    H145264   2.171   6.144  11.715 -0.6784  1.2397 -0.5084
 7023TIP3    H245265   2.145   6.110  11.570  0.0230 -2.5028  0.1530
 7024TIP3   OH245266   0.623   6.971  10.516  0.1526  0.3325  0.0437
 7024TIP3    H145267   0.658   6.924  10.591  0.2324  0.9614  0.4032
 7024TIP3    H245268   0.529   6.954  10.519  0.1736  0.2463  0.2097
 7025TIP3   OH245269   3.885   3.962  12.608 -0.2448  0.4647  1.2877
 7025TIP3    H145270   3.933   3.882  12.587 -0.1612  0.9555 -0.5516
 7025TIP3    H245271   3.818   3.934  12.669 -0.8162 -1.2191 -0.0282
 7026TIP3   OH245272   2.440   4.874  11.365 -0.0788  0.5904  0.5236
 7026TIP3    H145273   2.345   4.875  11.379 -0.0219  1.5814  0.8820
 7026TIP3    H245274   2.451   4.829  11.281 -0.7114 -1.4106  1.4306
 7027TIP3   OH245275   1.965   2.245  12.296 -0.1353  0.1678 -0.4245
 7027TIP3    H145276   1.890   2.301  12.317  0.0216 -0.1461  1.1364
 7027TIP3    H245277   2.011   2.235  12.379 -0.3808 -2.6048 -0.5270
 7028TIP3   OH245278   1.139   0.609  11.455  0.1032 -0.4545  0.0093
 7028TIP3    H145279   1.109   0.625  11.544 -1.8100  0.0739 -0.6706
 7028TIP3    H245280   1.234   0.603  11.462  0.1060  0.8455  1.9004
 7029TIP3   OH245281   2.382   6.631  12.120 -0.3754 -0.8218  0.1060
 7029TIP3    H145282   2.297   6.608  12.159 -0.2009 -0.9506  0.4178
 7029TIP3    H245283   2.362   6.653  12.029 -1.4012  3.1744  1.1089
 7030TIP3   OH245284   3.701   0.116  11.314 -0.0588  0.1798  0.6960
 7030TIP3    H145285   3.763   0.048  11.289 -3.5848 -2.9797 -0.4679
 7030TIP3    H245286   3.691   0.169  11.235 -1.5774 -1.7459 -0.4946
 7031TIP3   OH245287   2.411   5.710  13.121 -0.3741 -0.7000 -0.2552
 7031TIP3    H145288   2.341   5.772  13.102 -0.5611 -1.2694 -1.5311
 7031TIP3    H245289   2.458   5.749  13.195 -2.1761 -0.4446  0.8030
 7032TIP3   OH245290   7.354   1.193  11.131  0.3917  0.3630  0.6165
 7032TIP3    H145291   7.268   1.214  11.094  0.5163 -1.5951 -0.9544
 7032TIP3    H245292   7.346   1.214  11.224 -1.1400  2.0148  0.1668
 7033TIP3   OH245293   0.147   6.385  12.923  0.3164 -0.3952 -0.1372
 7033TIP3    H145294   0.177   6.319  12.985 -0.6177 -0.6026  0.1099
 7033TIP3    H245295   0.200   6.462  12.942 -2.3946  0.8349  3.5381
 7034TIP3   OH245296   3.574   4.008  11.684  0.8734 -0.4399  0.0152
 7034TIP3    H145297   3.522   4.077  11.643  1.2167 -0.3775 -0.3243
 7034TIP3    H245298   3.510   3.941  11.709  0.5311  0.0333  0.4150
 7035TIP3   OH245299   5.911   1.130  11.203 -0.4995 -0.1447 -0.0442
 7035TIP3    H145300   5.992   1.164  11.165 -0.4068 -2.0768 -1.7288
 7035TIP3    H245301   5.925   1.134  11.297 -0.2455  3.7266 -0.0529
 7036TIP3   OH245302   2.694   3.324  11.029 -0.8196  0.0033 -0.3218
 7036TIP3    H145303   2.767   3.267  11.053  0.1652  0.9454 -1.0436
 7036TIP3    H245304   2.636   3.267  10.977 -0.8781 -0.8845  0.6765
 7037TIP3   OH245305   5.032   4.777  10.370 -0.1892 -0.5524 -0.3703
 7037TIP3    H145306   5.095   4.706  10.385 -1.1068 -1.3040  0.0229
 7037TIP3    H245307   5.085   4.857  10.373  0.6955 -1.1409  0.2623
 7038TIP3   OH245308   2.331   6.097  18.115  0.3472  0.5307  0.2308
 7038TIP3    H145309   2.343   6.055  18.200  1.1809  2.0085  0.8720
 7038TIP3    H245310   2.247   6.144  18.123  0.8484  1.3884  0.5643
 7039TIP3   OH245311   5.364   6.948  11.306  0.3051 -0.0564  0.4156
 7039TIP3    H145312   5.276   6.948  11.341  0.8220  2.2637  1.9753
 7039TIP3    H245313   5.354   6.976  11.215 -0.7132 -2.1618 -0.1668
 7040TIP3   OH245314   5.784   1.121  10.948  0.0703 -0.5408  0.1020
 7040TIP3    H145315   5.700   1.080  10.970  1.3176 -2.4999  1.6265
 7040TIP3    H245316   5.830   1.128  11.032  1.7348 -0.2274 -0.7895
 7041TIP3   OH245317   2.513   3.997  11.463  0.3332 -0.7654  0.8581
 7041TIP3    H145318   2.482   3.945  11.536  1.1312 -2.1544  0.2480
 7041TIP3    H245319   2.591   4.041  11.496  0.8658 -1.6245  0.7847
 7042TIP3   OH245320   3.873   5.289  12.736 -0.4117 -0.0144 -0.4896
 7042TIP3    H145321   3.833   5.206  12.710 -0.4099 -0.1481 -0.0762
 7042TIP3    H245322   3.899   5.275  12.827  1.4505 -0.2526 -1.0349
 7043TIP3   OH245323   1.662   0.503  10.736  0.1582  0.0462  0.0345
 7043TIP3    H145324   1.591   0.559  10.765 -0.2641  0.5300 -1.7714
 7043TIP3    H245325   1.619   0.422  10.707  0.5810 -0.5257  0.9756
 7044TIP3   OH245326   3.872   0.310  10.910  0.1134  0.1943  0.5905
 7044TIP3    H145327   3.944   0.366  10.883  0.4628 -0.0667  0.9685
 7044TIP3    H245328   3.913   0.228  10.935 -0.4036 -0.2560 -0.0210
 7045TIP3   OH245329   3.655   4.794  12.567  0.3381 -0.5000 -0.6567
 7045TIP3    H145330   3.613   4.714  12.536 -0.2783 -1.1036  1.5572
 7045TIP3    H245331   3.733   4.764  12.614  0.0587  0.1507  0.2641
 7046TIP3   OH245332   5.184   2.873  13.005 -0.3385  0.1111 -0.1844
 7046TIP3    H145333   5.104   2.830  12.973 -0.1995  0.9872 -1.7785
 7046TIP3    H245334   5.173   2.965  12.982  0.4302  0.5402  1.0647
 7047TIP3   OH245335   0.835   1.483  11.484  0.1233  0.8577  0.0057
 7047TIP3    H145336   0.877   1.409  11.440  1.0202  0.3276  1.6679
 7047TIP3    H245337   0.902   1.518  11.543 -0.7998  1.9810  0.4417
 7048TIP3   OH245338   3.296   2.899  10.742  0.2434  0.5217  0.4609
 7048TIP3    H145339   3.355   2.878  10.670  1.0141  0.6299  1.0489
 7048TIP3    H245340   3.350   2.889  10.821 -0.3297  1.2908  0.9620
 7049TIP3   OH245341   0.755   2.795  10.675  0.5979  0.0139 -0.2401
 7049TIP3    H145342   0.678   2.744  10.650 -0.1695  0.3376  1.2867
 7049TIP3    H245343   0.722   2.855  10.742  2.0856  0.5225  0.0700
 7050TIP3   OH245344   3.519   3.269  12.134 -0.3707 -0.2315  0.0610
 7050TIP3    H145345   3.579   3.338  12.162 -0.9711 -0.3172  1.6635
 7050TIP3    H245346   3.436   3.314  12.119 -0.7953 -0.5848  1.2199
 7051TIP3   OH245347   2.577   5.834  12.917 -0.4223 -0.2802  0.2387
 7051TIP3    H145348   2.547   5.798  13.001 -2.0485 -0.9504 -0.5835
 7051TIP3    H245349   2.612   5.759  12.870  1.8592  0.3395  0.8192
 7052TIP3   OH245350   5.978   1.043  10.393 -0.0928  0.5265  0.4779
 7052TIP3    H145351   6.004   1.041  10.300  0.8773 -0.6247  0.7464
 7052TIP3    H245352   5.887   1.071  10.391 -0.3518 -0.3012 -0.9017
 7053TIP3   OH245353   5.451   6.008  10.829 -0.3116  0.1934 -0.0105
 7053TIP3    H145354   5.384   5.954  10.787  0.3670  0.0539 -0.9393
 7053TIP3    H245355   5.406   6.048  10.904 -1.3960  0.0058 -0.5406
 7054TIP3   OH245356   0.508   0.845  12.521  0.2321 -0.4801  0.0040
 7054TIP3    H145357   0.594   0.848  12.564  0.4861 -1.3411 -0.4102
 7054TIP3    H245358   0.451   0.894  12.580  0.6735 -1.2309  1.1022
 7055TIP3   OH245359   0.442   5.301  12.518  0.3187  0.3583 -0.1570
 7055TIP3    H145360   0.409   5.272  12.433 -0.7204  1.5178 -0.1720
 7055TIP3    H245361   0.396   5.246  12.581  0.2348  0.2751 -0.2900
 7056TIP3   OH245362   2.389   1.964  11.992 -0.0539  0.2164 -0.5431
 7056TIP3    H145363   2.331   1.925  12.057  0.6359 -1.5620 -0.9445
 7056TIP3    H245364   2.459   2.004  12.044 -0.5565  0.5770 -0.1374
 7057TIP3   OH245365   3.593   5.958  11.085 -0.4607  0.4221 -0.0253
 7057TIP3    H145366   3.618   6.007  11.006  0.6752 -1.7044 -1.0879
 7057TIP3    H245367   3.675   5.919  11.115 -1.2594 -0.5760  0.9220
 7058TIP3   OH245368   2.494   4.542  12.012  0.0972  0.0362 -0.3089
 7058TIP3    H145369   2.540   4.577  11.936  0.2484  1.2384  0.3097
 7058TIP3    H245370   2.416   4.597  12.021 -0.6201 -0.9455 -0.3717
 7059TIP3   OH245371   0.381   4.322  11.046 -0.0394  0.2543  0.1162
 7059TIP3    H145372   0.329   4.380  10.990 -2.3634 -0.8132  1.0654
 7059TIP3    H245373   0.444   4.282  10.985 -0.5784  1.2650 -1.1711
 7060TIP3   OH245374   0.460   2.362  11.839  0.1317  0.2456 -0.2956
 7060TIP3    H145375   0.508   2.336  11.760  0.0135  2.3183 -1.1069
 7060TIP3    H245376   0.424   2.280  11.872  2.2353 -1.0449 -0.9765
 7061TIP3   OH245377   5.257   1.213  10.408 -0.1143  0.5713  0.1751
 7061TIP3    H145378   5.246   1.301  10.371 -0.0341  1.1606  1.4976
 7061TIP3    H245379   5.229   1.222  10.499  2.5294 -0.0835  1.1357
 7062TIP3   OH245380   1.391   3.106  12.959  0.7500 -0.9077  0.9343
 7062TIP3    H145381   1.461   3.124  13.022  0.7584 -0.4657  0.8066
 7062TIP3    H245382   1.334   3.044  13.004  0.3414 -0.0226  1.6899
 7063TIP3   OH245383   4.780   5.755  12.014 -0.3937 -0.4551 -0.0058
 7063TIP3    H145384   4.737   5.674  12.043  0.2645 -1.0565 -0.6552
 7063TIP3    H245385   4.872   5.731  12.003 -0.1804  0.3972 -0.1800
 7064TIP3   OH245386   0.415   4.192  11.524 -0.6946  0.0653 -0.3041
 7064TIP3    H145387   0.411   4.232  11.437  0.5456  0.0794 -0.3753
 7064TIP3    H245388   0.331   4.147  11.534 -0.3813 -0.9734 -2.0226
 7065TIP3   OH245389   7.541   1.789  11.829 -0.3500 -0.2100 -1.2838
 7065TIP3    H145390   7.456   1.747  11.819 -1.2261  0.5784  1.6582
 7065TIP3    H245391   7.521   1.876  11.862  1.5697  0.7766 -2.5662
 7066TIP3   OH245392   4.647   4.549  11.428  0.0640 -0.2417  0.3149
 7066TIP3    H145393   4.711   4.592  11.370 -1.4043 -0.0208 -1.1972
 7066TIP3    H245394   4.640   4.609  11.503  0.5263  0.4833 -0.1992
 7067TIP3   OH245395   3.838   4.591  12.231 -0.4541  0.3932  0.2104
 7067TIP3    H145396   3.771   4.660  12.229  1.4698  2.4148  0.6755
 7067TIP3    H245397   3.801   4.523  12.287 -0.9654  2.8511  3.1190
 7068TIP3   OH245398   1.698   5.235  12.023 -0.0514 -0.5209  0.2917
 7068TIP3    H145399   1.769   5.255  12.084  0.4307 -1.6863  0.1401
 7068TIP3    H245400   1.627   5.294  12.048  0.4490 -0.3617  1.3912
 7069TIP3   OH245401   6.060   3.331  10.200 -0.9556  0.1215 -0.1303
 7069TIP3    H145402   6.121   3.345  10.128  0.7682  1.5328  1.5087
 7069TIP3    H245403   5.974   3.356  10.165  0.1533  2.8165 -1.1068
 7070TIP3   OH245404   0.691   5.261  11.072  0.2367 -0.1764  0.0279
 7070TIP3    H145405   0.691   5.262  10.976  1.8769  3.5725 -0.1271
 7070TIP3    H245406   0.601   5.239  11.096  0.1086 -2.6092 -2.2344
 7071TIP3   OH245407   0.714   6.840  11.623 -0.1332 -0.2916 -0.1901
 7071TIP3    H145408   0.735   6.907  11.688  0.0787  1.3730 -1.9224
 7071TIP3    H245409   0.634   6.871  11.581  0.2306 -0.8694 -1.3500
 7072TIP3   OH245410   1.723   1.002  13.082 -0.4519 -0.2114 -0.2116
 7072TIP3    H145411   1.657   1.020  13.149 -0.8322  1.1572 -0.9101
 7072TIP3    H245412   1.800   0.972  13.131 -1.2737 -0.9254  0.6845
 7073TIP3   OH245413   3.591   1.914  10.776 -0.0637  0.0005  0.0431
 7073TIP3    H145414   3.625   1.848  10.837  1.3346  0.2396 -0.4518
 7073TIP3    H245415   3.496   1.899  10.776 -0.0407 -0.4107  1.7877
 7074TIP3   OH245416   6.340   6.505  11.575 -0.4305  0.3006  0.3243
 7074TIP3    H145417   6.430   6.498  11.544 -0.7587 -0.2531 -0.5501
 7074TIP3    H245418   6.343   6.573  11.642  0.7366 -0.0950  0.6982
 7075TIP3   OH245419   1.431   0.023  10.893 -0.2429 -0.0480  0.2415
 7075TIP3    H145420   1.435   0.071  10.976 -1.9975 -0.1970  0.4524
 7075TIP3    H245421   1.458  -0.066  10.916 -1.7481 -0.3614  0.9213
 7076TIP3   OH245422   3.016   7.270  12.800 -0.4291 -0.8269 -0.4005
 7076TIP3    H145423   3.049   7.208  12.735 -0.9853 -0.7433 -0.7692
 7076TIP3    H245424   3.003   7.217  12.879 -0.1223 -1.0062 -0.4671
 7077TIP3   OH245425   5.488   6.077  12.342  0.2258 -0.2713  0.1491
 7077TIP3    H145426   5.552   6.007  12.357  1.4773  0.8372  0.1466
 7077TIP3    H245427   5.536   6.143  12.291 -1.0345  0.4372 -0.1584
 7078TIP3   OH245428   7.053   5.344  11.191 -0.2234  0.2161  0.6184
 7078TIP3    H145429   7.136   5.307  11.222 -0.2759 -1.9489 -1.4627
 7078TIP3    H245430   6.997   5.268  11.175 -2.1297  1.5346  0.6327
 7079TIP3   OH245431   7.079   0.948  12.588  0.0582  0.2815  0.0933
 7079TIP3    H145432   7.090   1.037  12.554 -1.9563  0.1670 -1.0400
 7079TIP3    H245433   7.017   0.958  12.660 -0.4852 -0.2501 -0.2976
 7080TIP3   OH245434   4.680   3.680  11.024  0.2200 -0.2818  0.6931
 7080TIP3    H145435   4.667   3.616  10.954  1.0429  0.0970  0.1746
 7080TIP3    H245436   4.643   3.761  10.989  1.1815  0.0602  0.4255
 7081TIP3   OH245437   1.365   6.072  10.965 -0.1068  0.0380 -0.4643
 7081TIP3    H145438   1.365   6.030  11.051  1.5910  0.7454 -0.0824
 7081TIP3    H245439   1.457   6.092  10.948 -0.1885 -1.2956 -3.0717
 7082TIP3   OH245440   4.782   3.213  10.678  0.3294  0.2349  0.0827
 7082TIP3    H145441   4.793   3.123  10.711 -1.6783  0.7385  2.3625
 7082TIP3    H245442   4.726   3.203  10.601  0.6466 -0.5245 -0.0618
 7083TIP3   OH245443   2.532   3.963  13.195 -0.7379  0.5443 -0.2140
 7083TIP3    H145444   2.497   3.876  13.177  1.4782 -0.6611  0.9288
 7083TIP3    H245445   2.463   4.006  13.245 -1.6529 -0.7467 -0.3073
 7084TIP3   OH245446   0.452   2.001  11.389  0.0261 -0.9077  0.0153
 7084TIP3    H145447   0.357   2.013  11.386  0.1889  0.3634 -0.7487
 7084TIP3    H245448   0.463   1.910  11.415 -1.4330 -1.6032 -1.5319
 7085TIP3   OH245449   1.701   2.150  13.268  0.2387 -0.2353  0.3194
 7085TIP3    H145450   1.726   2.236  13.236  0.9776 -0.2268  0.9074
 7085TIP3    H245451   1.606   2.156  13.281 -0.1230 -0.2432 -1.8585
 7086TIP3   OH245452   7.200   0.945  12.185  0.6045 -0.0518 -0.0182
 7086TIP3    H145453   7.202   0.873  12.121 -1.8169  0.6536 -1.0221
 7086TIP3    H245454   7.246   1.017  12.142 -0.9063  0.3788 -0.9889
 7087TIP3   OH245455   5.126   4.893  11.878 -0.5661 -0.1730 -0.0655
 7087TIP3    H145456   5.058   4.931  11.933 -2.1172 -0.8765 -1.4320
 7087TIP3    H245457   5.189   4.965  11.865 -1.0486  0.5064  1.1644
 7088TIP3   OH245458   4.443   4.923  12.344 -0.5822  0.4913 -0.1871
 7088TIP3    H145459   4.534   4.939  12.369 -0.8472  0.3803  0.8967
 7088TIP3    H245460   4.426   4.833  12.370 -1.4963  1.0381  1.2500
 7089TIP3   OH245461   5.512   1.602  11.246  0.1224 -0.0035 -0.0019
 7089TIP3    H145462   5.516   1.521  11.298 -0.2948  0.2986  0.5152
 7089TIP3    H245463   5.422   1.604  11.212 -0.1303  0.6628  0.6844
 7090TIP3   OH245464   4.287   3.986  11.898 -0.0074  0.0316  0.2072
 7090TIP3    H145465   4.329   3.926  11.836 -0.0360 -1.2488  1.3898
 7090TIP3    H245466   4.222   3.933  11.943  0.5360  0.7310  1.8730
 7091TIP3   OH245467   0.948   1.034  11.129 -0.2678 -0.1953  0.2551
 7091TIP3    H145468   0.966   1.115  11.082 -0.8611 -1.7100 -2.8468
 7091TIP3    H245469   0.868   1.052  11.178 -1.1276  0.7904 -1.4005
 7092TIP3   OH245470   4.464   6.375  10.859  0.1705 -0.2298  0.7239
 7092TIP3    H145471   4.400   6.414  10.799 -1.1381 -0.6284  1.8076
 7092TIP3    H245472   4.509   6.449  10.899 -0.4931  0.0990  0.8642
 7093TIP3   OH245473   5.263   2.890  12.676  0.8019  0.0251 -0.4825
 7093TIP3    H145474   5.224   2.925  12.596  0.7602 -1.4997 -1.1636
 7093TIP3    H245475   5.280   2.967  12.730 -0.1075  0.9991 -1.5313
 7094TIP3   OH245476   3.486   3.122  10.917 -0.3460  0.8664  0.0637
 7094TIP3    H145477   3.419   3.140  10.983 -1.6141 -2.2905 -0.1626
 7094TIP3    H245478   3.483   3.027  10.906  2.5470  0.8742 -1.7382
 7095TIP3   OH245479   3.339   5.441  12.102  0.3426 -0.1055 -0.4325
 7095TIP3    H145480   3.430   5.462  12.080  0.9124 -0.4307  1.4270
 7095TIP3    H245481   3.346   5.383  12.178 -1.3234 -2.9476 -2.2863
 7096TIP3   OH245482   2.427   1.779  12.903  0.5703  0.1924 -0.5482
 7096TIP3    H145483   2.349   1.725  12.900  0.4596  0.2898  0.4464
 7096TIP3    H245484   2.397   1.863  12.937  0.6499  1.0646 -2.4857
 7097TIP3   OH245485   3.812   6.626  10.256 -0.1064 -0.3930  0.2393
 7097TIP3    H145486   3.848   6.659  10.338  0.5564 -0.0859 -0.1687
 7097TIP3    H245487   3.889   6.593  10.208 -0.7634 -3.1720  0.9003
 7098TIP3   OH245488   1.048   0.845  10.932  0.1392 -0.0367  0.0231
 7098TIP3    H145489   1.023   0.756  10.957  0.1131  0.2300  0.9996
 7098TIP3    H245490   1.019   0.899  11.006  0.4425  0.7400 -0.4174
 7099TIP3   OH245491   3.937   6.761  11.015 -0.0569  0.0149  0.0122
 7099TIP3    H145492   4.017   6.724  10.976 -0.1967  0.9090 -1.1808
 7099TIP3    H245493   3.968   6.839  11.061 -0.1067 -0.2186  0.4470
 7100TIP3   OH245494   4.159   5.215  11.063  0.1472 -0.0909 -0.7536
 7100TIP3    H145495   4.153   5.171  10.978 -1.3558  0.6205 -1.0489
 7100TIP3    H245496   4.236   5.272  11.055  0.4694 -0.5937 -1.3522
 7101TIP3   OH245497   1.276   0.086  10.696 -0.1818 -0.4737 -0.5174
 7101TIP3    H145498   1.324   0.060  10.774  1.5968 -1.9463 -2.0266
 7101TIP3    H245499   1.224   0.009  10.672  0.2399 -0.4842 -1.4580
 7102TIP3   OH245500   1.578   7.530  12.409 -0.2489 -0.1909 -0.5686
 7102TIP3    H145501   1.666   7.503  12.381  0.2520  0.5965  0.1903
 7102TIP3    H245502   1.585   7.625  12.420 -0.8714 -0.2584  0.5797
 7103TIP3   OH245503   5.565   6.868  10.451  0.7380  0.4733  0.2421
 7103TIP3    H145504   5.587   6.894  10.540  2.1322 -1.3332  0.4952
 7103TIP3    H245505   5.646   6.882  10.402  0.1978  0.7664 -0.5808
 7104TIP3   OH245506   4.262   2.469  11.465 -0.1538 -0.6078 -0.2074
 7104TIP3    H145507   4.223   2.382  11.470 -1.6865 -0.0358 -1.2851
 7104TIP3    H245508   4.226   2.516  11.540 -2.6643  0.2831 -1.8377
 7105TIP3   OH245509   6.843   5.680  10.320 -0.2814 -0.0314  0.4279
 7105TIP3    H145510   6.891   5.695  10.238  0.6212  0.1101  0.9748
 7105TIP3    H245511   6.818   5.768  10.349 -0.1595 -0.0394  0.5600
 7106TIP3   OH245512   4.899   3.086  11.555 -0.6253 -0.0251  0.0223
 7106TIP3    H145513   4.921   3.112  11.465  1.3938  0.1306  0.5039
 7106TIP3    H245514   4.901   3.168  11.604  1.0350 -0.3998  0.6682
 7107TIP3   OH245515   0.127   0.336  11.070 -0.3525 -0.0587  0.2006
 7107TIP3    H145516   0.125   0.374  10.982 -0.1322  1.1329  0.6915
 7107TIP3    H245517   0.137   0.242  11.055  0.2796  0.1831 -1.0329
 7108TIP3   OH245518   6.672   5.020  10.612  0.2255  0.0560 -0.2848
 7108TIP3    H145519   6.630   5.093  10.656 -0.4771  0.2668 -1.2464
 7108TIP3    H245520   6.763   5.024  10.638  0.5686  2.2750 -1.5586
 7109TIP3   OH245521   3.639   4.931  11.115  0.5558 -0.4868  0.1897
 7109TIP3    H145522   3.579   4.898  11.049  0.0869  0.2704  0.2304
 7109TIP3    H245523   3.724   4.894  11.091  0.1759 -1.1447 -0.1659
 7110TIP3   OH245524   4.226   7.247  10.763 -0.0300 -0.1387  0.3781
 7110TIP3    H145525   4.151   7.260  10.706 -0.5283  0.5200  1.1579
 7110TIP3    H245526   4.262   7.162  10.737  0.1921  0.4550 -1.3724
 7111TIP3   OH245527   4.508   4.309  11.394 -0.0582 -0.0389 -0.5084
 7111TIP3    H145528   4.498   4.312  11.299 -1.3826  0.9250 -0.3645
 7111TIP3    H245529   4.551   4.392  11.416 -1.3328  0.5636 -0.1416
 7112TIP3   OH245530   3.085   6.662  12.730  0.5316 -0.6665  0.0401
 7112TIP3    H145531   3.100   6.737  12.787  0.0837 -1.2169  0.8975
 7112TIP3    H245532   3.006   6.620  12.766  1.0903 -1.8609 -0.0953
 7113TIP3   OH245533   3.586   7.009  12.277 -0.3856 -0.6836 -0.6879
 7113TIP3    H145534   3.537   6.944  12.328 -0.2027  0.0006  0.4065
 7113TIP3    H245535   3.519   7.072  12.249 -0.1013  0.6764  1.4688
 7114TIP3   OH245536   5.012   5.084  12.759  0.3987  0.2329 -0.0030
 7114TIP3    H145537   5.097   5.115  12.788 -0.1135  1.6913  0.0311
 7114TIP3    H245538   4.971   5.161  12.719 -1.6415  0.0896  1.6463
 7115TIP3   OH245539   5.685   0.493  11.350 -0.3724  0.2857 -0.3514
 7115TIP3    H145540   5.635   0.513  11.429  0.4515  0.5789  0.1006
 7115TIP3    H245541   5.708   0.400  11.359 -0.4422  0.2692 -0.3429
 7116TIP3   OH245542   5.796   0.547  10.213  0.2585 -0.2448 -0.4910
 7116TIP3    H145543   5.881   0.588  10.227 -0.0161  1.5342 -3.3514
 7116TIP3    H245544   5.779   0.557  10.120 -1.7265 -3.3723 -0.6068
 7117TIP3   OH245545   5.897   3.114  10.495 -0.2042  0.2283  0.4183
 7117TIP3    H145546   5.983   3.156  10.495  0.9335 -1.9787  1.1615
 7117TIP3    H245547   5.915   3.023  10.473 -2.3135 -0.3917  1.0675
 7118TIP3   OH245548   4.884   1.394  12.384  0.4688 -0.6145  0.0194
 7118TIP3    H145549   4.865   1.300  12.383  2.3737 -1.0813  1.3511
 7118TIP3    H245550   4.979   1.399  12.395  0.3365  1.4681  0.6374
 7119TIP3   OH245551   2.308   7.272  12.317 -0.3441  0.2797  0.4479
 7119TIP3    H145552   2.239   7.323  12.274 -0.0341  1.4708  1.2895
 7119TIP3    H245553   2.364   7.242  12.245 -0.5424  1.1504 -0.0945
 7120TIP3   OH245554   2.598   4.395  11.429 -0.0148  0.7807  0.2714
 7120TIP3    H145555   2.635   4.356  11.350 -1.1629  0.1850  0.0049
 7120TIP3    H245556   2.505   4.373  11.425  0.0136  0.1342  2.1300
 7121TIP3   OH245557   2.333   4.222  11.825 -0.5514  0.0169 -0.0639
 7121TIP3    H145558   2.375   4.218  11.911 -1.4165 -1.0594  0.3330
 7121TIP3    H245559   2.290   4.138  11.816 -0.7467  0.2487 -1.4265
 7122TIP3   OH245560   5.407   5.042  12.593  0.3233  0.3160 -0.0520
 7122TIP3    H145561   5.442   4.970  12.646  0.6897 -0.0942 -0.8309
 7122TIP3    H245562   5.484   5.084  12.556  0.1208  1.2655  0.5844
 7123TIP3   OH245563   5.965   4.631  11.780 -0.0199  0.0203 -0.0794
 7123TIP3    H145564   5.927   4.552  11.818  1.3663 -0.3028  0.7246
 7123TIP3    H245565   6.035   4.655  11.841  0.8835  0.7154 -1.3383
 7124TIP3   OH245566   5.718   2.150  11.207 -0.5131  0.1339 -0.1325
 7124TIP3    H145567   5.741   2.058  11.194  0.1596  0.0507  1.4359
 7124TIP3    H245568   5.800   2.197  11.190 -0.3941  0.2722  0.7938
 7125TIP3   OH245569   3.219   4.884  12.561  0.0174 -0.0557  0.0711
 7125TIP3    H145570   3.284   4.862  12.494  0.9702 -2.5312  1.6250
 7125TIP3    H245571   3.168   4.955  12.524  1.7959  0.0474 -2.4076
 7126TIP3   OH245572   4.280   5.645  11.479 -0.0368  0.3233 -0.0585
 7126TIP3    H145573   4.356   5.647  11.537  0.3030  1.4168 -0.4985
 7126TIP3    H245574   4.294   5.719  11.419 -0.2091 -0.9599 -1.7455
 7127TIP3   OH245575   2.836   1.512  13.171 -0.2648 -0.5993 -0.3651
 7127TIP3    H145576   2.852   1.599  13.206 -2.3799  0.0091 -0.7696
 7127TIP3    H245577   2.784   1.527  13.092  1.0326 -2.1463 -1.6002
 7128TIP3   OH245578   4.934   2.061  13.270  0.0177  0.0524  0.1239
 7128TIP3    H145579   4.843   2.034  13.257  0.0237 -0.2754  0.7326
 7128TIP3    H245580   4.960   2.020  13.353 -0.2912  2.6831  1.6543
 7129TIP3   OH245581   1.917   2.860  11.415  0.0370  0.0337 -0.4700
 7129TIP3    H145582   1.995   2.824  11.457  0.8441  0.8970 -1.2011
 7129TIP3    H245583   1.946   2.941  11.375 -1.1084  0.0873 -1.2453
 7130TIP3   OH245584   0.908   5.231  12.593 -0.1120 -0.3562  0.2286
 7130TIP3    H145585   0.815   5.220  12.615  0.1820 -0.6136  1.4046
 7130TIP3    H245586   0.912   5.317  12.551 -1.0190 -0.7421 -0.7039
 7131TIP3   OH245587   7.137   0.776  12.386  0.2699 -0.1971  0.3694
 7131TIP3    H145588   7.138   0.840  12.457 -0.7229 -0.5329  0.6997
 7131TIP3    H245589   7.144   0.829  12.306  0.3828  0.2585  0.6792
 7132TIP3   OH245590   7.114   4.900  11.036 -0.2200  0.1391 -0.1563
 7132TIP3    H145591   7.090   4.871  11.124  1.8194  2.5255  1.3502
 7132TIP3    H245592   7.044   4.960  11.010 -0.4374  0.0443  0.2035
 7133TIP3   OH245593   2.161   0.170  13.549  0.3366 -0.7163  0.0948
 7133TIP3    H145594   2.226   0.150  13.482  0.6538  0.7223 -0.0597
 7133TIP3    H245595   2.177   0.261  13.572 -1.5730 -0.3321  0.1103
 7134TIP3   OH245596   4.059   2.790  13.570 -0.4574 -0.1052 -0.5612
 7134TIP3    H145597   4.012   2.715  13.533 -1.8436  0.4401  0.0104
 7134TIP3    H245598   4.083   2.760  13.658  1.2683 -0.7684 -1.2274
 7135TIP3   OH245599   2.090   2.710  11.600 -0.2895 -0.3959 -0.4265
 7135TIP3    H145600   2.161   2.703  11.537  0.3739  3.2763 -0.3251
 7135TIP3    H245601   2.133   2.705  11.686 -0.3241  0.2102 -0.3631
 7136TIP3   OH245602   6.989   1.201  12.935  0.3305 -0.0159  0.4674
 7136TIP3    H145603   6.985   1.297  12.930  0.3327 -0.0383 -0.0408
 7136TIP3    H245604   7.013   1.174  12.847  0.7618 -0.4671  0.7171
 7137TIP3   OH245605   2.488   6.157  12.902 -0.2835  0.4955 -0.8176
 7137TIP3    H145606   2.555   6.105  12.946 -1.0218 -1.1537 -1.5316
 7137TIP3    H245607   2.414   6.156  12.963  0.2863  2.3201 -0.0257
 7138TIP3   OH245608   1.080   0.297  10.695 -0.8744 -0.2010  0.5483
 7138TIP3    H145609   1.155   0.242  10.674 -0.7652  0.4986 -0.9533
 7138TIP3    H245610   1.005   0.237  10.690 -0.7438 -0.2662 -0.9795
 7139TIP3   OH245611   5.196   2.365  12.178 -0.1414  0.0642 -0.0141
 7139TIP3    H145612   5.290   2.353  12.164  0.0208  1.5462 -0.4091
 7139TIP3    H245613   5.160   2.378  12.090 -0.4484  1.1345  0.2610
 7140TIP3   OH245614   2.165   5.072  12.414  0.5390 -0.0075 -0.7944
 7140TIP3    H145615   2.234   5.040  12.472  0.3001 -0.6947 -0.8800
 7140TIP3    H245616   2.101   5.001  12.411 -0.9406  1.2093  0.4714
 7141TIP3   OH245617   1.175   5.549  11.515  0.3508  0.3744  0.2630
 7141TIP3    H145618   1.226   5.564  11.595  1.1752  0.6611 -0.3069
 7141TIP3    H245619   1.149   5.457  11.521 -1.8662  1.0225  2.1280
 7142TIP3   OH245620   3.832   2.959  13.478 -0.1563  0.1467  0.1343
 7142TIP3    H145621   3.825   2.893  13.409 -0.0597  0.3377 -0.0581
 7142TIP3    H245622   3.911   2.936  13.526 -0.3290 -0.1016  0.3038
 7143TIP3   OH245623   3.426   0.215  11.665  0.1773 -0.4420  0.3325
 7143TIP3    H145624   3.390   0.151  11.603  0.0655 -1.1237  1.0754
 7143TIP3    H245625   3.417   0.299  11.621  1.3955 -1.0507 -1.1563
 7144TIP3   OH245626   3.168   4.628  10.530 -0.0322 -0.3118 -0.4546
 7144TIP3    H145627   3.155   4.542  10.490 -0.4172 -1.3210  1.6965
 7144TIP3    H245628   3.083   4.672  10.520 -0.9592 -1.5459  1.3827
 7145TIP3   OH245629   3.608   2.067  11.798  0.1218  0.1017 -0.0113
 7145TIP3    H145630   3.662   2.073  11.877 -0.1940  2.2525  0.1225
 7145TIP3    H245631   3.582   1.975  11.793  0.1360 -0.0996  2.4076
 7146TIP3   OH245632   6.654   2.092  11.353 -1.1073 -0.1756 -0.2045
 7146TIP3    H145633   6.568   2.069  11.388 -0.8076 -0.1981  0.5313
 7146TIP3    H245634   6.635   2.138  11.272 -1.7889 -0.9592 -0.5021
 7147TIP3   OH245635   2.194   0.444  13.611 -0.6422 -0.2251 -0.3220
 7147TIP3    H145636   2.179   0.480  13.524  0.9099 -2.0776 -1.4418
 7147TIP3    H245637   2.213   0.520  13.666  1.9153  0.7688 -2.4150
 7148TIP3   OH245638   6.671   3.999  11.700 -0.1111 -0.1877  0.1839
 7148TIP3    H145639   6.749   3.983  11.647  0.0637 -0.0953  0.4139
 7148TIP3    H245640   6.641   3.912  11.727  0.3128 -0.1853  0.6721
 7149TIP3   OH245641   5.877   5.478  11.773 -0.0520  0.0659 -0.2509
 7149TIP3    H145642   5.840   5.390  11.770  0.0417  0.0531 -1.1767
 7149TIP3    H245643   5.969   5.466  11.749  0.2212  0.2916  0.6238
 7150TIP3   OH245644   4.461   6.109  12.016  0.2418 -0.2048  0.3112
 7150TIP3    H145645   4.441   6.022  11.982 -1.6246  0.5811 -0.7966
 7150TIP3    H245646   4.494   6.093  12.104 -1.6395 -1.9740  0.7814
 7151TIP3   OH245647   3.354   6.535  13.132  0.6863  0.1699 -0.2898
 7151TIP3    H145648   3.446   6.538  13.159 -0.1103  2.6643  2.7549
 7151TIP3    H245649   3.343   6.607  13.071  0.7035  0.0263 -0.4628
 7152TIP3   OH245650   3.464   4.700  10.542  0.0825 -0.1149 -0.7463
 7152TIP3    H145651   3.504   4.787  10.533  0.1937  0.0459  0.9172
 7152TIP3    H245652   3.377   4.710  10.504 -0.4379  1.1600  0.6837
 7153TIP3   OH245653   1.650   7.651  11.379 -0.3036 -0.5553 -0.2131
 7153TIP3    H145654   1.608   7.675  11.296 -2.1866 -1.0404  0.5494
 7153TIP3    H245655   1.629   7.559  11.391  1.5411 -0.9870 -0.0661
 7154TIP3   OH245656   6.343   4.226  10.897 -0.0671 -0.4925 -0.3634
 7154TIP3    H145657   6.300   4.235  10.812 -0.0326 -1.7442 -0.5342
 7154TIP3    H245658   6.349   4.131  10.911  1.9702 -0.3573 -0.0171
 7155TIP3   OH245659   3.664   2.411  13.017  0.9111  0.1786  0.2890
 7155TIP3    H145660   3.721   2.454  13.081  0.7391  1.6087 -0.4824
 7155TIP3    H245661   3.594   2.473  13.002  0.3313 -0.6299 -0.4453
 7156TIP3   OH245662   3.622   0.799  11.461  0.3758 -0.1870  0.1579
 7156TIP3    H145663   3.642   0.797  11.368  1.7983 -0.4544  0.4441
 7156TIP3    H245664   3.575   0.881  11.474  2.8720  1.4320 -0.3120
 7157TIP3   OH245665   4.206   3.072  10.583  0.0315  0.2854 -0.0956
 7157TIP3    H145666   4.263   3.124  10.526  0.0235 -2.3993 -2.8053
 7157TIP3    H245667   4.254   3.065  10.665  1.6290  1.5654 -0.8617
 7158TIP3   OH245668   5.155   6.747  12.833 -0.1047 -0.2972 -0.2957
 7158TIP3    H145669   5.168   6.664  12.878  2.9860 -0.5837 -1.4464
 7158TIP3    H245670   5.113   6.804  12.897 -0.2248 -2.0684  1.2689
 7159TIP3   OH245671   0.881   4.203  10.806  0.0525  0.6500 -0.2568
 7159TIP3    H145672   0.901   4.113  10.780 -0.7746  0.3814  0.0006
 7159TIP3    H245673   0.786   4.205  10.815  0.1301  1.3245  0.5695
 7160TIP3   OH245674   3.976   5.366  11.991 -0.0413  0.2520 -0.0232
 7160TIP3    H145675   3.908   5.343  12.055 -1.2415  1.3515 -0.8484
 7160TIP3    H245676   3.945   5.447  11.951  2.7161  1.8946  0.8921
 7161TIP3   OH245677   3.794   2.898  12.827  0.0326  0.2566 -0.5639
 7161TIP3    H145678   3.780   2.967  12.762 -1.1910 -0.1705 -0.7692
 7161TIP3    H245679   3.728   2.832  12.808  0.0277 -0.1541  0.7511
 7162TIP3   OH245680   5.580   2.755  10.816 -0.2712 -0.0180  0.2145
 7162TIP3    H145681   5.642   2.758  10.743  0.6950 -0.4592  0.9905
 7162TIP3    H245682   5.603   2.830  10.870  0.5529 -0.9747  1.2405
 7163TIP3   OH245683   3.736   7.011  11.220 -0.3335  0.5032  0.0742
 7163TIP3    H145684   3.762   7.084  11.276 -1.4781  1.3169 -0.4043
 7163TIP3    H245685   3.664   6.968  11.267  0.0413 -0.0558  0.1483
 7164TIP3   OH245686   0.057   6.358  10.709  0.0360  0.4509 -0.3370
 7164TIP3    H145687  -0.018   6.402  10.749 -0.6633 -0.4694 -0.6111
 7164TIP3    H245688   0.060   6.391  10.620 -0.7096 -0.3185 -0.6524
 7165TIP3   OH245689   1.233   4.645  11.746  0.0642  0.4025  0.2833
 7165TIP3    H145690   1.194   4.599  11.821  0.5170 -2.4133 -1.0739
 7165TIP3    H245691   1.245   4.577  11.680  1.5658  2.3858 -1.6344
 7166TIP3   OH245692   6.526   3.159  10.973 -0.6298 -0.1116  0.1130
 7166TIP3    H145693   6.447   3.132  11.020 -1.0911  0.6272 -0.2079
 7166TIP3    H245694   6.597   3.112  11.016 -1.4190 -2.2539 -0.7651
 7167TIP3   OH245695   3.923   3.623  11.608  0.2281 -0.1797  0.6913
 7167TIP3    H145696   3.967   3.672  11.678  0.5483 -0.4120  0.6541
 7167TIP3    H245697   3.831   3.625  11.632  0.5051 -1.7770  2.0843
 7168TIP3   OH245698   7.494   0.218  10.459  0.7331  0.1218 -0.1702
 7168TIP3    H145699   7.406   0.190  10.486  0.4290  1.5292  0.3763
 7168TIP3    H245700   7.536   0.138  10.430 -0.6713 -0.6202 -0.2611
 7169TIP3   OH245701   3.894   4.006  12.325 -0.4676 -0.0652 -0.3923
 7169TIP3    H145702   3.882   3.983  12.417 -1.3075  0.2982 -0.4027
 7169TIP3    H245703   3.885   4.101  12.322 -3.7936 -0.2661 -1.2741
 7170TIP3   OH245704   0.315   7.482  11.069 -0.4765 -0.2939 -0.3371
 7170TIP3    H145705   0.351   7.425  11.137  2.9034  0.2884 -1.4428
 7170TIP3    H245706   0.257   7.426  11.018  1.2639 -2.2991 -0.2686
 7171TIP3   OH245707   0.652   6.117  12.446  0.0689 -0.1973 -0.5461
 7171TIP3    H145708   0.733   6.120  12.396  0.6389  0.0039  0.3663
 7171TIP3    H245709   0.633   6.024  12.456  1.4216 -0.3436  1.1456
 7172TIP3   OH245710   4.925   2.627  10.151  0.3224  0.3259 -0.1088
 7172TIP3    H145711   4.920   2.668  10.237 -1.7812  0.5693 -0.2745
 7172TIP3    H245712   4.857   2.672  10.100 -0.6120 -1.9042 -0.9385
 7173TIP3   OH245713   5.525   4.429  11.264  0.1766 -0.1416 -0.3426
 7173TIP3    H145714   5.456   4.453  11.325  0.5750 -2.4718  1.1779
 7173TIP3    H245715   5.605   4.465  11.302 -0.1218  3.3057 -2.5402
 7174TIP3   OH245716   5.430   3.155  10.187  0.1288 -0.5137 -0.6043
 7174TIP3    H145717   5.348   3.136  10.232 -0.7167  2.7787 -0.4457
 7174TIP3    H245718   5.419   3.118  10.099 -0.8441 -1.4917 -0.0836
 7175TIP3   OH245719   3.264   3.748  11.443 -0.2248 -0.1688  0.0145
 7175TIP3    H145720   3.318   3.819  11.407 -0.8342  0.8507  1.0817
 7175TIP3    H245721   3.308   3.668  11.412  0.4438  0.6486 -1.2534
 7176TIP3   OH245722   5.211   3.598  12.834  0.0711  0.0506 -0.3538
 7176TIP3    H145723   5.283   3.600  12.897  1.4054 -3.1626 -1.5880
 7176TIP3    H245724   5.221   3.678  12.783  1.1029  0.9537  1.1631
 7177TIP3   OH245725   3.650   5.239  12.420 -0.2219 -0.0338  0.1907
 7177TIP3    H145726   3.728   5.187  12.437  0.3567  1.0834  1.0326
 7177TIP3    H245727   3.577   5.181  12.443  0.2729 -1.4118 -1.4583
 7178TIP3   OH245728   4.184   7.169  11.026 -0.4646  0.3260  0.2060
 7178TIP3    H145729   4.251   7.207  10.969  0.4564 -1.7786 -0.2303
 7178TIP3    H245730   4.126   7.121  10.966  0.5877 -2.0225  0.9513
 7179TIP3   OH245731   6.800   4.486  12.255  0.4282 -0.1065 -0.5796
 7179TIP3    H145732   6.800   4.580  12.268 -1.7221  0.2961 -2.6800
 7179TIP3    H245733   6.747   4.451  12.327 -0.2573  0.5129 -0.7735
 7180TIP3   OH245734   7.596   6.071  10.909  0.9571 -0.2607  0.2490
 7180TIP3    H145735   7.660   6.031  10.968 -0.6019 -0.3814  1.9222
 7180TIP3    H245736   7.578   6.004  10.844 -0.0648 -1.5903  1.8200
 7181TIP3   OH245737   0.203   5.858  12.399  0.2496 -0.0533  0.3466
 7181TIP3    H145738   0.123   5.884  12.352 -0.3917  0.5209  1.6860
 7181TIP3    H245739   0.206   5.763  12.389  0.1453  0.0548 -0.8551
 7182TIP3   OH245740   5.751   7.432  12.248 -0.3305  0.0854 -0.2834
 7182TIP3    H145741   5.664   7.408  12.216 -1.9685  1.8182  2.4197
 7182TIP3    H245742   5.749   7.411  12.342  0.7366  3.4708  0.6622
 7183TIP3   OH245743   2.639   2.188  11.342 -0.0883 -0.3281 -0.4975
 7183TIP3    H145744   2.550   2.183  11.377 -0.4270 -0.5453 -1.3835
 7183TIP3    H245745   2.683   2.112  11.379  0.1031  0.4520  0.9460
 7184TIP3   OH245746   2.349   3.897  10.798 -0.2331  0.3298 -0.2236
 7184TIP3    H145747   2.319   3.965  10.859 -0.3379 -1.2265  1.5698
 7184TIP3    H245748   2.273   3.839  10.788 -0.0279  0.2444 -1.3930
 7185TIP3   OH245749   6.200   5.971  10.744  0.1481 -0.0149 -0.4751
 7185TIP3    H145750   6.206   6.020  10.826 -0.5803 -1.6749  0.6439
 7185TIP3    H245751   6.117   6.000  10.705 -0.0588 -0.0306 -0.0527
 7186TIP3   OH245752   1.537   5.978  13.522  0.1460 -0.2391 -0.4341
 7186TIP3    H145753   1.631   5.992  13.533 -0.2082  2.0519  0.1849
 7186TIP3    H245754   1.512   5.923  13.596  0.6620  0.9156  0.6279
 7187TIP3   OH245755   3.688   7.346  12.674 -0.0286 -0.5739 -0.1033
 7187TIP3    H145756   3.631   7.361  12.599  1.0137 -0.7556 -0.9589
 7187TIP3    H245757   3.629   7.313  12.743 -1.2462  1.0740 -0.3107
 7188TIP3   OH245758   1.168   1.852  11.735 -0.1687  0.6306  0.2638
 7188TIP3    H145759   1.251   1.808  11.753 -0.5603  0.2927  1.3678
 7188TIP3    H245760   1.133   1.872  11.822 -1.5668  0.1343 -0.1652
 7189TIP3   OH245761   3.594   0.954  11.815 -0.4985  0.3001 -0.6049
 7189TIP3    H145762   3.623   0.894  11.883 -0.3343  0.3347 -0.6421
 7189TIP3    H245763   3.511   0.919  11.785 -1.3537  1.1415  0.6871
 7190TIP3   OH245764   1.142   1.225  12.379 -0.0855 -0.2459 -0.1400
 7190TIP3    H145765   1.074   1.280  12.417 -1.7416 -2.9036  1.0180
 7190TIP3    H245766   1.103   1.193  12.297  0.1566 -0.9906  0.0306
 7191TIP3   OH245767   5.041   2.632  10.707 -0.5873 -0.2262 -0.3109
 7191TIP3    H145768   5.118   2.600  10.659  0.0749  0.2476  0.4140
 7191TIP3    H245769   4.973   2.641  10.640  0.0860 -0.3375 -1.0220
 7192TIP3   OH245770   0.026   2.175  13.100  0.0086  0.7625 -0.5130
 7192TIP3    H145771   0.046   2.096  13.149 -2.4214  0.1354 -0.4181
 7192TIP3    H245772   0.086   2.174  13.026 -0.7859 -1.8621 -1.2136
 7193TIP3   OH245773   6.220   4.353  12.532  0.1438  0.4191  0.4633
 7193TIP3    H145774   6.291   4.381  12.474 -0.1746 -0.1480 -0.2067
 7193TIP3    H245775   6.145   4.407  12.506  0.2395  0.8200  0.9844
 7194TIP3   OH245776   1.836   0.720  10.828  0.1890 -0.9326  0.2690
 7194TIP3    H145777   1.790   0.795  10.865  2.2509  0.5021  0.1009
 7194TIP3    H245778   1.767   0.657  10.809 -1.6297  0.8491  0.5525
 7195TIP3   OH245779   0.354   6.696  11.714  0.0367 -0.1537  0.0175
 7195TIP3    H145780   0.434   6.648  11.736 -0.2833  0.4188  2.9234
 7195TIP3    H245781   0.293   6.630  11.684  0.0931 -1.4411  2.4568
 7196TIP3   OH245782   3.597   1.784  11.012 -0.3034 -0.0717  0.3727
 7196TIP3    H145783   3.612   1.703  11.060 -0.5210  0.0850  0.7109
 7196TIP3    H245784   3.626   1.853  11.071 -0.8539  0.1383  0.4051
 7197TIP3   OH245785   4.335   4.666  11.048  0.0993  0.3698 -0.0917
 7197TIP3    H145786   4.377   4.675  11.134  0.4496  0.2902 -0.2522
 7197TIP3    H245787   4.403   4.628  10.993  0.3690  1.8510 -0.7996
 7198TIP3   OH245788   5.287   5.770  12.794 -0.0272  0.1224  1.3601
 7198TIP3    H145789   5.288   5.836  12.863  1.5354  1.7564 -0.1041
 7198TIP3    H245790   5.377   5.739  12.789 -0.6386 -1.8286  1.6831
 7199TIP3   OH245791   7.347   2.657  13.144  0.4057 -0.0344 -0.3929
 7199TIP3    H145792   7.383   2.569  13.154  2.6711  0.9809  1.1873
 7199TIP3    H245793   7.264   2.643  13.099  0.3281 -3.0403  0.4257
 7200TIP3   OH245794   7.177   5.596  11.240 -0.2471 -0.6403  0.0085
 7200TIP3    H145795   7.229   5.575  11.164  1.8870 -1.3311  1.5759
 7200TIP3    H245796   7.130   5.516  11.261  0.4311 -0.9547  0.3516
 7201TIP3   OH245797   4.207   1.059  11.411 -0.1012 -0.0344 -0.0730
 7201TIP3    H145798   4.158   1.004  11.472  2.6879 -0.8910  1.5851
 7201TIP3    H245799   4.298   1.030  11.420  0.7597  1.2900 -3.1292
 7202TIP3   OH245800   5.500   3.596  10.553  0.6738  0.3582 -0.2265
 7202TIP3    H145801   5.557   3.644  10.613  0.0643  0.5016  0.2528
 7202TIP3    H245802   5.540   3.510  10.546  2.0957  1.0798 -1.5397
 7203TIP3   OH245803   5.094   3.466  10.752 -0.5179  0.4843  0.2323
 7203TIP3    H145804   5.090   3.380  10.710 -0.1913 -0.1792  1.5086
 7203TIP3    H245805   5.187   3.482  10.767 -0.5644  1.1336 -0.1322
 7204TIP3   OH245806   3.629   1.510  11.510 -0.8476 -0.0743 -0.3166
 7204TIP3    H145807   3.715   1.473  11.489 -0.5377 -0.4074  1.4375
 7204TIP3    H245808   3.607   1.561  11.432  0.9095 -0.0157 -0.8416
 7205TIP3   OH245809   6.335   5.093  10.606 -0.1991  0.0376  0.3515
 7205TIP3    H145810   6.281   5.022  10.572 -0.1924  0.5697 -0.8268
 7205TIP3    H245811   6.336   5.158  10.536 -0.2837  1.2538  1.4477
 7206TIP3   OH245812   6.634   5.818  11.513  0.4618  0.2508  0.3643
 7206TIP3    H145813   6.597   5.851  11.431  2.3617 -0.5007 -0.8849
 7206TIP3    H245814   6.560   5.810  11.572 -1.0248  0.5476 -1.3854
 7207TIP3   OH245815   3.864   7.207  11.382  0.0494  0.3452 -0.0865
 7207TIP3    H145816   3.874   7.299  11.360 -1.7791  0.7595  0.6053
 7207TIP3    H245817   3.804   7.206  11.456  0.8650 -1.3635  0.6172
 7208TIP3   OH245818   1.393   0.704  12.515 -0.0041 -0.7555 -0.3562
 7208TIP3    H145819   1.345   0.642  12.570  1.9836 -2.0878 -0.0292
 7208TIP3    H245820   1.399   0.661  12.430 -0.6951  0.1073 -0.8691
 7209TIP3   OH245821   1.269   0.841  11.154 -0.3670 -0.3033  0.1387
 7209TIP3    H145822   1.326   0.768  11.179  1.9158  1.6800  1.1133
 7209TIP3    H245823   1.313   0.881  11.079  0.3719  2.0799  1.7396
 7210TIP3   OH245824   4.812   3.636  12.241  0.2758 -0.0298  0.5284
 7210TIP3    H145825   4.807   3.731  12.244 -0.1855 -0.0721  1.3151
 7210TIP3    H245826   4.741   3.606  12.297  0.0468 -0.8517 -0.1778
 7211TIP3   OH245827   1.406   5.385  13.078  0.4374 -0.3139  0.6356
 7211TIP3    H145828   1.334   5.331  13.112  0.1770 -0.6904 -0.4610
 7211TIP3    H245829   1.447   5.330  13.011  1.1505  0.2630  0.5926
 7212TIP3   OH245830   2.157   4.265  12.101  0.1063  0.6242  0.3107
 7212TIP3    H145831   2.165   4.300  12.012 -1.0446  1.1005  0.3817
 7212TIP3    H245832   2.160   4.342  12.157  2.0363  0.2520  0.8120
 7213TIP3   OH245833   1.600   4.461  12.164  0.5248  0.4592  0.1647
 7213TIP3    H145834   1.687   4.422  12.175  0.3574 -0.0664 -0.3222
 7213TIP3    H245835   1.601   4.500  12.077 -0.1086 -0.6027 -0.3485
 7214TIP3   OH245836   0.532   7.131  11.449 -0.4571 -0.3747 -0.3851
 7214TIP3    H145837   0.528   7.219  11.485  0.7568  0.2705 -1.6985
 7214TIP3    H245838   0.516   7.073  11.523  0.1815  0.9178  0.8039
 7215TIP3   OH245839   1.237   6.265  12.395 -0.2017  0.5502  0.5353
 7215TIP3    H145840   1.233   6.314  12.312  2.4086  0.6187  0.3784
 7215TIP3    H245841   1.258   6.330  12.461  2.5265 -0.1429  0.4480
 7216TIP3   OH245842   6.807   6.533  13.605  0.9813 -0.6715  0.1586
 7216TIP3    H145843   6.715   6.557  13.617  0.8474 -1.3578  0.5528
 7216TIP3    H245844   6.804   6.454  13.550  1.4361  0.4521 -1.5355
 7217TIP3   OH245845   0.844   5.704  11.299  0.3567 -0.2015 -0.1552
 7217TIP3    H145846   0.821   5.692  11.391 -0.3881  1.5345 -0.0681
 7217TIP3    H245847   0.801   5.631  11.254  1.5810 -1.6680  0.9382
 7218TIP3   OH245848   0.394   0.642  12.361 -0.1445  0.6485 -0.0202
 7218TIP3    H145849   0.407   0.578  12.430 -0.3275  0.9923  0.3367
 7218TIP3    H245850   0.430   0.724  12.396  1.1442  0.4984 -0.9076
 7219TIP3   OH245851   7.142   6.193  12.902 -0.0341  0.0772 -0.3520
 7219TIP3    H145852   7.236   6.191  12.920 -0.4492  0.4104  2.1858
 7219TIP3    H245853   7.132   6.258  12.833  1.6015 -0.0906 -0.7823
 7220TIP3   OH245854   4.552   4.587  10.870  0.0159  0.5519 -0.1084
 7220TIP3    H145855   4.524   4.567  10.781  2.3743 -1.3613 -0.5085
 7220TIP3    H245856   4.648   4.590  10.865  0.1421  2.8191  1.9195
 7221TIP3   OH245857   3.263   7.377  10.744  0.2015 -0.1467  0.2299
 7221TIP3    H145858   3.312   7.296  10.730 -0.5426 -0.8510  1.4580
 7221TIP3    H245859   3.172   7.353  10.730  0.0732  0.8422 -0.7847
 7222TIP3   OH245860   5.046   5.640  12.005  0.3756  0.2247 -0.0258
 7222TIP3    H145861   5.075   5.552  12.030  0.7692  0.3939  0.1291
 7222TIP3    H245862   5.112   5.699  12.043  0.0976  0.5882 -0.0987
 7223TIP3   OH245863   1.425   5.869  11.681  0.0829 -0.4343 -0.2052
 7223TIP3    H145864   1.366   5.937  11.714  0.0112 -0.6705  0.1527
 7223TIP3    H245865   1.391   5.849  11.593  0.2626  0.1786 -0.4208
 7224TIP3   OH245866   7.052   4.704  10.547 -0.0374  0.0561 -0.4435
 7224TIP3    H145867   6.994   4.758  10.494  0.2859  1.1204  0.2441
 7224TIP3    H245868   7.129   4.759  10.561  1.8222 -1.8171 -2.5201
 7225TIP3   OH245869   0.425   0.476  11.847  0.3315 -0.0734  0.3766
 7225TIP3    H145870   0.489   0.405  11.850  0.8922  0.4228  0.2877
 7225TIP3    H245871   0.470   0.551  11.887 -1.1300 -0.4341  2.9334
 7226TIP3   OH245872   3.789   3.603  11.049  0.2368 -0.3288 -0.3212
 7226TIP3    H145873   3.709   3.605  10.996  0.1667 -0.3474 -0.2160
 7226TIP3    H245874   3.857   3.572  10.989  0.1386 -0.4420 -0.3742
 7227TIP3   OH245875   4.944   0.442  11.008 -0.1919 -0.2910 -0.7443
 7227TIP3    H145876   5.019   0.383  11.012  0.3859  0.4907  0.8619
 7227TIP3    H245877   4.888   0.413  11.080 -0.6978  0.0878 -0.9806
 7228TIP3   OH245878   7.443   3.877  12.363  0.0346  0.2152  0.2898
 7228TIP3    H145879   7.390   3.885  12.283  2.3109  0.1417 -1.3353
 7228TIP3    H245880   7.447   3.966  12.398  0.0392  0.5001 -0.4096
 7229TIP3   OH245881   4.548   6.290  12.740 -0.5042  0.6459 -0.5838
 7229TIP3    H145882   4.490   6.338  12.799 -1.2269 -0.5674 -0.2785
 7229TIP3    H245883   4.629   6.342  12.738 -0.5419  0.8380  1.2813
 7230TIP3   OH245884   5.334   3.097  12.820 -0.0372 -0.5870 -0.2726
 7230TIP3    H145885   5.264   3.097  12.886 -0.3294  1.0888 -0.5536
 7230TIP3    H245886   5.364   3.188  12.817  2.8154 -1.3955  0.5093
 7231TIP3   OH245887   2.888   2.784  13.315  0.4881 -0.2217  0.0594
 7231TIP3    H145888   2.882   2.789  13.411 -2.0113  0.1338 -0.0466
 7231TIP3    H245889   2.908   2.693  13.297 -0.8562 -0.7087  0.9027
 7232TIP3   OH245890   2.078   1.785  12.263 -0.1605 -0.0101  0.5451
 7232TIP3    H145891   2.150   1.764  12.203  1.0573  2.6814  0.8872
 7232TIP3    H245892   2.120   1.790  12.349 -0.7869  1.2415  0.8037
 7233TIP3   OH245893   6.891   3.767  12.498  0.2010  0.8693 -0.3999
 7233TIP3    H145894   6.833   3.821  12.552 -0.6396  0.9974 -1.4076
 7233TIP3    H245895   6.923   3.699  12.557 -1.7394  0.2098 -0.0456
 7234TIP3   OH245896   5.238   1.571  12.204 -0.1439 -0.3028 -0.1968
 7234TIP3    H145897   5.242   1.524  12.287 -0.1606  0.8623  0.4879
 7234TIP3    H245898   5.147   1.561  12.175  0.1940 -1.9097 -0.8257
 7235TIP3   OH245899   7.507   0.842  10.561 -0.0995 -0.8637  0.2794
 7235TIP3    H145900   7.475   0.878  10.478 -0.9663 -1.7489  0.2131
 7235TIP3    H245901   7.461   0.893  10.628  1.0775  0.2829  0.2474
 7236TIP3   OH245902   5.907   2.438  11.494 -0.0103  0.7483 -0.1180
 7236TIP3    H145903   5.975   2.505  11.501 -0.1511  0.8367  0.5460
 7236TIP3    H245904   5.906   2.397  11.581  0.9369 -0.9742 -0.8597
 7237TIP3   OH245905   7.081   6.693  11.151 -0.5148  0.0805  0.3029
 7237TIP3    H145906   7.160   6.694  11.097 -1.4183 -1.1758 -1.1380
 7237TIP3    H245907   7.100   6.630  11.221 -0.0315  0.2298  0.3045
 7238TIP3   OH245908   1.066   0.847  10.667  0.2169 -0.2787 -0.2177
 7238TIP3    H145909   1.071   0.843  10.762 -0.3842  0.4457 -0.1446
 7238TIP3    H245910   1.041   0.759  10.640 -0.6542 -0.2235  0.3792
 7239TIP3   OH245911   4.913   4.083  11.040  0.5727 -0.2832  0.1603
 7239TIP3    H145912   4.975   4.015  11.014 -0.4044 -1.1958  0.1468
 7239TIP3    H245913   4.852   4.089  10.966  0.2078  0.0585  0.4882
 7240TIP3   OH245914   6.212   1.780  11.381 -0.5527 -0.5978 -0.1715
 7240TIP3    H145915   6.167   1.695  11.381 -0.0934 -0.8775  1.5374
 7240TIP3    H245916   6.221   1.802  11.473  2.7415 -0.5155 -0.4144
 7241TIP3   OH245917   3.930   3.089  13.262  0.3843 -0.7548 -0.4099
 7241TIP3    H145918   4.022   3.062  13.268  0.5564  0.0073  0.5477
 7241TIP3    H245919   3.896   3.081  13.351  0.4782  2.1920 -0.0110
 7242TIP3   OH245920   6.575   5.884  12.685  0.1247  0.3798 -0.5134
 7242TIP3    H145921   6.540   5.883  12.774  0.1934  0.7915 -0.4810
 7242TIP3    H245922   6.593   5.792  12.666 -2.1476 -0.0352 -0.9895
 7243TIP3   OH245923   0.887   1.591  12.777 -0.0709  0.9423  0.1076
 7243TIP3    H145924   0.834   1.531  12.724  1.9660 -1.4067  0.5508
 7243TIP3    H245925   0.885   1.553  12.865  1.5984  1.2493  0.3142
 7244TIP3   OH245926   4.635   5.379  12.923  0.2237 -0.4089 -0.8924
 7244TIP3    H145927   4.605   5.406  13.010 -1.9632  0.3858 -1.8051
 7244TIP3    H245928   4.714   5.431  12.908  0.9210 -0.9002  0.7524
 7245TIP3   OH245929   2.470   5.008  10.733  0.0906  0.3655  0.0698
 7245TIP3    H145930   2.472   5.041  10.823  0.3851  2.8176 -0.7584
 7245TIP3    H245931   2.392   5.048  10.694  1.1088  1.0934 -1.3243
 7246TIP3   OH245932   5.295   6.763  12.387  0.2362  0.1435  0.4195
 7246TIP3    H145933   5.309   6.794  12.477  1.3142 -0.5616  0.5042
 7246TIP3    H245934   5.236   6.688  12.397 -1.2185  1.2360  0.3425
 7247TIP3   OH245935   7.211   3.485  12.725  0.3072  0.4475 -0.2227
 7247TIP3    H145936   7.264   3.501  12.804  0.8019  0.4555 -0.5557
 7247TIP3    H245937   7.247   3.544  12.660 -0.6247  1.0276 -0.2352
 7248TIP3   OH245938   2.947   2.091  10.862  0.5818  0.0438 -0.0360
 7248TIP3    H145939   3.033   2.128  10.840  3.0051 -4.9067 -0.3954
 7248TIP3    H245940   2.950   2.077  10.956 -0.8193  1.6435  0.3021
 7249TIP3   OH245941   1.565   0.686  13.048  0.7114  0.0308  0.1858
 7249TIP3    H145942   1.479   0.681  13.090  0.4824  1.5728 -0.0165
 7249TIP3    H245943   1.612   0.752  13.099  1.0780  0.6009 -0.8566
 7250TIP3   OH245944   6.326   2.542  11.687 -0.0283 -0.2599  0.5463
 7250TIP3    H145945   6.339   2.485  11.764 -0.7425 -0.9278  0.1964
 7250TIP3    H245946   6.409   2.588  11.677  0.1938 -0.4076  1.5215
 7251TIP3   OH245947   6.688   5.026  11.837  0.4688  0.3380  0.2061
 7251TIP3    H145948   6.600   5.054  11.860  0.7902  0.8698  0.8379
 7251TIP3    H245949   6.745   5.097  11.868  1.1717 -0.2918  0.4061
 7252TIP3   OH245950   0.716   3.675  12.099  0.2224 -0.3530 -0.4777
 7252TIP3    H145951   0.711   3.740  12.028 -0.1917 -1.0996 -1.1530
 7252TIP3    H245952   0.735   3.726  12.177 -0.7761  0.6585 -0.8796
 7253TIP3   OH245953   6.731   3.806  10.597 -0.0003 -0.0953  0.3717
 7253TIP3    H145954   6.810   3.822  10.545  0.1951  0.5467  0.8569
 7253TIP3    H245955   6.675   3.753  10.540  1.3264 -1.7376  0.5165
 7254TIP3   OH245956   0.380   4.407  13.064 -0.2731 -0.1537 -0.5514
 7254TIP3    H145957   0.433   4.330  13.086 -1.1770 -0.2676  1.5303
 7254TIP3    H245958   0.411   4.475  13.124 -2.0154 -0.0507  0.3133
 7255TIP3   OH245959   4.445   4.476  12.707  0.2150  0.3645 -0.5458
 7255TIP3    H145960   4.366   4.462  12.759  0.2185  0.8806 -0.3932
 7255TIP3    H245961   4.461   4.393  12.663  0.6058 -0.3145  0.8208
 7256TIP3   OH245962   0.132   3.413  10.826  0.1096  0.1325 -0.3525
 7256TIP3    H145963   0.082   3.336  10.800 -0.4808  0.4135 -0.0717
 7256TIP3    H245964   0.171   3.390  10.910 -0.9239  0.5005  0.2471
 7257TIP3   OH245965   5.754   2.676  11.412  0.7373 -0.0305  0.3347
 7257TIP3    H145966   5.792   2.600  11.455 -0.2110 -1.4509 -1.1975
 7257TIP3    H245967   5.785   2.751  11.463  2.0302 -1.3971  1.6603
 7258TIP3   OH245968   4.972   5.367  11.570 -0.2074 -0.1984 -0.4094
 7258TIP3    H145969   4.999   5.450  11.609  0.5151  0.1122 -1.5087
 7258TIP3    H245970   4.921   5.393  11.493 -1.4808 -0.7923  0.2173
 7259TIP3   OH245971   2.581   0.103  11.938 -0.0733  0.7925  0.1012
 7259TIP3    H145972   2.552   0.192  11.955  1.2072  1.0849  0.9417
 7259TIP3    H245973   2.672   0.113  11.909 -1.0033  0.0172 -3.5262
 7260TIP3   OH245974   4.249   7.408  11.683 -0.8658  0.0180  0.1860
 7260TIP3    H145975   4.208   7.333  11.726  0.1319 -1.0066 -0.6171
 7260TIP3    H245976   4.264   7.380  11.593 -0.7135  1.2833 -0.2126
 7261TIP3   OH245977   6.677   1.459  10.903  0.1185  0.4203 -0.2887
 7261TIP3    H145978   6.733   1.535  10.916 -0.3707  0.4563  1.9088
 7261TIP3    H245979   6.737   1.384  10.910 -0.0240  0.4628  1.9192
 7262TIP3   OH245980   2.480   0.768  12.167  0.1473  0.2834  0.2789
 7262TIP3    H145981   2.537   0.693  12.153  0.6858  0.7915 -0.3049
 7262TIP3    H245982   2.539   0.843  12.172 -0.4082  0.7149  0.4877
 7263TIP3   OH245983   4.887   5.304  10.675  0.3097  0.0723 -0.5320
 7263TIP3    H145984   4.867   5.280  10.766 -1.4833 -0.0002 -0.9125
 7263TIP3    H245985   4.903   5.220  10.631  2.1476  0.1544 -0.1238
 7264TIP3   OH245986   1.641   6.155  10.957 -0.0689  0.0722 -0.5528
 7264TIP3    H145987   1.727   6.185  10.928  0.3063  1.1457  1.4631
 7264TIP3    H245988   1.640   6.062  10.936  2.4354 -0.4391  1.1223
 7265TIP3   OH245989   7.607   6.332  17.797 -0.7605 -0.0954  0.4152
 7265TIP3    H145990   7.554   6.374  17.865 -0.0745 -2.1536  2.3150
 7265TIP3    H245991   7.692   6.317  17.839  0.4584  0.5693 -1.6576
 7266TIP3   OH245992   7.056   4.918  12.183 -0.0455 -0.0484 -0.4870
 7266TIP3    H145993   7.144   4.933  12.148  0.2854 -1.6412 -0.3865
 7266TIP3    H245994   7.005   4.993  12.152  1.5177  1.3451  0.1441
 7267TIP3   OH245995   4.860   1.701  13.325 -0.0280  0.1780  0.3738
 7267TIP3    H145996   4.896   1.753  13.398  1.3113  0.2216 -0.2937
 7267TIP3    H245997   4.901   1.616  13.334 -1.1713 -0.3745  0.6400
 7268TIP3   OH245998   1.583   1.548  10.598  0.2680  0.0449  0.2328
 7268TIP3    H145999   1.563   1.539  10.505  0.6559 -0.0246  0.1541
 7268TIP3    H246000   1.517   1.609  10.631 -1.0191 -1.3442  0.3072
 7269TIP3   OH246001   0.286   1.261  11.654 -0.0373 -0.5356 -0.1198
 7269TIP3    H146002   0.347   1.211  11.599 -0.4124  0.8060 -1.8316
 7269TIP3    H246003   0.271   1.342  11.605  0.0990  1.0272  2.2808
 7270TIP3   OH246004   6.489   2.692  11.381  0.3960 -0.1375  0.1156
 7270TIP3    H146005   6.527   2.728  11.301  0.5129  0.7475  0.5561
 7270TIP3    H246006   6.485   2.766  11.442 -3.2518  0.2013 -0.3161
 7271TIP3   OH246007   1.858   3.747  11.573 -0.4749 -0.1026 -0.0805
 7271TIP3    H146008   1.836   3.734  11.481 -0.7084 -0.6285  0.0486
 7271TIP3    H246009   1.827   3.668  11.617 -2.3243  1.0442  0.7907
 7272TIP3   OH246010   7.459   4.125  10.889  0.2258  0.0438  1.3636
 7272TIP3    H146011   7.397   4.193  10.862  0.7446 -0.5564 -1.6969
 7272TIP3    H246012   7.455   4.126  10.985 -2.0891  2.2060  1.3570
 7273TIP3   OH246013   1.025   0.548  12.439  0.6152  0.3121  0.8539
 7273TIP3    H146014   1.037   0.624  12.495  1.0978 -0.3134  1.6132
 7273TIP3    H246015   0.972   0.487  12.491  0.6822 -0.0932  0.4617
 7274TIP3   OH246016   4.869   4.758  11.820 -0.6711  0.7304  0.6749
 7274TIP3    H146017   4.846   4.701  11.893  2.4929  0.3719  1.5580
 7274TIP3    H246018   4.915   4.832  11.860  0.9923  0.6180 -0.8800
 7275TIP3   OH246019   3.222   4.572  13.085  0.6777 -0.0774 -0.0919
 7275TIP3    H146020   3.173   4.558  13.166  0.6937  1.4761  0.2091
 7275TIP3    H246021   3.155   4.598  13.021  1.0356  1.8990  0.2823
 7276TIP3   OH246022   6.726   0.630  11.586  0.4915 -0.7944 -0.0637
 7276TIP3    H146023   6.800   0.569  11.584 -1.2364 -3.0596  0.6626
 7276TIP3    H246024   6.676   0.604  11.663  0.0248  2.1255  0.7658
 7277TIP3   OH246025   6.348   3.470  10.489  0.0255  0.1499 -0.7336
 7277TIP3    H146026   6.279   3.536  10.496 -0.9473 -0.8879 -0.1685
 7277TIP3    H246027   6.425   3.519  10.460 -0.8954  1.3660 -1.2175
 7278TIP3   OH246028   7.143   3.188  11.258 -0.1884  0.4923 -0.2591
 7278TIP3    H146029   7.154   3.236  11.176  0.6919  2.0935  0.7176
 7278TIP3    H246030   7.154   3.096  11.234 -0.9112  0.8395 -2.0654
 7279TIP3   OH246031   6.651   4.440  13.707 -0.6411  0.2341 -0.0872
 7279TIP3    H146032   6.594   4.507  13.744 -0.5197  0.0648  0.4188
 7279TIP3    H246033   6.606   4.357  13.727 -0.4065  0.1237 -0.0133
 7280TIP3   OH246034   6.907   2.955  10.642  0.3461 -0.3919  0.1653
 7280TIP3    H146035   6.936   2.899  10.713  1.5621  0.2942  0.2300
 7280TIP3    H246036   6.985   2.972  10.590 -0.3025  0.0097 -0.7191
 7281TIP3   OH246037   3.137   3.656  11.017 -0.5320  0.1460 -0.2235
 7281TIP3    H146038   3.091   3.612  11.089  1.6953  0.5404  1.5450
 7281TIP3    H246039   3.132   3.749  11.038  0.0862  0.2725 -0.6087
 7282TIP3   OH246040   6.808   0.233  10.945  0.6731  0.8560  0.2017
 7282TIP3    H146041   6.869   0.160  10.953  0.1794  0.4634  0.4341
 7282TIP3    H246042   6.864   0.310  10.938  1.2180  0.3577 -1.3384
 7283TIP3   OH246043   1.939   5.144  11.210 -0.8838  1.1906  0.5954
 7283TIP3    H146044   1.898   5.111  11.130 -0.3814  0.2354  0.7096
 7283TIP3    H246045   1.906   5.087  11.279  0.2796  0.6574  0.7505
 7284TIP3   OH246046   7.155   1.461  10.826  0.2485 -0.0140 -0.2220
 7284TIP3    H146047   7.162   1.550  10.861  0.5578  0.3755 -1.2223
 7284TIP3    H246048   7.089   1.419  10.881 -1.1543  1.3729 -0.7374
 7285TIP3   OH246049   2.610   6.402  11.955 -0.4694 -0.1177  0.1030
 7285TIP3    H146050   2.639   6.489  11.982  0.6242 -0.9199  1.6590
 7285TIP3    H246051   2.687   6.347  11.967 -0.8772 -1.1563 -1.7294
 7286TIP3   OH246052   7.552   1.103  10.930 -0.7233 -0.6469  0.0310
 7286TIP3    H146053   7.634   1.096  10.980  0.2566 -0.3470 -1.4874
 7286TIP3    H246054   7.486   1.121  10.997  0.3187 -1.5783  1.3786
 7287TIP3   OH246055   5.957   2.055  11.560 -0.2635 -1.1491 -0.3768
 7287TIP3    H146056   5.998   2.125  11.509 -0.3450  1.2285  2.5390
 7287TIP3    H246057   6.019   2.037  11.630 -1.5666 -1.8876  0.6245
 7288TIP3   OH246058   1.656   5.316  11.108 -0.3764 -0.0813 -0.4314
 7288TIP3    H146059   1.667   5.235  11.157  1.4800 -0.8312 -1.9898
 7288TIP3    H246060   1.590   5.365  11.158  1.1559 -0.8802  2.6296
 7289TIP3   OH246061   6.159   4.892  11.351 -0.9522 -0.1770  0.5164
 7289TIP3    H146062   6.206   4.956  11.404 -0.2436  0.6495 -1.0302
 7289TIP3    H246063   6.210   4.812  11.357 -0.6594  0.0287  0.7602
 7290TIP3   OH246064   2.381   7.185  11.594 -0.2474  0.0911 -0.4372
 7290TIP3    H146065   2.421   7.263  11.555 -1.1510  0.4019 -0.7598
 7290TIP3    H246066   2.310   7.162  11.534 -0.1683 -0.8104 -0.1913
 7291TIP3   OH246067   0.122   4.138  12.824 -0.3580 -0.1184 -0.0412
 7291TIP3    H146068   0.096   4.060  12.873  0.8847  0.6407  1.9588
 7291TIP3    H246069   0.218   4.132  12.818 -0.3312  0.7674 -0.6944
 7292TIP3   OH246070   5.354   3.475  12.298 -0.2053 -0.6231 -0.2389
 7292TIP3    H146071   5.439   3.516  12.284  1.1480 -2.6922  1.4202
 7292TIP3    H246072   5.303   3.540  12.346  0.1688  0.8778 -1.7971
 7293TIP3   OH246073   1.508   7.292  12.751 -0.1366 -0.0938  0.3568
 7293TIP3    H146074   1.494   7.345  12.830  0.0385  1.3309 -0.5195
 7293TIP3    H246075   1.489   7.352  12.678 -1.8743 -1.8108 -0.7129
 7294TIP3   OH246076   4.389   7.181  13.455  0.8128  0.6651 -0.2015
 7294TIP3    H146077   4.295   7.199  13.455  1.0445  2.2211  1.5872
 7294TIP3    H246078   4.429   7.265  13.478  2.7122  0.2345 -1.6898
 7295TIP3   OH246079   2.886   2.027  11.664  0.1018 -0.2709 -0.0767
 7295TIP3    H146080   2.911   1.948  11.711 -0.7400 -0.0770  0.7317
 7295TIP3    H246081   2.854   2.086  11.732 -2.1037 -0.3466 -0.9925
 7296TIP3   OH246082   3.442   1.813  11.773 -0.4683  0.9558 -0.0703
 7296TIP3    H146083   3.504   1.748  11.739  0.3152  2.2324 -1.1882
 7296TIP3    H246084   3.374   1.818  11.706 -1.6155 -0.1270  0.9568
 7297TIP3   OH246085   6.207   1.230  12.188  0.4959 -0.2482 -0.2024
 7297TIP3    H146086   6.187   1.318  12.156 -1.0918 -0.5160 -0.0530
 7297TIP3    H246087   6.189   1.173  12.113 -0.2173 -0.5923  0.2184
 7298TIP3   OH246088   6.384   0.861  11.734  0.1395  0.4885 -0.2566
 7298TIP3    H146089   6.330   0.939  11.717 -2.1684 -1.3485 -2.0707
 7298TIP3    H246090   6.321   0.797  11.769  2.2836 -0.1427  2.8715
 7299TIP3   OH246091   6.791   0.344  11.269 -0.0431  0.1691 -0.2160
 7299TIP3    H146092   6.844   0.357  11.348 -1.1109 -0.2569  0.5903
 7299TIP3    H246093   6.824   0.409  11.207  1.7707 -0.4438  0.0660
 7300TIP3   OH246094   3.645   3.153  12.774  0.3205  0.0328 -0.0023
 7300TIP3    H146095   3.674   3.205  12.849 -1.0896  0.1454  0.4907
 7300TIP3    H246096   3.638   3.216  12.702 -3.4588  1.1493  1.0872
 7301TIP3   OH246097   6.610   0.498  13.284 -0.9654  0.0143 -0.2066
 7301TIP3    H146098   6.596   0.579  13.235 -1.2367 -0.2550 -0.5789
 7301TIP3    H246099   6.528   0.450  13.275 -0.7652 -0.3547 -0.0846
 7302TIP3   OH246100   0.344   0.907  12.942  0.0471 -0.2860 -0.0745
 7302TIP3    H146101   0.410   0.973  12.924 -1.2929  0.6503 -1.9224
 7302TIP3    H246102   0.354   0.843  12.870 -0.3939 -0.6616  0.1905
 7303TIP3   OH246103   6.554   6.156  10.751 -0.2582 -0.2064  0.5218
 7303TIP3    H146104   6.516   6.209  10.821  0.3840  0.9798  0.0110
 7303TIP3    H246105   6.531   6.203  10.671  1.6500  0.1954  0.1590
 7304TIP3   OH246106   2.904   3.409  11.881 -0.0088  0.0729  0.1620
 7304TIP3    H146107   2.930   3.318  11.896  1.3380  0.0587 -1.7782
 7304TIP3    H246108   2.987   3.457  11.883 -0.5910  1.0940  0.1284
 7305TIP3   OH246109   6.102   6.664  12.746  0.0609 -0.5596 -0.0313
 7305TIP3    H146110   6.046   6.613  12.689  1.1811 -0.2746 -1.4390
 7305TIP3    H246111   6.190   6.655  12.709  0.5519  1.0324  0.6294
 7306TIP3   OH246112   5.826   6.049  11.418 -0.8992 -0.9137 -0.0678
 7306TIP3    H146113   5.887   6.083  11.352  0.3180 -2.4798  0.1913
 7306TIP3    H246114   5.847   5.956  11.425 -1.4750 -0.9389  2.0301
 7307TIP3   OH246115   3.880   2.589  11.085  0.2480 -0.3986 -0.0938
 7307TIP3    H146116   3.938   2.572  11.159  2.2395  0.6115 -1.3266
 7307TIP3    H246117   3.923   2.547  11.010 -0.8161  0.0572 -0.9917
 7308TIP3   OH246118   6.141   6.617  13.034 -0.3761 -0.2346  0.1635
 7308TIP3    H146119   6.201   6.675  13.081 -2.5801  0.7947  1.9293
 7308TIP3    H246120   6.148   6.643  12.943 -1.0019  2.6838  0.8415
 7309TIP3   OH246121   2.282   3.787  12.237  0.2291 -0.0630  0.4116
 7309TIP3    H146122   2.285   3.860  12.176  1.8028 -1.4822 -1.3236
 7309TIP3    H246123   2.348   3.808  12.303 -1.1297  1.2412  1.4219
 7310TIP3   OH246124   2.339   0.769  11.658  0.1705 -0.0947 -0.4501
 7310TIP3    H146125   2.280   0.696  11.642  1.2482 -1.0386 -0.2752
 7310TIP3    H246126   2.282   0.841  11.685 -0.8949 -0.9379 -0.3931
 7311TIP3   OH246127   3.240   2.335  12.627 -0.2765  0.6077  0.1474
 7311TIP3    H146128   3.253   2.297  12.714  0.0626  1.0869  0.3094
 7311TIP3    H246129   3.327   2.335  12.587 -0.3176  0.9857  0.0547
 7312TIP3   OH246130   4.542   4.727  11.627 -0.0957  0.4272  0.5456
 7312TIP3    H146131   4.451   4.748  11.649 -0.5490 -1.1536  0.3249
 7312TIP3    H246132   4.593   4.801  11.660 -1.4754  1.4132  0.5285
 7313TIP3   OH246133   2.776   4.125  11.489 -0.4733 -0.2503  0.0568
 7313TIP3    H146134   2.817   4.137  11.403  0.1470 -0.3863  0.3323
 7313TIP3    H246135   2.759   4.214  11.520  0.1445 -0.1749  0.1918
 7314TIP3   OH246136   2.835   4.977  10.432 -0.1587  0.2156 -0.6457
 7314TIP3    H146137   2.824   5.001  10.524 -2.0002  2.0489 -1.2717
 7314TIP3    H246138   2.823   5.059  10.385 -2.3973 -1.1668 -2.6943
 7315TIP3   OH246139   2.887   5.972  11.386 -0.0198 -0.4634  0.6902
 7315TIP3    H146140   2.884   5.908  11.457 -0.0276 -0.3190  0.8233
 7315TIP3    H246141   2.939   6.044  11.422 -0.8909  0.0604  0.9246
 7316TIP3   OH246142   0.896   5.494  11.704 -0.1944 -0.0071  0.1190
 7316TIP3    H146143   0.827   5.560  11.700 -0.1445 -0.0041 -0.9229
 7316TIP3    H246144   0.965   5.528  11.648  0.1949 -0.5425  0.2621
 7317TIP3   OH246145   3.706   5.270  11.795  0.0628  0.1510  0.1669
 7317TIP3    H146146   3.679   5.182  11.821  0.3439 -0.5378 -1.6971
 7317TIP3    H246147   3.767   5.256  11.722  2.0013  1.8333  1.3717
 7318TIP3   OH246148   6.547   2.058  11.675  0.3129  0.1292  0.0043
 7318TIP3    H146149   6.539   1.978  11.728 -1.2357  0.8310  0.8893
 7318TIP3    H246150   6.613   2.110  11.721 -0.7614  0.5771  1.1029
 7319TIP3   OH246151   0.952   2.327  12.048  0.1300 -0.6643  0.6529
 7319TIP3    H146152   0.981   2.374  11.970  2.7914  0.3667  2.1320
 7319TIP3    H246153   0.858   2.342  12.052  0.5995  3.2992  0.1693
 7320TIP3   OH246154   0.685   6.410  12.284 -0.1351 -0.3330 -0.3454
 7320TIP3    H146155   0.742   6.408  12.362  1.1527 -0.5339 -1.2536
 7320TIP3    H246156   0.643   6.495  12.287  0.3076 -0.1256  0.3032
 7321TIP3   OH246157   5.388   5.900  11.739 -0.0888  0.2122  0.0953
 7321TIP3    H146158   5.464   5.849  11.769 -0.5333 -0.8093 -0.4604
 7321TIP3    H246159   5.370   5.961  11.811  0.9181  0.0928  0.4609
 7322TIP3   OH246160   1.574   6.902  11.094 -0.0003  0.0937  0.2090
 7322TIP3    H146161   1.601   6.841  11.025 -1.6182  0.4090 -0.7745
 7322TIP3    H246162   1.606   6.987  11.065  1.2548 -0.0789  1.0050
 7323TIP3   OH246163   5.806   7.434  13.111 -0.1569  0.2766  0.0847
 7323TIP3    H146164   5.740   7.391  13.057 -0.0522  0.0183  0.1635
 7323TIP3    H246165   5.758   7.502  13.159 -0.5099 -0.4033  0.7096
 7324TIP3   OH246166   0.112   5.416  12.649  0.4285 -0.2167 -0.1976
 7324TIP3    H146167   0.117   5.321  12.663  0.2634  0.0767  2.5463
 7324TIP3    H246168   0.174   5.452  12.712 -0.1999  1.5373 -0.5332
 7325TIP3   OH246169   5.655   7.129  11.019  0.0560  1.4192  0.4784
 7325TIP3    H146170   5.717   7.194  11.054  0.5696  0.2689  1.7903
 7325TIP3    H246171   5.648   7.063  11.088 -0.4586  0.0674 -0.8234
 7326TIP3   OH246172   3.909   0.414  11.459 -0.1162  0.1387 -1.0327
 7326TIP3    H146173   3.929   0.450  11.546 -1.7094  0.8920 -0.9386
 7326TIP3    H246174   3.870   0.488  11.412 -0.9367 -0.7457 -1.7721
 7327TIP3   OH246175   7.216   7.229  12.383  0.1274 -0.2160 -0.2991
 7327TIP3    H146176   7.176   7.146  12.358 -1.0763  0.2954 -0.1222
 7327TIP3    H246177   7.285   7.205  12.444 -0.6487 -1.0450  0.2822
 7328TIP3   OH246178   5.432   3.341  12.888  0.2412 -0.5330  0.0715
 7328TIP3    H146179   5.446   3.332  12.983  0.2465 -0.9600  0.0318
 7328TIP3    H246180   5.435   3.435  12.873 -4.0089 -0.0186  1.1473
 7329TIP3   OH246181   4.933   2.653  11.175 -0.2291 -0.2966  0.4416
 7329TIP3    H146182   4.882   2.613  11.245  1.6410 -0.6422  1.6903
 7329TIP3    H246183   4.951   2.582  11.114  2.9506 -1.5405  2.5748
 7330TIP3   OH246184   6.123   0.525  11.240 -0.8408  0.2574  0.4073
 7330TIP3    H146185   6.178   0.553  11.313  0.3772  0.8812 -0.7251
 7330TIP3    H246186   6.035   0.556  11.263 -0.3236  1.1678  1.2229
 7331TIP3   OH246187   5.075   2.867  10.830 -0.2589 -0.3604 -0.0250
 7331TIP3    H146188   5.079   2.775  10.804 -0.7818 -0.5815  0.6515
 7331TIP3    H246189   4.987   2.895  10.806  0.1760  0.2255 -1.0284
 7332TIP3   OH246190   7.631   7.382  10.428  0.1766  0.0825 -0.2474
 7332TIP3    H146191   7.715   7.339  10.446 -1.3818 -2.4845  1.4310
 7332TIP3    H246192   7.627   7.386  10.332  0.8512 -2.8104 -0.4983
 7333TIP3   OH246193   0.952   5.611  10.539 -0.0643  0.7012  0.0342
 7333TIP3    H146194   0.977   5.539  10.598 -0.5231  0.0011 -0.6032
 7333TIP3    H246195   1.017   5.679  10.556  1.9324 -0.7822 -1.0786
 7334TIP3   OH246196   7.012   3.215  12.354 -0.3756  0.0077 -0.8242
 7334TIP3    H146197   6.930   3.261  12.372 -0.4940  0.4500 -2.3426
 7334TIP3    H246198   7.054   3.208  12.439 -0.9210  1.8663 -0.3482
 7335TIP3   OH246199   2.025   6.449  12.237 -0.5215  0.4162  0.0778
 7335TIP3    H146200   1.960   6.493  12.291 -0.2793  0.5747  0.2444
 7335TIP3    H246201   1.978   6.378  12.194 -0.6771  0.1873  0.6242
 7336TIP3   OH246202   1.984   7.204  12.824  0.8242 -0.1262 -0.9614
 7336TIP3    H146203   1.926   7.278  12.842 -0.2171 -0.6552 -2.0098
 7336TIP3    H246204   2.038   7.196  12.904 -0.4379  0.4626 -0.0153
 7337TIP3   OH246205   6.129   1.256  11.064  0.3517  0.0100 -0.5654
 7337TIP3    H146206   6.170   1.260  10.978  0.8929 -0.3526 -0.3339
 7337TIP3    H246207   6.108   1.346  11.086 -0.3462  0.0456 -1.3366
 7338TIP3   OH246208   2.517   0.405  12.259  0.2114  0.4262  0.1966
 7338TIP3    H146209   2.610   0.395  12.238  0.0181 -0.4066 -0.2896
 7338TIP3    H246210   2.471   0.386  12.177 -0.4232  0.1267  0.6122
 7339TIP3   OH246211   6.160   1.221  12.590 -0.2592 -0.0527  0.3132
 7339TIP3    H146212   6.131   1.144  12.639 -0.9077 -1.4499 -2.1101
 7339TIP3    H246213   6.244   1.196  12.553 -0.5028  0.3527 -0.5423
 7340TIP3   OH246214   3.320   6.232  11.886 -0.2201 -0.4145 -0.3089
 7340TIP3    H146215   3.330   6.269  11.799 -0.1022  0.4281  0.0560
 7340TIP3    H246216   3.267   6.153  11.873 -3.1898  1.5260 -0.7095
 7341TIP3   OH246217   3.503   7.638  13.110  0.4515  0.8349  0.5542
 7341TIP3    H146218   3.453   7.714  13.080  0.1913  0.6596  0.5508
 7341TIP3    H246219   3.480   7.629  13.202  0.7656  0.9830  0.6495
 7342TIP3   OH246220   5.140   6.870  11.499 -0.5846  0.4220  0.2894
 7342TIP3    H146221   5.077   6.940  11.479 -0.2211  0.4968 -0.6416
 7342TIP3    H246222   5.192   6.905  11.572 -0.2558  1.2273 -0.3217
 7343TIP3   OH246223   2.082   1.806  13.363  0.5298  0.0437 -0.5819
 7343TIP3    H146224   2.123   1.808  13.276 -2.1769 -0.7099 -1.9994
 7343TIP3    H246225   2.001   1.857  13.352  0.2872  0.2172  1.6109
 7344TIP3   OH246226   7.191   7.031  12.759 -0.4643 -0.0368  0.0183
 7344TIP3    H146227   7.151   6.960  12.810  1.5755 -0.9390  0.4765
 7344TIP3    H246228   7.218   6.989  12.677  0.0640  0.3786 -0.0279
 7345TIP3   OH246229   4.681   2.031  11.737  0.1678  0.1076  0.3473
 7345TIP3    H146230   4.597   2.078  11.731  0.9137  1.2599 -2.6833
 7345TIP3    H246231   4.741   2.093  11.778  0.1313  0.1971  0.2648
 7346TIP3   OH246232   1.763   7.314  12.366 -0.7874 -0.0677  0.3681
 7346TIP3    H146233   1.763   7.257  12.443 -0.6328  1.6256  1.6769
 7346TIP3    H246234   1.747   7.255  12.292  2.1695 -2.2602  1.2827
 7347TIP3   OH246235   7.007   6.736  10.754 -0.0724 -0.0576  0.2884
 7347TIP3    H146236   6.939   6.753  10.819  0.2547 -2.0874  1.2639
 7347TIP3    H246237   6.985   6.650  10.718  0.4626  0.4787 -1.3973
 7348TIP3   OH246238   6.729   7.011  12.662  0.1119 -0.0824  0.3173
 7348TIP3    H146239   6.656   7.016  12.725  0.3466 -2.9209  0.9382
 7348TIP3    H246240   6.698   6.950  12.595  1.9519 -1.5525  0.7226
 7349TIP3   OH246241   1.471   3.725  10.852  0.3216  0.3291 -0.2596
 7349TIP3    H146242   1.405   3.675  10.804  0.4764 -0.3219  0.2049
 7349TIP3    H246243   1.469   3.812  10.811 -1.0212  0.4132 -0.0672
 7350TIP3   OH246244   2.590   6.109  13.466 -0.8549 -0.1242  0.5787
 7350TIP3    H146245   2.592   6.189  13.519  2.4217  2.0398 -2.4073
 7350TIP3    H246246   2.652   6.050  13.510 -1.0969  0.0975  1.2269
 7351TIP3   OH246247   5.186   1.879  10.460  0.3876 -0.2500  0.1627
 7351TIP3    H146248   5.135   1.920  10.390  1.4138  3.4549  1.3491
 7351TIP3    H246249   5.120   1.846  10.521 -0.6638  1.5520  0.0952
 7352TIP3   OH246250   7.469   2.571  10.817  0.6767  0.4748 -0.6152
 7352TIP3    H146251   7.538   2.519  10.858  0.4461 -0.5257 -1.4245
 7352TIP3    H246252   7.437   2.515  10.746  0.9148  2.0478 -2.0133
 7353TIP3   OH246253   7.068   4.082  10.979 -0.3358 -0.5926  0.7720
 7353TIP3    H146254   7.036   4.101  11.067  0.2311  0.3097  0.7937
 7353TIP3    H246255   7.133   4.150  10.961 -1.1246 -0.1678 -0.7041
 7354TIP3   OH246256   3.184   2.450  11.450  0.0835 -0.2347 -0.2136
 7354TIP3    H146257   3.105   2.471  11.499 -0.7417 -1.6122 -0.8781
 7354TIP3    H246258   3.208   2.533  11.408 -0.4013  0.4521  0.8100
 7355TIP3   OH246259   0.882   3.540  12.341  0.0484 -0.0978 -0.0137
 7355TIP3    H146260   0.876   3.615  12.282 -1.2053  0.1414  0.3942
 7355TIP3    H246261   0.924   3.575  12.420  1.9803 -0.4798 -0.8094
 7356TIP3   OH246262   1.159   2.111  12.841 -0.3207 -0.2941 -0.0373
 7356TIP3    H146263   1.080   2.147  12.801 -0.0578  0.4589  0.0988
 7356TIP3    H246264   1.217   2.093  12.767 -0.6101 -0.8290 -0.1358
 7357TIP3   OH246265   2.171   4.729  11.452  0.1415 -0.3899  0.0958
 7357TIP3    H146266   2.196   4.653  11.400  2.0510 -0.1498  0.5852
 7357TIP3    H246267   2.196   4.707  11.542 -0.4434  0.3346  0.4547
 7358TIP3   OH246268   1.791   5.270  12.675  0.1653  0.1831 -0.4157
 7358TIP3    H146269   1.737   5.343  12.646  0.6022  0.4092 -0.6768
 7358TIP3    H246270   1.863   5.311  12.723 -0.0319 -0.1295  0.1628
 7359TIP3   OH246271   2.884   1.422  11.487 -0.0945 -0.0150 -0.0788
 7359TIP3    H146272   2.962   1.370  11.470  0.5970  1.0935 -0.4061
 7359TIP3    H246273   2.817   1.385  11.429 -0.2790 -1.9339  1.2603
 7360TIP3   OH246274   2.041   0.099  12.213  0.0715 -0.6257  0.1941
 7360TIP3    H146275   1.995   0.056  12.142  0.0820  0.9880 -0.8374
 7360TIP3    H246276   1.996   0.182  12.225 -0.6743 -1.3078  2.9059
 7361TIP3   OH246277   2.180   6.317  12.835 -0.3391 -0.1510  0.5192
 7361TIP3    H146278   2.171   6.240  12.891 -2.2636  0.2690  0.8503
 7361TIP3    H246279   2.130   6.386  12.880  0.5090  1.0305 -0.2711
 7362TIP3   OH246280   6.860   5.459  11.706 -0.0506  0.0504  0.0299
 7362TIP3    H146281   6.768   5.483  11.708 -0.4064 -1.1727 -0.6583
 7362TIP3    H246282   6.875   5.425  11.618  1.0209  0.0945  0.1769
 7363TIP3   OH246283   2.898   7.604  11.098  0.4074 -0.1319 -0.0636
 7363TIP3    H146284   2.957   7.613  11.172  0.9251  0.0019 -0.4825
 7363TIP3    H246285   2.905   7.688  11.052  1.8384 -0.9694 -1.5157
 7364TIP3   OH246286   1.917   7.507  11.755 -0.2974  0.0577  0.5774
 7364TIP3    H146287   1.842   7.483  11.700 -0.9839 -0.3319  1.6422
 7364TIP3    H246288   1.950   7.424  11.788  0.7237  0.2179 -0.0049
 7365TIP3   OH246289   2.091   4.402  12.776 -0.5715 -0.2073 -0.4632
 7365TIP3    H146290   2.021   4.359  12.826 -1.7717  2.0517 -0.0267
 7365TIP3    H246291   2.116   4.476  12.830  0.5141  0.3641 -1.6993
 7366TIP3   OH246292   2.412   4.950  13.112  0.0123 -0.1070 -0.0399
 7366TIP3    H146293   2.488   4.978  13.163 -0.1465  0.9449 -0.3524
 7366TIP3    H246294   2.394   4.861  13.143  1.3838 -0.3918  0.0150
 7367TIP3   OH246295   7.468   3.939  11.981 -0.3227  0.1531  0.0832
 7367TIP3    H146296   7.489   4.021  12.026  0.1735  0.2061 -0.2397
 7367TIP3    H246297   7.377   3.921  12.007 -0.0506  0.1706  1.1164
 7368TIP3   OH246298   3.127   3.173  11.519 -0.1540  0.0329  0.0102
 7368TIP3    H146299   3.038   3.148  11.545  0.2116 -0.1130  1.1732
 7368TIP3    H246300   3.128   3.268  11.524 -0.5239  0.1004 -0.9856
 7369TIP3   OH246301   2.108   0.611  12.845  0.2523  0.1764 -0.5627
 7369TIP3    H146302   2.090   0.524  12.880 -0.5520  0.4700 -0.2247
 7369TIP3    H246303   2.117   0.667  12.923 -0.7886  0.6876 -0.7882
 7370TIP3   OH246304   4.676   0.680  12.629  0.1270  0.3601 -0.1313
 7370TIP3    H146305   4.687   0.634  12.712 -0.2588 -0.1445 -0.3528
 7370TIP3    H246306   4.617   0.624  12.578  0.4057  0.6314 -0.7679
 7371TIP3   OH246307   6.139   6.390  10.395  0.0700 -0.4001  0.7137
 7371TIP3    H146308   6.129   6.347  10.480 -0.0602 -3.4427 -0.7260
 7371TIP3    H246309   6.066   6.357  10.343  1.5166 -0.5593 -1.3192
 7372TIP3   OH246310   6.039   0.348  12.661 -0.0998 -0.3959  0.2261
 7372TIP3    H146311   6.046   0.394  12.577 -0.5966 -0.2627  0.2513
 7372TIP3    H246312   6.127   0.314  12.678  0.8514  2.2449  1.1703
 7373TIP3   OH246313   2.190   1.225  12.497 -0.0138 -0.3751  0.3220
 7373TIP3    H146314   2.095   1.224  12.488  0.1124  0.3136 -1.4436
 7373TIP3    H246315   2.206   1.277  12.576 -1.0687  2.4058 -1.1417
 7374TIP3   OH246316   5.910   4.307  10.417  0.4655  0.0382  0.0527
 7374TIP3    H146317   5.832   4.344  10.459 -0.0304  0.1692 -0.9544
 7374TIP3    H246318   5.915   4.217  10.450  0.7829  0.4837  1.3043
 7375TIP3   OH246319   0.783   2.537  11.311  0.5908  0.2885 -0.1421
 7375TIP3    H146320   0.800   2.631  11.320  0.1618  0.7792 -3.1883
 7375TIP3    H246321   0.854   2.505  11.255  1.5543 -1.5956  1.9882
 7376TIP3   OH246322   3.399   4.380  12.863 -0.3183  0.4217 -0.5506
 7376TIP3    H146323   3.344   4.319  12.912  1.9010  0.0052  1.5936
 7376TIP3    H246324   3.384   4.465  12.905  0.2312  0.4126 -0.3290
 7377TIP3   OH246325   6.978   1.207  10.532  0.0140  0.3191 -0.0512
 7377TIP3    H146326   7.007   1.239  10.446 -1.3596 -0.7520 -0.9672
 7377TIP3    H246327   7.024   1.124  10.543 -0.2180  0.1980  0.0035
 7378TIP3   OH246328   4.956   4.927  12.493 -0.2189  0.2618  0.3362
 7378TIP3    H146329   5.035   4.923  12.439 -1.4505  0.8994 -1.6179
 7378TIP3    H246330   4.981   4.983  12.567  1.7929 -1.4089  1.0291
 7379TIP3   OH246331   2.864   6.648  11.583  0.1373 -0.1126 -0.5102
 7379TIP3    H146332   2.876   6.659  11.489  0.4917  0.9897 -0.3495
 7379TIP3    H246333   2.894   6.559  11.601 -1.2904 -0.8712 -1.6486
 7380TIP3   OH246334   4.934   1.126  12.432  0.0191  0.1386 -0.1638
 7380TIP3    H146335   4.870   1.077  12.483  0.3297 -2.4114 -2.0168
 7380TIP3    H246336   5.019   1.102  12.469  0.1387 -0.3262 -0.7185
 7381TIP3   OH246337   0.270   1.019  10.768  0.0209  0.1120 -0.2210
 7381TIP3    H146338   0.236   0.947  10.714  2.9231 -1.2878 -0.3745
 7381TIP3    H246339   0.322   1.072  10.707  2.1647 -0.6789  0.7969
 7382TIP3   OH246340   5.138   2.875  11.212  0.6400 -0.2186 -0.2836
 7382TIP3    H146341   5.059   2.825  11.192  1.1260 -0.9128 -0.5134
 7382TIP3    H246342   5.203   2.843  11.149  1.1012  0.3388 -0.0937
 7383TIP3   OH246343   7.245   5.434  10.986  0.0696 -0.6688  0.5274
 7383TIP3    H146344   7.202   5.365  11.036 -0.5239 -0.2358  0.6183
 7383TIP3    H246345   7.245   5.402  10.896 -2.3173  0.1956  0.1500
 7384TIP3   OH246346   2.067   4.380  11.571 -0.3798  1.1944  0.0389
 7384TIP3    H146347   1.974   4.367  11.554  0.3323 -0.5212 -3.1542
 7384TIP3    H246348   2.079   4.348  11.661 -2.2395 -2.3285 -0.8067
 7385TIP3   OH246349   1.966   1.764  10.567  0.5132  0.8771 -0.4653
 7385TIP3    H146350   1.901   1.833  10.579 -0.1453  0.4312 -1.3686
 7385TIP3    H246351   1.919   1.682  10.584  0.5780  0.4928 -1.9463
 7386TIP3   OH246352   1.850   5.486  11.532  0.3020 -0.1208 -0.2311
 7386TIP3    H146353   1.895   5.425  11.590  0.9066  0.7220  0.2036
 7386TIP3    H246354   1.757   5.476  11.554  0.3474 -1.1259 -0.4183
 7387TIP3   OH246355   0.838   0.409  11.951  0.4014 -0.1476 -0.3530
 7387TIP3    H146356   0.848   0.429  12.044 -1.6471 -0.7261  0.0416
 7387TIP3    H246357   0.875   0.484  11.906  1.6845  0.0242  0.9029
 7388TIP3   OH246358   1.201   6.380  13.172 -0.1503 -0.0060 -0.3992
 7388TIP3    H146359   1.291   6.350  13.185 -0.0916  0.0899 -0.5863
 7388TIP3    H246360   1.207   6.448  13.104 -0.3715 -0.0421 -0.4565
 7389TIP3   OH246361   4.588   0.435  12.017  0.2366 -0.2157 -0.0196
 7389TIP3    H146362   4.651   0.477  12.076  0.4602 -2.4529  1.4491
 7389TIP3    H246363   4.556   0.359  12.066 -2.2453 -0.2032 -1.4415
 7390TIP3   OH246364   2.973   7.498  11.947  0.2254 -0.1293 -0.7806
 7390TIP3    H146365   3.051   7.534  11.989  0.7002  0.0729 -1.8307
 7390TIP3    H246366   2.991   7.404  11.939 -0.2316 -0.3219  0.2340
 7391TIP3   OH246367   4.365   6.869  12.206  0.0083  0.0825 -0.4420
 7391TIP3    H146368   4.317   6.935  12.254  0.4190  1.6469 -2.0665
 7391TIP3    H246369   4.389   6.803  12.272 -2.6075  0.2079  0.7548
 7392TIP3   OH246370   0.128   5.760  11.622 -0.5463  0.4342 -0.3817
 7392TIP3    H146371   0.061   5.697  11.596 -1.0841  0.4666  0.8437
 7392TIP3    H246372   0.211   5.714  11.611 -0.9412 -0.5712  0.6613
 7393TIP3   OH246373   2.781   6.360  11.617  0.0382 -0.7172 -0.2702
 7393TIP3    H146374   2.777   6.295  11.547 -0.9194  0.2762 -1.1830
 7393TIP3    H246375   2.722   6.326  11.685  0.2894 -1.2523 -0.3105
 7394TIP3   OH246376   4.652   5.367  13.191 -0.2909 -0.3765  0.4555
 7394TIP3    H146377   4.723   5.305  13.178  1.7684  2.0714 -0.8765
 7394TIP3    H246378   4.689   5.434  13.249 -0.8909  1.7840 -1.5026
 7395TIP3   OH246379   4.018   0.284  11.248  0.1339 -0.2865  0.6240
 7395TIP3    H146380   3.961   0.313  11.319  1.6429  1.3020  1.2351
 7395TIP3    H246381   4.035   0.362  11.196  0.1677 -1.1422 -0.7183
 7396TIP3   OH246382   4.221   5.257  12.616  0.2054 -0.5390 -0.0224
 7396TIP3    H146383   4.225   5.181  12.557  0.2627 -1.3901  1.0417
 7396TIP3    H246384   4.210   5.219  12.703 -0.9540  0.7158  0.4215
 7397TIP3   OH246385   4.032   3.244  11.703 -0.2881  0.2580 -0.2636
 7397TIP3    H146386   4.109   3.291  11.671  0.1591  0.1671  0.6517
 7397TIP3    H246387   4.003   3.192  11.628  0.2185  0.6990 -0.7768
 7398TIP3   OH246388   5.428   2.198  11.157  0.0676 -0.1586 -0.2829
 7398TIP3    H146389   5.519   2.183  11.133 -0.0037  0.3651 -0.9431
 7398TIP3    H246390   5.390   2.239  11.079 -0.8277 -0.7151 -0.1604
 7399TIP3   OH246391   4.627   3.669  11.508  0.3835 -0.4025  0.0319
 7399TIP3    H146392   4.593   3.743  11.458  0.7946 -0.1892  0.0601
 7399TIP3    H246393   4.694   3.707  11.565 -0.1982 -0.6208  0.8665
 7400TIP3   OH246394   6.659   4.454  10.700  0.3947  0.2933  0.0520
 7400TIP3    H146395   6.609   4.521  10.653 -1.1350 -0.4528  0.5486
 7400TIP3    H246396   6.717   4.503  10.758 -0.0336  1.1930 -0.2711
 7401TIP3   OH246397   5.123   6.940  11.852 -0.1323 -0.7626  0.1649
 7401TIP3    H146398   5.179   7.014  11.874 -0.7828 -0.1661 -0.1447
 7401TIP3    H246399   5.170   6.895  11.781 -0.2454 -0.0199 -0.3865
 7402TIP3   OH246400   0.255   1.981  10.799  0.1993 -0.2183  0.4421
 7402TIP3    H146401   0.325   1.916  10.788  1.7017  1.5651 -1.4818
 7402TIP3    H246402   0.290   2.043  10.863  0.2040  0.4259 -0.1730
 7403TIP3   OH246403   7.165   7.275  11.444 -0.2107  0.1883 -0.1516
 7403TIP3    H146404   7.252   7.241  11.421 -0.7097 -0.0257 -1.9279
 7403TIP3    H246405   7.129   7.307  11.361 -1.9664 -0.0540  0.4591
 7404TIP3   OH246406   6.948   6.393  12.491  0.5754  0.0706  0.7881
 7404TIP3    H146407   6.938   6.451  12.415 -0.5023 -0.3031  0.6275
 7404TIP3    H246408   6.878   6.420  12.551 -0.0066 -1.1099  0.6656
 7405TIP3   OH246409   1.752   2.621  12.453  0.6620  0.1658 -0.0055
 7405TIP3    H146410   1.694   2.696  12.464 -0.2007 -0.2099 -1.6855
 7405TIP3    H246411   1.831   2.658  12.414  0.4759  0.3141 -0.2535
 7406TIP3   OH246412   0.671   2.052  13.352 -0.1792  0.1687 -0.0827
 7406TIP3    H146413   0.758   2.085  13.374 -0.3984  0.6801  0.0555
 7406TIP3    H246414   0.638   2.115  13.288 -0.6759  0.3226  0.3144
 7407TIP3   OH246415   3.564   4.276  11.845 -0.5022 -0.1111  0.7851
 7407TIP3    H146416   3.513   4.271  11.764  1.7007 -0.4947 -0.6573
 7407TIP3    H246417   3.561   4.369  11.870  2.3941  1.0080 -2.3062
 7408TIP3   OH246418   1.465   0.799  12.794  0.3163 -0.0751  0.0950
 7408TIP3    H146419   1.379   0.762  12.774  0.5900 -0.1456 -1.0266
 7408TIP3    H246420   1.480   0.776  12.886 -1.0145  0.2707  0.4228
 7409TIP3   OH246421   2.847   5.716  11.482 -0.3717 -0.0079  0.4058
 7409TIP3    H146422   2.816   5.626  11.471 -1.1284 -0.0542  2.4233
 7409TIP3    H246423   2.939   5.707  11.505  0.0632 -0.1188 -1.2392
 7410TIP3   OH246424   7.616   7.342  12.542 -0.3030  0.0839 -0.3864
 7410TIP3    H146425   7.605   7.424  12.493 -1.0916 -0.1935 -0.6995
 7410TIP3    H246426   7.605   7.367  12.633  0.8812  0.5588 -0.3665
 7411TIP3   OH246427   1.169   2.849  12.515 -0.7790  0.2039 -0.4554
 7411TIP3    H146428   1.229   2.924  12.511 -0.7999  0.2582  0.1418
 7411TIP3    H246429   1.097   2.879  12.571 -0.2029 -0.6550  0.8025
 7412TIP3   OH246430   5.369   7.336  11.308 -0.4345  0.2869  0.1117
 7412TIP3    H146431   5.358   7.254  11.356 -2.0631  0.1861 -0.3494
 7412TIP3    H246432   5.447   7.323  11.255 -0.2743 -0.7027  0.5713
 7413TIP3   OH246433   1.849   1.481  11.229 -0.0147 -0.5233  0.1130
 7413TIP3    H146434   1.757   1.505  11.237 -0.0746 -0.4646 -0.6656
 7413TIP3    H246435   1.856   1.443  11.141  0.8681  0.2228 -0.1540
 7414TIP3   OH246436   4.483   6.161  11.058  0.2314 -0.0051  0.1612
 7414TIP3    H146437   4.474   6.212  10.977 -2.1730 -1.5283 -0.6496
 7414TIP3    H246438   4.436   6.211  11.124 -1.1356 -0.5521 -0.3591
 7415TIP3   OH246439   6.169   4.277  10.708  0.1681 -0.0271  0.2462
 7415TIP3    H146440   6.176   4.333  10.630  2.2911 -1.2274 -0.4869
 7415TIP3    H246441   6.076   4.253  10.711 -0.3338  1.5657 -0.7883
 7416TIP3   OH246442   6.679   3.023  12.381  0.2583  0.3431 -0.4279
 7416TIP3    H146443   6.773   3.013  12.395  0.4886  1.3298 -1.1746
 7416TIP3    H246444   6.639   2.960  12.441  1.2752  1.8986  2.0443
 7417TIP3   OH246445   6.996   3.516  10.414  0.6995 -0.1826 -0.4090
 7417TIP3    H146446   7.019   3.571  10.489 -0.0296 -0.9839  0.4435
 7417TIP3    H246447   7.062   3.535  10.348  1.2916  0.6390  0.4026
 7418TIP3   OH246448   7.459   0.736  11.219 -0.1058  0.6366 -0.0235
 7418TIP3    H146449   7.544   0.740  11.175  0.2771  1.3975  0.7396
 7418TIP3    H246450   7.421   0.653  11.192 -0.1142  1.2831 -2.1594
 7419TIP3   OH246451   4.782   4.065  11.382 -0.1168  0.1850  0.4497
 7419TIP3    H146452   4.806   4.136  11.441  0.8560 -0.6363  1.0725
 7419TIP3    H246453   4.792   4.102  11.294  0.5123  0.7779  0.7599
 7420TIP3   OH246454   0.144   1.053  11.030 -0.3829  0.1325  0.1940
 7420TIP3    H146455   0.182   1.137  11.055  0.3126 -0.0499 -0.2048
 7420TIP3    H246456   0.176   1.037  10.941 -0.0127 -0.8171  0.4765
 7421TIP3   OH246457   0.659   3.152  11.140 -0.2253 -0.2851  0.0296
 7421TIP3    H146458   0.700   3.201  11.211 -0.7178 -0.6737  0.5888
 7421TIP3    H246459   0.635   3.219  11.075 -2.4157  0.4941  1.5190
 7422TIP3   OH246460   1.206   6.370  11.198  0.1254  0.2683  0.0197
 7422TIP3    H146461   1.228   6.462  11.187 -0.8210  0.3918 -0.9702
 7422TIP3    H246462   1.280   6.334  11.248  0.5337  1.5313  0.3787
 7423TIP3   OH246463   2.501   4.241  12.058  0.2818  0.1925  0.1292
 7423TIP3    H146464   2.491   4.332  12.032  0.9422 -0.2201 -1.7654
 7423TIP3    H246465   2.594   4.231  12.076  0.3492 -0.2791 -0.4508
 7424TIP3   OH246466   5.098   1.957  12.706  0.0822  0.1449  0.0740
 7424TIP3    H146467   5.186   1.931  12.681 -0.4836 -1.6127 -0.2147
 7424TIP3    H246468   5.071   2.019  12.638  0.1384 -1.3317 -1.3496
 7425TIP3   OH246469   1.455   1.426  12.903 -0.3963  0.6508 -0.3067
 7425TIP3    H146470   1.459   1.484  12.979  0.5336 -0.0764  0.2308
 7425TIP3    H246471   1.418   1.480  12.833  3.0567  2.8471 -0.6614
 7426TIP3   OH246472   1.883   0.117  11.114 -0.3864 -0.4687  0.5452
 7426TIP3    H146473   1.905   0.130  11.206 -2.4344 -2.9639  1.5229
 7426TIP3    H246474   1.943   0.174  11.067  0.6364  1.0329  3.4084
 7427TIP3   OH246475   5.899   3.981  10.488  0.1423  0.6230  0.1713
 7427TIP3    H146476   5.805   3.976  10.508 -0.1165  1.7036 -0.6896
 7427TIP3    H246477   5.910   3.924  10.412  0.1070  0.7909  0.0389
 7428TIP3   OH246478   1.676   3.741  12.327  0.2366 -0.5089  0.2452
 7428TIP3    H146479   1.684   3.830  12.362 -0.5966 -0.6730  0.8874
 7428TIP3    H246480   1.591   3.739  12.285 -1.3819 -1.9741  3.2834
 7429TIP3   OH246481   7.462   4.995  10.506  0.0691 -0.0982 -0.2214
 7429TIP3    H146482   7.543   4.995  10.455 -0.1083  2.5806 -0.6339
 7429TIP3    H246483   7.490   5.013  10.596  0.0889 -1.7049  0.1380
 7430TIP3   OH246484   7.671   7.598  12.205  0.0942 -0.1380 -0.1203
 7430TIP3    H146485   7.657   7.666  12.140  1.3868  0.4682  0.1983
 7430TIP3    H246486   7.602   7.534  12.189 -0.9939  1.1283 -0.5829
 7431TIP3   OH246487   4.153   0.103  10.799  0.1774 -0.1310 -0.3562
 7431TIP3    H146488   4.217   0.160  10.757  0.1007  0.0555 -0.2248
 7431TIP3    H246489   4.163   0.121  10.893 -0.5837  0.4625 -0.3725
 7432TIP3   OH246490   0.412   0.529  10.915 -0.0342 -0.1438 -0.2265
 7432TIP3    H146491   0.411   0.434  10.932  0.4931 -0.1974 -0.4854
 7432TIP3    H246492   0.320   0.550  10.896  0.0667 -0.8931 -1.7266
 7433TIP3   OH246493   1.564   2.857  11.761  0.3515  0.7593 -0.4529
 7433TIP3    H146494   1.577   2.765  11.738 -0.2095  0.5088  0.1945
 7433TIP3    H246495   1.529   2.854  11.850 -1.6560  1.5024 -1.1739
 7434TIP3   OH246496   4.259   1.527  12.781 -0.0134 -0.0864  0.2546
 7434TIP3    H146497   4.280   1.436  12.805 -1.5566  0.1500  2.8759
 7434TIP3    H246498   4.243   1.524  12.687 -0.7550 -2.6979  0.3890
 7435TIP3   OH246499   5.155   1.857  11.988  0.4760  0.0387  0.1283
 7435TIP3    H146500   5.108   1.939  11.975  1.3092  0.6315  0.7219
 7435TIP3    H246501   5.127   1.800  11.916 -0.9482  0.4504  0.3328
 7436TIP3   OH246502   6.081   6.643  11.982  0.4278  0.4440 -0.0073
 7436TIP3    H146503   6.087   6.549  11.965 -0.1767  0.4985 -0.5917
 7436TIP3    H246504   6.170   6.675  11.969  1.1247 -0.3457  2.3021
 7437TIP3   OH246505   2.073   3.198  12.550  0.6603  0.1607  0.4295
 7437TIP3    H146506   2.055   3.242  12.633 -1.8487 -1.7087  1.0100
 7437TIP3    H246507   1.987   3.190  12.508  1.8158  0.8684 -2.3127
 7438TIP3   OH246508   1.840   7.460  13.422 -0.0467 -0.2398 -0.0763
 7438TIP3    H146509   1.879   7.432  13.339  0.8346 -1.1602  0.6272
 7438TIP3    H246510   1.884   7.543  13.442  0.0435 -0.2277 -0.3244
 7439TIP3   OH246511   5.735   5.879  12.945  0.0393  0.1868  0.0773
 7439TIP3    H146512   5.741   5.962  12.898  0.6322  0.6610  0.9752
 7439TIP3    H246513   5.819   5.869  12.989 -0.2209 -0.6315  0.4222
 7440TIP3   OH246514   1.439   2.170  11.220 -0.3545 -0.3217  0.2484
 7440TIP3    H146515   1.372   2.167  11.289 -0.1076 -2.2907  0.4722
 7440TIP3    H246516   1.515   2.210  11.262 -0.8854  0.4931  0.4546
 7441TIP3   OH246517   3.347   2.674  12.670 -0.4265 -0.1489 -0.4684
 7441TIP3    H146518   3.397   2.747  12.708 -2.2166  0.6594  0.4515
 7441TIP3    H246519   3.287   2.648  12.740 -0.7256 -1.6603 -1.2488
 7442TIP3   OH246520   6.186   6.968  11.926 -0.0934  0.5605 -0.1280
 7442TIP3    H146521   6.155   7.058  11.925  1.8071  1.3191 -2.5711
 7442TIP3    H246522   6.212   6.951  11.835  3.6208 -0.9354  1.0175
 7443TIP3   OH246523   6.451   0.112  11.830  0.2825 -0.4502  0.3220
 7443TIP3    H146524   6.412   0.045  11.775  0.0124 -0.7562  0.8717
 7443TIP3    H246525   6.377   0.157  11.870  0.4483 -1.4823  1.9010
 7444TIP3   OH246526   0.352   6.376  11.809  0.0592  0.5974 -0.0965
 7444TIP3    H146527   0.267   6.394  11.849  0.5432 -0.3699  1.4927
 7444TIP3    H246528   0.402   6.331  11.878  1.7917  0.9632 -1.0419
 7445TIP3   OH246529   2.766   1.272  10.939 -0.2359 -0.0163  0.1220
 7445TIP3    H146530   2.683   1.254  10.894 -0.0374  0.2276 -0.3490
 7445TIP3    H246531   2.748   1.351  10.990 -0.4876 -0.3426  0.5416
 7446TIP3   OH246532   3.840   6.722  11.339  0.0070  0.0112 -0.1834
 7446TIP3    H146533   3.792   6.772  11.274  1.3602  1.2842 -0.2533
 7446TIP3    H246534   3.876   6.787  11.399  1.8406 -0.8256 -0.2852
 7447TIP3   OH246535   4.328   2.715  10.760  0.0564 -0.3420 -0.1163
 7447TIP3    H146536   4.307   2.743  10.849  2.5056 -0.8543  0.6936
 7447TIP3    H246537   4.314   2.620  10.761  0.2717 -0.3747 -0.2172
 7448TIP3   OH246538   3.720   3.380  10.879 -0.3708 -0.1861  0.5409
 7448TIP3    H146539   3.777   3.339  10.813  1.3044  2.9913 -0.1593
 7448TIP3    H246540   3.766   3.367  10.962  0.6844  1.1226  0.1769
 7449TIP3   OH246541   0.936   2.777  11.278 -0.2432  0.0355 -0.1110
 7449TIP3    H146542   0.931   2.870  11.297 -0.1049 -0.3208  1.8822
 7449TIP3    H246543   1.008   2.769  11.216 -1.1363  1.3651 -1.3876
 7450TIP3   OH246544   1.149   4.844  10.776 -0.4771  0.3526 -0.2052
 7450TIP3    H146545   1.158   4.819  10.868 -1.9286  0.3670 -0.0376
 7450TIP3    H246546   1.229   4.812  10.735  0.5279  0.9708  1.1916
 7451TIP3   OH246547   1.577   0.214  11.866 -0.3254 -0.1419  0.4431
 7451TIP3    H146548   1.657   0.162  11.862  1.6886  2.6726  0.8450
 7451TIP3    H246549   1.515   0.168  11.810  1.3611 -2.7291  0.5460
 7452TIP3   OH246550   6.481   1.796  12.219 -0.0577  0.1899 -0.3271
 7452TIP3    H146551   6.526   1.728  12.269  2.3593  0.0709 -2.4365
 7452TIP3    H246552   6.434   1.748  12.151 -1.8728  0.4603  0.6627
 7453TIP3   OH246553   3.628   0.248  11.092 -0.1558 -0.3215 -0.0434
 7453TIP3    H146554   3.593   0.326  11.048  0.1109 -0.5862 -0.7474
 7453TIP3    H246555   3.702   0.221  11.037  0.8085 -0.0999  1.1112
 7454TIP3   OH246556   7.102   4.091  11.808 -0.6126  0.4587  0.1688
 7454TIP3    H146557   7.194   4.111  11.788 -0.1108 -1.6198  0.2491
 7454TIP3    H246558   7.102   4.072  11.902 -0.7491 -1.3887 -0.1811
 7455TIP3   OH246559   7.582   0.537  12.181 -0.5384 -0.2562  0.6555
 7455TIP3    H146560   7.609   0.629  12.179 -0.0443 -0.4085  0.0487
 7455TIP3    H246561   7.656   0.491  12.220 -0.0927 -0.6133 -0.5779
 7456TIP3   OH246562   7.468   1.315  11.402  0.4344  0.0388 -0.3302
 7456TIP3    H146563   7.561   1.320  11.377  0.2294 -0.2003 -1.1725
 7456TIP3    H246564   7.443   1.406  11.420  1.3026 -0.0797  1.7413
 7457TIP3   OH246565   0.951   7.177  11.712  0.4419 -0.1314  0.4635
 7457TIP3    H146566   0.913   7.109  11.766  0.7855  0.0225  0.9061
 7457TIP3    H246567   0.959   7.253  11.771 -0.9506  0.6554 -0.2873
 7458TIP3   OH246568   7.327   5.557  12.015 -0.0643 -0.6579 -0.2887
 7458TIP3    H146569   7.259   5.522  11.959 -1.2649 -0.6382  1.0848
 7458TIP3    H246570   7.284   5.628  12.063  0.9440 -0.5931  0.5611
 7459TIP3   OH246571   1.996   5.792  12.345 -0.7240  0.5935 -0.1527
 7459TIP3    H146572   2.047   5.861  12.387 -1.4793  0.3027  1.3248
 7459TIP3    H246573   1.971   5.828  12.260  0.2125  1.5131 -0.0523
 7460TIP3   OH246574   1.998   1.694  11.169  0.1319 -0.5688  0.2385
 7460TIP3    H146575   2.050   1.662  11.096 -0.4544  0.1003 -0.4940
 7460TIP3    H246576   1.937   1.623  11.189  0.3956 -0.8109  0.1814
 7461TIP3   OH246577   3.808   4.799  10.749  0.0147 -0.0531 -0.0677
 7461TIP3    H146578   3.741   4.759  10.805  1.5222  0.4388  2.2006
 7461TIP3    H246579   3.866   4.726  10.725  0.8660  0.1363  1.2929
 7462TIP3   OH246580   1.467   1.974  12.814  0.4226 -0.0436  0.0778
 7462TIP3    H146581   1.510   1.936  12.737  1.0105 -1.4038  1.0361
 7462TIP3    H246582   1.384   1.926  12.822 -0.1663  0.8775 -0.3433
 7463TIP3   OH246583   6.539   2.729  12.352  0.4194  0.1275  0.1104
 7463TIP3    H146584   6.518   2.718  12.445  1.8677 -0.2215  0.4139
 7463TIP3    H246585   6.522   2.643  12.314 -1.4761  0.6176 -0.2470
 7464TIP3   OH246586   0.487   7.047  11.156  0.3657  0.7839 -0.0689
 7464TIP3    H146587   0.455   6.966  11.117 -2.1302  0.7722  1.7203
 7464TIP3    H246588   0.497   7.027  11.249  2.4244  1.8096 -0.0242
 7465TIP3   OH246589   7.423   6.402  11.298  0.0741 -0.1769  0.2155
 7465TIP3    H146590   7.336   6.387  11.260  0.8467 -1.6020 -1.0636
 7465TIP3    H246591   7.460   6.315  11.310  2.2252  0.4290 -1.4060
 7466TIP3   OH246592   7.364   7.487  11.892 -0.0756 -0.4739 -0.2459
 7466TIP3    H146593   7.421   7.514  11.964 -1.3368  2.6651 -0.2544
 7466TIP3    H246594   7.301   7.428  11.933  0.5201 -0.4510  0.7437
 7467TIP3   OH246595   0.225   3.260  11.636  0.3203 -0.1600 -0.0229
 7467TIP3    H146596   0.160   3.197  11.668 -0.2578  0.6978  0.5155
 7467TIP3    H246597   0.303   3.206  11.618 -0.5994 -1.2454 -0.9297
 7468TIP3   OH246598   2.161   3.714  13.228 -0.3803 -0.2279  0.2851
 7468TIP3    H146599   2.251   3.691  13.250 -0.4080 -0.6519 -0.0131
 7468TIP3    H246600   2.117   3.629  13.219 -0.1307 -0.1495 -2.3753
 7469TIP3   OH246601   3.364   3.372  10.740  0.2513  0.3342 -0.0499
 7469TIP3    H146602   3.290   3.432  10.729 -0.0978  0.0949  0.9184
 7469TIP3    H246603   3.330   3.286  10.713  0.8528  0.5997 -1.7755
 7470TIP3   OH246604   4.681   5.502  12.606  0.5811 -0.5581  0.2794
 7470TIP3    H146605   4.679   5.485  12.701  0.1853 -1.6389  0.0961
 7470TIP3    H246606   4.600   5.462  12.573  1.1647 -1.0171 -0.6346
 7471TIP3   OH246607   3.123   1.048  12.733  0.8389 -0.2525  0.1057
 7471TIP3    H146608   3.196   0.989  12.751 -0.9309 -2.2569  1.1757
 7471TIP3    H246609   3.109   1.095  12.815  0.2839 -0.6401  0.2370
 7472TIP3   OH246610   6.895   2.320  11.228  0.3148 -0.1245  0.0137
 7472TIP3    H146611   6.928   2.406  11.201  1.4691 -0.2103  1.0813
 7472TIP3    H246612   6.801   2.334  11.242 -0.0707  0.2881 -2.4491
 7473TIP3   OH246613   5.084   3.741  12.157  0.0582  0.3423 -0.2255
 7473TIP3    H146614   5.120   3.730  12.245  1.9810  1.9350 -0.7177
 7473TIP3    H246615   5.009   3.683  12.154  1.8334 -2.2572  1.3643
 7474TIP3   OH246616   5.378   3.832  12.023  0.3179  0.5348  0.1441
 7474TIP3    H146617   5.397   3.905  12.082 -0.0322  0.8831 -0.1620
 7474TIP3    H246618   5.284   3.815  12.036  0.7056 -0.8514  1.3104
 7475TIP3   OH246619   5.491   0.560  13.298 -0.0037  0.2132 -0.1053
 7475TIP3    H146620   5.543   0.506  13.239  0.1642  1.1554 -0.8557
 7475TIP3    H246621   5.530   0.547  13.384 -0.6133 -1.6313 -0.0802
 7476TIP3   OH246622   1.391   7.602  11.606 -0.7590 -0.0326 -0.4337
 7476TIP3    H146623   1.374   7.685  11.651 -2.6686 -0.7344  0.2427
 7476TIP3    H246624   1.377   7.622  11.514 -0.4311  0.5725 -0.3596
 7477TIP3   OH246625   5.920   7.111  12.343  0.2349 -0.4857 -0.3694
 7477TIP3    H146626   5.837   7.109  12.390  0.7467  0.8496  0.6566
 7477TIP3    H246627   5.973   7.043  12.386 -0.8718 -2.6777 -2.2410
 7478TIP3   OH246628   2.690   2.870  10.740 -0.0072 -0.5329  0.2559
 7478TIP3    H146629   2.664   2.962  10.731 -0.5491 -0.6884  0.2154
 7478TIP3    H246630   2.647   2.826  10.667 -2.2009 -1.3444  1.9378
 7479TIP3   OH246631   0.560   2.284  17.422 -0.6976 -0.4069 -0.5334
 7479TIP3    H146632   0.546   2.190  17.415  1.2088 -0.6789 -1.1009
 7479TIP3    H246633   0.600   2.296  17.508 -0.3892 -0.1990 -0.7033
 7480TIP3   OH246634   3.270   4.409  11.465 -0.1162  0.2909  0.6260
 7480TIP3    H146635   3.198   4.416  11.526 -0.9071 -2.1375  0.0633
 7480TIP3    H246636   3.230   4.420  11.378  0.6831  1.7544  0.4017
 7481TIP3   OH246637   1.451   2.155  11.691 -0.1786 -0.3749 -0.0653
 7481TIP3    H146638   1.376   2.147  11.750 -0.0920 -0.9909 -0.0319
 7481TIP3    H246639   1.528   2.143  11.747 -0.0872 -0.7091 -0.2600
 7482TIP3   OH246640   6.592   4.619   9.973 -0.3109 -0.0200 -0.6496
 7482TIP3    H146641   6.532   4.573  10.033  0.9759  0.4405  1.0610
 7482TIP3    H246642   6.574   4.581   9.888 -2.5693 -0.3707 -0.0859
 7483TIP3   OH246643   4.777   0.085  10.733 -0.4563 -0.1611  0.6392
 7483TIP3    H146644   4.813   0.005  10.694  1.6026  1.2500 -0.5499
 7483TIP3    H246645   4.709   0.054  10.793  1.3633 -2.8942  1.4597
 7484TIP3   OH246646   3.916   3.738  12.901 -0.0311  0.0554  0.1664
 7484TIP3    H146647   3.981   3.708  12.838  0.2181 -1.1896  0.9829
 7484TIP3    H246648   3.964   3.796  12.960 -0.0512  0.4760 -0.2290
 7485TIP3   OH246649   5.470   6.580  10.835 -0.4222  0.0761  0.1421
 7485TIP3    H146650   5.531   6.517  10.872 -1.3851 -0.7657  0.3390
 7485TIP3    H246651   5.464   6.650  10.901  0.3689  0.1993  0.0878
 7486TIP3   OH246652   1.338   5.512  10.970 -0.5520  0.2553 -0.5748
 7486TIP3    H146653   1.332   5.503  11.065 -0.4178 -0.3659 -0.6182
 7486TIP3    H246654   1.351   5.422  10.939  0.2280  0.5479 -1.1164
 7487TIP3   OH246655   3.249   2.570  12.444  0.1144 -0.2580 -0.3119
 7487TIP3    H146656   3.262   2.656  12.484  1.3989  0.2846 -1.8215
 7487TIP3    H246657   3.241   2.510  12.519 -2.0848  1.2824  0.8084
 7488TIP3   OH246658   3.099   6.155  11.532  0.7335  0.2823 -0.4078
 7488TIP3    H146659   3.101   6.142  11.437  1.0106 -0.1668 -0.3421
 7488TIP3    H246660   3.184   6.124  11.562  0.5560  0.2035  0.0182
 7489TIP3   OH246661   6.183   3.975  11.323  0.2365 -0.0877 -0.2875
 7489TIP3    H146662   6.151   4.017  11.243  0.4714 -0.2333 -0.4588
 7489TIP3    H246663   6.107   3.926  11.356 -0.8226  2.4149  1.2641
 7490TIP3   OH246664   6.313   4.798  13.337  0.5510 -0.6086  0.9048
 7490TIP3    H146665   6.360   4.730  13.288 -0.6348 -0.6712 -0.1889
 7490TIP3    H246666   6.311   4.873  13.278  0.7743 -0.0185  1.6259
 7491TIP3   OH246667   2.247   6.151  10.660 -0.2640  0.0333 -0.3678
 7491TIP3    H146668   2.339   6.138  10.635 -0.0752  0.3822  0.1276
 7491TIP3    H246669   2.242   6.243  10.686  0.2577 -0.8704  3.6797
 7492TIP3   OH246670   6.437   3.489  11.778  0.2146  0.2147 -0.0308
 7492TIP3    H146671   6.403   3.425  11.716  0.7099  0.0945 -0.1814
 7492TIP3    H246672   6.459   3.565  11.725  0.5903  0.1316  0.0048
 7493TIP3   OH246673   7.586   6.592  12.049 -0.3917  0.2734 -0.1923
 7493TIP3    H146674   7.633   6.576  11.967 -0.0999  0.4479 -0.0591
 7493TIP3    H246675   7.653   6.627  12.109 -0.3802 -0.7601  0.4219
 7494TIP3   OH246676   5.534   1.024  11.005  0.3935  0.5040  0.5042
 7494TIP3    H146677   5.449   0.996  11.040  1.0624 -1.0675  0.9825
 7494TIP3    H246678   5.516   1.046  10.914 -0.7710  1.5439  0.9401
 7495TIP3   OH246679   4.351   7.509  10.753 -0.0476  0.6760  0.4519
 7495TIP3    H146680   4.285   7.442  10.768 -0.6803  0.5680 -2.2948
 7495TIP3    H246681   4.304   7.582  10.713  1.3883  0.6301 -1.5066
 7496TIP3   OH246682   1.350   7.487  12.237 -0.1035  0.3888  0.2428
 7496TIP3    H146683   1.283   7.506  12.303 -0.6974  1.1173 -0.5621
 7496TIP3    H246684   1.433   7.497  12.284 -0.5310 -0.1794  1.1582
 7497TIP3   OH246685   6.625   4.867  10.846  0.1752 -0.2596  0.2602
 7497TIP3    H146686   6.607   4.947  10.796  1.2241  0.2179  0.6253
 7497TIP3    H246687   6.556   4.807  10.818 -0.2973  0.5710 -0.4557
 7498TIP3   OH246688   7.423   7.136  12.546  0.3688  0.2976 -0.0257
 7498TIP3    H146689   7.385   7.173  12.625 -0.7331  1.1125 -0.9036
 7498TIP3    H246690   7.510   7.174  12.540  0.3303  0.4861  0.6174
 7499TIP3   OH246691   4.593   7.207  10.978 -0.1508  1.0947  0.2824
 7499TIP3    H146692   4.570   7.201  10.886 -1.1040  2.1957  0.4208
 7499TIP3    H246693   4.687   7.227  10.979 -0.1233  0.9982 -0.4464
 7500TIP3   OH246694   6.404   6.691  12.638  0.7010  0.4058  0.2761
 7500TIP3    H146695   6.352   6.769  12.620 -1.1503 -0.3711  1.9654
 7500TIP3    H246696   6.495   6.719  12.622 -0.1630  1.5323 -3.7243
 7501TIP3   OH246697   2.072   1.943  12.036  0.2925  0.3054  0.2500
 7501TIP3    H146698   2.090   1.898  12.119 -0.4618 -0.8876 -0.2125
 7501TIP3    H246699   2.125   1.895  11.972 -1.2333 -0.5494 -0.4046
 7502TIP3   OH246700   7.024   5.915  11.301  0.2861 -0.0758  0.4273
 7502TIP3    H146701   7.086   5.987  11.310 -1.5430  1.6663 -0.1935
 7502TIP3    H246702   7.026   5.894  11.207  1.3323 -1.3916  0.7063
 7503TIP3   OH246703   0.646   0.247  11.846  0.0349  0.4966  0.4390
 7503TIP3    H146704   0.704   0.302  11.899 -0.1683 -0.1476  1.3498
 7503TIP3    H246705   0.634   0.167  11.898 -0.3860 -0.0419 -0.4598
 7504TIP3   OH246706   5.539   6.484  12.338  0.0287 -1.1961  0.3710
 7504TIP3    H146707   5.487   6.413  12.377  0.6287 -1.4540  0.7083
 7504TIP3    H246708   5.605   6.503  12.404  2.0705 -2.7079 -1.1124
 7505TIP3   OH246709   3.789   3.350  11.405 -0.2987 -0.7191 -0.1725
 7505TIP3    H146710   3.880   3.348  11.377 -0.4219 -1.0994 -0.5599
 7505TIP3    H246711   3.756   3.434  11.373 -0.4907 -1.2278 -1.3707
 7506TIP3   OH246712   1.680   6.535  12.108 -0.0841 -0.4211 -0.0572
 7506TIP3    H146713   1.679   6.630  12.097  1.8091 -0.3570 -0.0136
 7506TIP3    H246714   1.661   6.500  12.021 -2.8959 -0.0636  0.3326
 7507TIP3   OH246715   3.964   0.754  13.060 -0.3621 -0.4626 -0.2367
 7507TIP3    H146716   4.033   0.783  13.120 -2.0418  0.3957  1.3945
 7507TIP3    H246717   3.978   0.805  12.980  0.3898  0.3428  0.3902
 7508TIP3   OH246718   6.054   4.636  13.209  0.1538  0.6692  0.7922
 7508TIP3    H146719   6.048   4.731  13.216  1.0620  0.6410  2.2810
 7508TIP3    H246720   6.139   4.621  13.168 -0.4457  0.5011 -0.4427
 7509TIP3   OH246721   0.232   6.594  12.589 -0.1134  0.2348  0.3460
 7509TIP3    H146722   0.234   6.509  12.545 -2.0513  0.2225  0.2042
 7509TIP3    H246723   0.186   6.652  12.529  2.2199  1.7598 -0.0907
 7510TIP3   OH246724   4.105   2.379  12.037  0.0018  0.3532  0.3739
 7510TIP3    H146725   4.169   2.407  11.971  0.2108 -0.6302  0.1400
 7510TIP3    H246726   4.023   2.370  11.988  0.2929 -0.9957  0.0725
 7511TIP3   OH246727   6.970   5.225  10.489  0.5741  0.1172 -0.3397
 7511TIP3    H146728   6.929   5.272  10.417  1.0672  2.2562  0.6825
 7511TIP3    H246729   7.050   5.188  10.452 -0.7505 -1.6323 -1.6316
 7512TIP3   OH246730   4.810   2.771  11.942  0.2202 -0.5561 -0.2503
 7512TIP3    H146731   4.778   2.702  11.883 -2.0052 -0.0198  0.2214
 7512TIP3    H246732   4.829   2.725  12.024 -0.7990 -0.7059 -0.0833
 7513TIP3   OH246733   4.929   1.109  10.792 -0.8007 -0.2718 -0.2382
 7513TIP3    H146734   4.981   1.029  10.799  0.8287  0.8066  0.6422
 7513TIP3    H246735   4.894   1.122  10.880 -1.8191 -0.4760 -0.5980
 7514TIP3   OH246736   2.753   0.484  11.288 -0.2391 -0.5403 -0.1846
 7514TIP3    H146737   2.738   0.578  11.285 -0.3068 -0.5190  0.6726
 7514TIP3    H246738   2.794   0.464  11.203  0.6085  0.4066 -0.0251
 7515TIP3   OH246739   1.597   0.484  12.258 -0.9560  0.6763 -0.3372
 7515TIP3    H146740   1.622   0.488  12.350 -3.4732 -0.3656  0.4701
 7515TIP3    H246741   1.577   0.575  12.235  2.1068  1.3858 -0.7223
 7516TIP3   OH246742   5.256   5.849  10.756 -0.1349  0.1999 -0.5282
 7516TIP3    H146743   5.233   5.801  10.836  1.0552 -0.8419 -0.7809
 7516TIP3    H246744   5.175   5.852  10.706 -0.3963 -0.9701 -0.1997
 7517TIP3   OH246745   5.269   1.824  11.656  0.4173 -0.2574  0.0131
 7517TIP3    H146746   5.227   1.781  11.582  1.8677  0.8404 -1.5248
 7517TIP3    H246747   5.292   1.911  11.624  1.5439  0.0748  1.5866
 7518TIP3   OH246748   4.385   1.300  11.228 -0.0955  0.1448 -0.6468
 7518TIP3    H146749   4.298   1.309  11.265 -0.1065 -2.8716  0.3198
 7518TIP3    H246750   4.391   1.371  11.163 -2.8151  1.0768 -0.0040
 7519TIP3   OH246751   5.693   2.687  12.995 -0.0192  0.6673 -0.0589
 7519TIP3    H146752   5.612   2.738  12.991  0.5548  1.8420  1.8907
 7519TIP3    H246753   5.763   2.753  12.989  0.7982 -0.2249 -0.6647
 7520TIP3   OH246754   1.135   7.291  11.510 -0.2730 -0.3644  0.0417
 7520TIP3    H146755   1.106   7.369  11.559 -0.1987  0.1954 -0.7943
 7520TIP3    H246756   1.091   7.218  11.554  1.0776 -0.0807  1.9902
 7521TIP3   OH246757   3.226   3.636  12.728 -0.7054 -0.6067  0.1629
 7521TIP3    H146758   3.143   3.645  12.682 -0.4099 -0.3383 -0.3129
 7521TIP3    H246759   3.242   3.722  12.767  0.3530 -0.0517 -1.4409
 7522TIP3   OH246760   5.058   5.956  12.566  0.5373 -0.7442  0.0178
 7522TIP3    H146761   5.031   6.044  12.543 -0.5271 -0.4632  2.1366
 7522TIP3    H246762   5.151   5.964  12.589  0.3629 -0.1029  0.5119
 7523TIP3   OH246763   5.744   4.477  12.599  0.0112  0.1655  0.2610
 7523TIP3    H146764   5.692   4.438  12.669 -0.0584 -0.8948 -0.3436
 7523TIP3    H246765   5.696   4.556  12.575 -0.4678  0.0445  0.7865
 7524TIP3   OH246766   4.363   6.357  12.947 -0.5426  0.7894  0.5573
 7524TIP3    H146767   4.320   6.417  13.008  1.1735  2.1342  0.5108
 7524TIP3    H246768   4.435   6.319  12.998 -0.5704  0.0483  0.0685
 7525TIP3   OH246769   2.727   4.162  13.208  0.2285  0.2850 -0.0577
 7525TIP3    H146770   2.690   4.075  13.195  1.7894 -0.3997 -0.0661
 7525TIP3    H246771   2.657   4.211  13.250 -0.9922 -0.7008 -0.8563
 7526TIP3   OH246772   6.313   7.429  11.561  0.4549  0.3235  0.1538
 7526TIP3    H146773   6.384   7.366  11.550 -0.9554 -1.3715  0.3121
 7526TIP3    H246774   6.350   7.513  11.531  2.3261 -0.5962 -0.2510
 7527TIP3   OH246775   1.734   6.721  10.920  0.2155 -0.7910  0.5469
 7527TIP3    H146776   1.817   6.709  10.966  0.7537  0.6438  0.0078
 7527TIP3    H246777   1.757   6.722  10.828 -0.3888 -0.3896  0.3886
 7528TIP3   OH246778   0.996   1.312  11.079  0.5283 -0.5464  0.9713
 7528TIP3    H146779   0.996   1.407  11.072  0.3008 -0.5399  1.0423
 7528TIP3    H246780   1.004   1.295  11.173 -0.5838 -0.5797  1.0768
 7529TIP3   OH246781   5.977   6.601  11.283  0.1004  0.4115  0.3621
 7529TIP3    H146782   5.903   6.545  11.259  1.7313 -1.7570  0.1263
 7529TIP3    H246783   6.021   6.619  11.200  0.7746  0.3021  0.6927
 7530TIP3   OH246784   6.854   5.116  12.346  0.2232  0.2864  0.3895
 7530TIP3    H146785   6.829   5.207  12.360 -0.0399  0.0754  1.3993
 7530TIP3    H246786   6.772   5.067  12.361  1.0063 -0.3758  3.1656
 7531TIP3   OH246787   2.364   0.377  11.619 -0.4011 -0.6511 -0.9059
 7531TIP3    H146788   2.458   0.362  11.631 -0.1204  0.7106 -1.2214
 7531TIP3    H246789   2.347   0.349  11.529  0.2415  1.3577 -1.7006
 7532TIP3   OH246790   3.545   7.452  10.798  0.1222  0.6493  0.3673
 7532TIP3    H146791   3.578   7.364  10.779  1.2631  0.9641  0.8326
 7532TIP3    H246792   3.457   7.437  10.832  1.1268 -0.5126  2.6510
 7533TIP3   OH246793   3.297   6.115  12.362 -0.3478  0.7005 -0.1101
 7533TIP3    H146794   3.357   6.166  12.307  1.8864  0.7203  2.2020
 7533TIP3    H246795   3.294   6.029  12.320 -1.7350  1.7126 -2.3079
 7534TIP3   OH246796   3.980   5.365  11.468  0.6561 -0.3264 -0.2851
 7534TIP3    H146797   3.954   5.276  11.491 -0.3871 -0.9608 -3.4311
 7534TIP3    H246798   3.897   5.411  11.454  1.2003  0.8521  0.2945
 7535TIP3   OH246799   1.450   3.319  11.506 -0.0176 -0.8479 -0.3742
 7535TIP3    H146800   1.510   3.367  11.563  0.9177 -1.5906 -0.7006
 7535TIP3    H246801   1.453   3.366  11.423 -0.4704 -0.4545 -0.1734
 7536TIP3   OH246802   0.676   1.015  11.234 -0.5321  0.0589 -0.6608
 7536TIP3    H146803   0.583   1.037  11.228 -0.1230  1.9686 -0.6161
 7536TIP3    H246804   0.686   0.937  11.181 -1.8374  0.9460 -2.3058
 7537TIP3   OH246805   0.101   6.422  11.042  0.3726 -0.0818  0.3668
 7537TIP3    H146806   0.111   6.328  11.061  0.1447  0.3497  2.8977
 7537TIP3    H246807   0.007   6.434  11.030  0.5401 -0.4147 -1.7794
 7538TIP3   OH246808   6.626   0.117  12.660  0.1496 -0.1584 -0.1670
 7538TIP3    H146809   6.604   0.088  12.571  0.0963  1.3122 -0.6568
 7538TIP3    H246810   6.553   0.086  12.714  0.3543 -1.3701 -0.5509
 7539TIP3   OH246811   4.420   0.398  10.622 -0.1306  0.1648 -0.4628
 7539TIP3    H146812   4.408   0.466  10.689 -0.4053 -0.5285  0.2123
 7539TIP3    H246813   4.511   0.407  10.595  0.9293 -1.4499  2.2082
 7540TIP3   OH246814   0.313   4.824  11.599 -0.2843 -0.6103  0.4512
 7540TIP3    H146815   0.388   4.826  11.539  0.9676 -4.0452  1.6650
 7540TIP3    H246816   0.249   4.884  11.560  3.4575  3.6458  0.0620
 7541TIP3   OH246817   2.082   4.508  11.892  0.3085 -0.1193 -0.6841
 7541TIP3    H146818   2.074   4.418  11.862  1.9270 -1.6087  2.8179
 7541TIP3    H246819   2.023   4.515  11.966  1.1033  1.3076 -0.1272
 7542TIP3   OH246820   1.250   2.997  11.365 -0.2082 -0.1259  0.2036
 7542TIP3    H146821   1.345   3.011  11.362 -0.2759  0.3935  0.3298
 7542TIP3    H246822   1.215   3.082  11.392 -0.7066 -0.3286  0.1945
 7543TIP3   OH246823   5.504   1.268  10.524  0.1715  0.2629 -0.4501
 7543TIP3    H146824   5.492   1.362  10.536  1.8076  0.4268  0.1651
 7543TIP3    H246825   5.428   1.240  10.473 -1.3254  1.5701  0.9520
 7544TIP3   OH246826   5.284   4.110  11.918  0.4916  0.0747  0.3703
 7544TIP3    H146827   5.207   4.054  11.926  0.7163 -0.3244 -0.1792
 7544TIP3    H246828   5.249   4.199  11.916 -0.1005 -0.1533 -1.3531
 7545TIP3   OH246829   4.077   2.570  11.271 -0.7860 -0.2516  0.8534
 7545TIP3    H146830   4.136   2.495  11.266 -0.7970 -0.1783 -1.0508
 7545TIP3    H246831   4.134   2.646  11.266 -0.9663 -0.1802 -0.6878
 7546TIP3   OH246832   6.400   7.012  11.252 -0.0155 -0.1393 -0.2012
 7546TIP3    H146833   6.421   7.066  11.176 -0.4273  0.0496 -0.1802
 7546TIP3    H246834   6.464   6.941  11.248  0.2815  0.1377 -0.4440
 7547TIP3   OH246835   7.665   3.065  11.026 -0.0508 -0.0573  0.2305
 7547TIP3    H146836   7.740   3.052  11.084  0.9621 -0.7589 -1.1841
 7547TIP3    H246837   7.698   3.121  10.956 -1.5317  1.6207  0.8005
 7548TIP3   OH246838   6.821   1.372  11.207 -0.4388 -0.0712  0.3168
 7548TIP3    H146839   6.802   1.279  11.221 -1.1991  0.0768  0.3095
 7548TIP3    H246840   6.762   1.418  11.267 -2.1690  0.5019 -1.7298
 7549TIP3   OH246841   3.861   2.616  11.446  0.3266 -0.2976  0.0135
 7549TIP3    H146842   3.936   2.582  11.398  0.6056  1.8905 -1.2338
 7549TIP3    H246843   3.789   2.613  11.383  0.2579  0.9231  0.0180
 7550TIP3   OH246844   3.796   6.533  11.692 -0.7121  0.1253  0.0103
 7550TIP3    H146845   3.855   6.586  11.745 -0.2127  0.2856 -0.7056
 7550TIP3    H246846   3.719   6.589  11.678 -0.5583  0.3289 -0.0088
 7551TIP3   OH246847   3.970   7.589  12.490 -0.1104  0.3262 -0.4112
 7551TIP3    H146848   3.885   7.632  12.499 -0.8084 -0.6702 -1.8031
 7551TIP3    H246849   3.952   7.497  12.508  0.4036 -0.0947 -1.9337
 7552TIP3   OH246850   5.324   3.811  10.473 -0.9023  0.0534  0.0148
 7552TIP3    H146851   5.377   3.735  10.499 -0.7234  0.3429  0.5195
 7552TIP3    H246852   5.234   3.783  10.487 -0.8235  0.0553  0.5659
 7553TIP3   OH246853   2.501   5.943  11.084 -0.0267  0.7419 -0.2298
 7553TIP3    H146854   2.407   5.960  11.079  0.1039  2.2046  1.4369
 7553TIP3    H246855   2.507   5.852  11.113 -0.8739  0.1162 -1.9090
 7554TIP3   OH246856   5.392   0.108  12.898  0.5221  0.5966  0.2756
 7554TIP3    H146857   5.469   0.158  12.926 -1.1198  2.4994  1.6212
 7554TIP3    H246858   5.366   0.059  12.976  1.4652 -1.6209 -0.7256
 7555TIP3   OH246859   4.409   6.693  11.986  0.1936  0.5526 -0.3798
 7555TIP3    H146860   4.430   6.742  12.066  1.1142 -1.0745  0.4381
 7555TIP3    H246861   4.480   6.714  11.925  0.5573  0.2880 -0.0520
 7556TIP3   OH246862   0.109   0.506  10.840  0.7643  0.2044 -0.0693
 7556TIP3    H146863   0.066   0.461  10.767  0.5664  0.2188  0.0395
 7556TIP3    H246864   0.066   0.591  10.846  0.7641  0.1949  0.0788
 7557TIP3   OH246865   5.779   4.350  10.966 -0.0099  0.6541  0.5275
 7557TIP3    H146866   5.804   4.376  11.055 -1.5742  0.3194  1.0974
 7557TIP3    H246867   5.688   4.322  10.974  0.1751 -0.5040 -0.9630
 7558TIP3   OH246868   0.106   6.080  12.734 -0.5315 -0.5099  0.1545
 7558TIP3    H146869   0.154   6.082  12.651 -1.8688 -2.1765 -0.7198
 7558TIP3    H246870   0.051   6.158  12.732 -0.2697 -0.3351 -0.3562
 7559TIP3   OH246871   2.750   1.354  12.602  0.2139 -0.1331 -0.2510
 7559TIP3    H146872   2.793   1.392  12.679  0.3622 -1.2235  0.2125
 7559TIP3    H246873   2.811   1.373  12.530  0.9839 -0.7424  0.2195
 7560TIP3   OH246874   0.061   3.349  11.900 -0.2499  0.2769 -0.0618
 7560TIP3    H146875   0.131   3.367  11.963  0.4692  0.7810 -0.9732
 7560TIP3    H246876   0.063   3.254  11.887 -0.0116  0.2416  0.2372
 7561TIP3   OH246877   1.900   0.406  10.613  0.3489  0.0200  0.1819
 7561TIP3    H146878   1.824   0.428  10.667 -1.3837 -1.8218 -1.3451
 7561TIP3    H246879   1.901   0.310  10.612  2.0774  0.0148 -0.7148
 7562TIP3   OH246880   4.832   0.882  12.521 -0.1221 -0.2722 -0.1113
 7562TIP3    H146881   4.916   0.871  12.565 -1.6705  0.4231  3.2765
 7562TIP3    H246882   4.774   0.820  12.565 -1.6906 -0.0101 -1.6919
 7563TIP3   OH246883   7.587   3.445  12.098  0.4484 -0.1415 -0.4952
 7563TIP3    H146884   7.613   3.444  12.006 -0.5173 -2.5818 -0.8069
 7563TIP3    H246885   7.590   3.537  12.122  0.1043  0.6493 -3.1344
 7564TIP3   OH246886   0.015   1.120  11.539 -0.2595  0.4663  0.8500
 7564TIP3    H146887  -0.068   1.152  11.575 -0.9530  0.0308 -0.3126
 7564TIP3    H246888   0.045   1.191  11.481 -0.7566 -0.1260 -0.1426
 7565TIP3   OH246889   3.497   5.756  12.142 -0.2379  0.1766 -0.3276
 7565TIP3    H146890   3.524   5.703  12.067 -1.8259 -1.1012 -0.0395
 7565TIP3    H246891   3.547   5.721  12.215 -0.7870 -0.5162 -0.2691
 7566TIP3   OH246892   4.873   1.996  12.861  0.4616  0.3489  0.3319
 7566TIP3    H146893   4.929   1.968  12.788 -1.0451 -0.9408 -0.4019
 7566TIP3    H246894   4.933   2.036  12.923  2.0190  0.1014 -0.9406
 7567TIP3   OH246895   6.313   4.761  11.601 -0.4782 -0.3005 -0.1654
 7567TIP3    H146896   6.392   4.761  11.547 -0.6595 -1.1592 -0.4550
 7567TIP3    H246897   6.331   4.697  11.670 -1.0340 -0.7428 -0.4198
 7568TIP3   OH246898   1.397   1.257  11.569  0.0345 -0.4104 -0.2697
 7568TIP3    H146899   1.356   1.277  11.485 -0.5032  1.5144  0.4035
 7568TIP3    H246900   1.386   1.163  11.579  0.6683 -0.8054 -2.6331
 7569TIP3   OH246901   4.455   2.589  11.270  0.1440  0.0204 -0.0535
 7569TIP3    H146902   4.395   2.547  11.331  1.4732  0.3127  1.5230
 7569TIP3    H246903   4.454   2.533  11.192 -0.9144 -0.8634  0.5743
 7570TIP3   OH246904   7.051   2.452  12.157  0.4723  0.9265  0.0521
 7570TIP3    H146905   7.127   2.441  12.214  0.3678  0.5275  0.1114
 7570TIP3    H246906   7.087   2.448  12.068  0.4028 -0.1699  0.0613
 7571TIP3   OH246907   2.047   2.215  12.026 -0.5187  0.1730 -0.6517
 7571TIP3    H146908   2.042   2.120  12.031 -1.5329  0.1552 -1.7020
 7571TIP3    H246909   2.036   2.244  12.117  3.3837 -0.7702  0.3444
 7572TIP3   OH246910   4.862   2.361  12.382  0.4230  0.2478  0.5599
 7572TIP3    H146911   4.909   2.444  12.378  2.2311 -0.7572 -1.1806
 7572TIP3    H246912   4.781   2.381  12.429  1.2455  2.7388  1.0704
 7573TIP3   OH246913   5.614   1.731  13.097  0.5089 -0.1183 -0.1645
 7573TIP3    H146914   5.690   1.782  13.126  1.7886 -2.2514  0.4103
 7573TIP3    H246915   5.651   1.650  13.062 -1.5325 -1.4630  0.6136
 7574TIP3   OH246916   2.312   0.830  13.402  0.2842 -0.2467 -0.2018
 7574TIP3    H146917   2.377   0.852  13.335 -0.4689  1.1186 -0.5160
 7574TIP3    H246918   2.247   0.777  13.356 -0.2162  0.6644 -0.5783
 7575TIP3   OH246919   5.785   6.611  10.393  0.4509  0.0832 -0.4172
 7575TIP3    H146920   5.785   6.516  10.382  0.6377  0.1147 -0.6964
 7575TIP3    H246921   5.786   6.624  10.487  1.2313 -0.1928 -0.3819
 7576TIP3   OH246922   3.062   1.963  11.439  0.5671  0.3676 -0.7224
 7576TIP3    H146923   3.008   1.994  11.511 -0.9263 -0.8390 -1.2620
 7576TIP3    H246924   3.024   2.004  11.361  1.6557  1.0229 -0.9285
 7577TIP3   OH246925   0.850   0.610  12.828  0.3344 -0.1639  0.4483
 7577TIP3    H146926   0.765   0.617  12.784 -0.4449  0.9867  2.0145
 7577TIP3    H246927   0.834   0.553  12.903  0.1164  2.2279  2.3819
 7578TIP3   OH246928   5.809   7.070  12.997 -0.2398 -0.2836  0.6617
 7578TIP3    H146929   5.803   7.037  13.086 -2.3035 -1.0336  0.2979
 7578TIP3    H246930   5.873   7.012  12.954 -0.3851 -0.8797  1.2418
 7579TIP3   OH246931   3.086   4.007  12.450 -0.1330 -0.2184  0.5688
 7579TIP3    H146932   2.998   4.001  12.487  0.2578 -0.9737  1.4118
 7579TIP3    H246933   3.135   4.059  12.513  0.3026 -0.7379  0.6656
 7580TIP3   OH246934   2.658   2.727  11.915  0.6108  0.3701  0.0671
 7580TIP3    H146935   2.616   2.778  11.985  1.1324  3.2383 -1.5341
 7580TIP3    H246936   2.594   2.725  11.845  0.4124 -1.7608  0.2401
 7581TIP3   OH246937   3.164   6.348  11.076  0.2204  0.2602  0.1550
 7581TIP3    H146938   3.224   6.286  11.036  0.7482  0.3069  0.8395
 7581TIP3    H246939   3.204   6.434  11.061 -0.3161  0.4064 -0.4667
 7582TIP3   OH246940   5.318   5.652  11.087 -0.3118  0.7790  0.0888
 7582TIP3    H146941   5.387   5.627  11.149 -1.5157 -1.7821  0.4948
 7582TIP3    H246942   5.239   5.661  11.140 -0.9408  0.5440 -0.7786
 7583TIP3   OH246943   1.844   3.685  13.094  0.0809 -0.7513  0.4573
 7583TIP3    H146944   1.911   3.724  13.037 -1.0969  1.4224  0.4792
 7583TIP3    H246945   1.797   3.624  13.037  0.8035 -0.8199 -0.0845
 7584TIP3   OH246946   6.223   3.645  12.797 -0.6281  0.0749 -0.1416
 7584TIP3    H146947   6.138   3.614  12.765 -0.7817  0.1676  0.1729
 7584TIP3    H246948   6.281   3.636  12.722 -0.3536 -2.2012  0.2935
 7585TIP3   OH246949   3.654   3.067  11.152  0.6617 -0.4936 -0.0611
 7585TIP3    H146950   3.635   3.113  11.071  1.6456  2.6854  1.3414
 7585TIP3    H246951   3.725   3.007  11.130 -0.6772 -1.4608 -1.9932
 7586TIP3   OH246952   0.729   3.150  11.788 -0.7058  0.8668  0.1224
 7586TIP3    H146953   0.759   3.155  11.879  1.3436  4.9843 -0.4984
 7586TIP3    H246954   0.658   3.214  11.783 -0.1795  1.3709 -1.3063
 7587TIP3   OH246955   5.895   2.161  10.787 -0.0269  0.4821  0.1442
 7587TIP3    H146956   5.890   2.248  10.828  0.5624  0.3456  0.5214
 7587TIP3    H246957   5.820   2.113  10.824 -0.3115  0.8087 -0.0109
 7588TIP3   OH246958   0.300   6.166  10.956 -0.1784  0.2886 -0.4951
 7588TIP3    H146959   0.242   6.193  10.884  0.0171  0.4758 -0.5841
 7588TIP3    H246960   0.242   6.161  11.032 -0.4938 -0.4421 -0.7738
 7589TIP3   OH246961   2.282   5.995  12.136  0.2010 -0.0085  0.2568
 7589TIP3    H146962   2.261   6.070  12.079  0.6430 -1.0396 -1.3423
 7589TIP3    H246963   2.376   5.982  12.123  0.1436 -0.7680  0.5946
 7590TIP3   OH246964   2.629   6.914  11.562 -0.6387 -0.0868 -0.3785
 7590TIP3    H146965   2.597   6.875  11.481 -1.4673  0.9036 -0.5603
 7590TIP3    H246966   2.645   7.006  11.540  2.2589 -0.4781 -0.2389
 7591TIP3   OH246967   4.134   0.863  12.333  0.5131 -0.4937  0.0895
 7591TIP3    H146968   4.075   0.926  12.374 -1.8308 -2.9322  0.7214
 7591TIP3    H246969   4.166   0.809  12.404 -2.7565 -4.0931 -0.8686
 7592TIP3   OH246970   2.457   3.054  10.859  0.2510  0.1110 -0.2985
 7592TIP3    H146971   2.380   3.013  10.818  0.2457 -0.2941  0.1015
 7592TIP3    H246972   2.454   3.024  10.950  1.6712 -1.0880 -0.6030
 7593TIP3   OH246973   2.641   3.221  10.756  0.1174 -0.0795  0.3961
 7593TIP3    H146974   2.609   3.311  10.761 -0.8167 -0.3801  0.0038
 7593TIP3    H246975   2.568   3.167  10.788  0.7397 -0.6871  0.8266
 7594TIP3   OH246976   6.935   6.310  11.253 -0.4265  0.4171 -0.7206
 7594TIP3    H146977   6.997   6.255  11.299  0.2120  1.3986 -0.3763
 7594TIP3    H246978   6.937   6.279  11.163  0.5350  0.4072 -0.6998
 7595TIP3   OH246979   4.148   7.197  11.797 -0.1034 -0.1793  0.0167
 7595TIP3    H146980   4.212   7.129  11.818 -0.6433 -0.9904 -0.8850
 7595TIP3    H246981   4.113   7.225  11.881  0.1767 -0.9675  0.3974
 7596TIP3   OH246982   6.457   4.343  12.856 -0.0027  0.0051 -0.0759
 7596TIP3    H146983   6.515   4.338  12.932  1.6005  0.0353 -1.2650
 7596TIP3    H246984   6.369   4.330  12.893  0.7106  0.1673  1.7917
 7597TIP3   OH246985   0.878   7.374  11.377 -0.2817 -0.3256 -0.1382
 7597TIP3    H146986   0.880   7.385  11.282 -1.0484 -0.2550 -0.1520
 7597TIP3    H246987   0.969   7.357  11.401  0.5730  2.9869 -0.4854
 7598TIP3   OH246988   7.557   6.199  11.615  0.2234 -0.0123 -0.5565
 7598TIP3    H146989   7.553   6.286  11.574 -0.2470  0.7458  1.0235
 7598TIP3    H246990   7.650   6.177  11.614  0.7073  1.6398  1.1911
 7599TIP3   OH246991   6.473   6.738  10.288  0.1084  0.4443  0.4360
 7599TIP3    H146992   6.483   6.805  10.221 -1.4402 -0.5565 -0.8705
 7599TIP3    H246993   6.380   6.736  10.307  0.4750  0.5375  2.5008
 7600TIP3   OH246994   4.631   6.889  11.193 -0.2742 -0.3169  0.1877
 7600TIP3    H146995   4.670   6.863  11.276  2.0275 -0.8784 -0.9602
 7600TIP3    H246996   4.555   6.832  11.182 -0.6357 -0.2071  1.8817
 7601TIP3   OH246997   2.510   6.413  12.426 -0.6013  0.0835  0.2426
 7601TIP3    H146998   2.422   6.435  12.396 -0.9619 -1.0157  0.4413
 7601TIP3    H246999   2.498   6.380  12.515 -0.0439 -0.4095  0.1415
 7602TIP3   OH247000   6.721   4.505  11.438  0.0907  0.0857  0.1714
 7602TIP3    H147001   6.743   4.413  11.453  0.1308  0.3601  2.0428
 7602TIP3    H247002   6.630   4.513  11.466 -0.1852  0.4541 -0.7869
 7603TIP3   OH247003   5.082   6.508  11.087 -0.3808 -0.4217  0.2043
 7603TIP3    H147004   5.054   6.416  11.086  2.7445 -1.5067  0.7790
 7603TIP3    H247005   5.060   6.538  11.176 -1.2387 -0.6358  0.0801
 7604TIP3   OH247006   6.779   1.202  12.103  0.1172  0.0501 -0.4247
 7604TIP3    H147007   6.699   1.252  12.113 -0.3882 -0.8361  0.1372
 7604TIP3    H247008   6.807   1.218  12.013 -0.3682  0.8212 -0.4443
 7605TIP3   OH247009   7.247   3.742  10.411  0.5823 -0.4945 -0.0572
 7605TIP3    H147010   7.185   3.772  10.478  1.9961 -0.4210  1.2650
 7605TIP3    H247011   7.333   3.756  10.450  1.3991 -3.0170 -0.8096
 7606TIP3   OH247012   0.190   0.062  11.108 -0.2839 -0.0391 -0.5114
 7606TIP3    H147013   0.232   0.106  11.182  1.3698 -0.5478 -1.0940
 7606TIP3    H247014   0.241  -0.018  11.095 -1.1861 -0.4779 -1.5487
 7607TIP3   OH247015   6.592   5.298  10.769  0.5560  0.5290  0.4036
 7607TIP3    H147016   6.656   5.338  10.828  0.8101  0.6687  0.0333
 7607TIP3    H247017   6.545   5.373  10.731  1.0280  0.4792 -0.2856
 7608TIP3   OH247018   2.549   2.148  12.107 -0.1221  0.0073 -0.3694
 7608TIP3    H147019   2.522   2.239  12.094 -2.1245 -0.3028  1.0985
 7608TIP3    H247020   2.618   2.134  12.042  0.1788  2.5267 -0.6993
 7609TIP3   OH247021   7.127   3.269  11.642  0.3758 -0.1785  0.1254
 7609TIP3    H147022   7.204   3.310  11.603  1.8895 -2.2037  0.7873
 7609TIP3    H247023   7.145   3.269  11.736 -0.9245  0.2333  0.3866
 7610TIP3   OH247024   1.211   6.212  11.460  0.0773 -0.1216  0.4561
 7610TIP3    H147025   1.117   6.223  11.448  0.1790 -0.2651 -0.6316
 7610TIP3    H247026   1.249   6.294  11.429  0.2046  1.0846  3.4547
 7611TIP3   OH247027   7.403   2.901  10.822  0.1614  0.1015 -0.2357
 7611TIP3    H147028   7.393   2.865  10.910  0.5010 -0.2072 -0.3235
 7611TIP3    H247029   7.496   2.891  10.802  0.2271  0.8342 -0.3477
 7612TIP3   OH247030   0.530   5.973  10.332  0.2617 -0.1058 -0.1540
 7612TIP3    H147031   0.562   5.887  10.360 -1.4076 -0.9883 -0.8371
 7612TIP3    H247032   0.526   5.968  10.237 -1.3336  0.1463 -0.1249
 7613TIP3   OH247033   0.422   0.860  10.963 -0.2327 -0.3395 -0.7479
 7613TIP3    H147034   0.409   0.773  10.925  1.1329 -0.1004 -1.8407
 7613TIP3    H247035   0.361   0.917  10.916 -0.7206 -0.5941 -0.4296
 7614TIP3   OH247036   2.728   6.809  10.675 -0.2841  0.1639 -0.3861
 7614TIP3    H147037   2.646   6.852  10.695 -0.9215 -1.1181 -0.1409
 7614TIP3    H247038   2.793   6.854  10.728 -0.9763  0.6384  0.0697
 7615TIP3   OH247039   5.220   2.710  11.778  0.3947  0.4073  0.0238
 7615TIP3    H147040   5.294   2.660  11.742 -0.0158  0.2678 -0.6408
 7615TIP3    H247041   5.143   2.672  11.737 -0.3039 -1.1061  2.5833
 7616TIP3   OH247042   1.843   3.432  10.834  0.1058 -0.1321 -0.2445
 7616TIP3    H147043   1.863   3.521  10.808 -1.2589  0.1568 -0.3704
 7616TIP3    H247044   1.923   3.382  10.815  0.4050  0.7846 -1.4607
 7617TIP3   OH247045   5.911   5.762  11.849  0.3625 -0.0457  0.3627
 7617TIP3    H147046   5.978   5.820  11.883  0.0458  1.4386 -1.4236
 7617TIP3    H247047   5.953   5.676  11.844  1.1241  0.1823  2.1623
 7618TIP3   OH247048   2.217   6.446  10.672 -0.2725 -0.0422  0.2420
 7618TIP3    H147049   2.213   6.510  10.602  1.3044 -0.7356 -0.5168
 7618TIP3    H247050   2.135   6.458  10.720 -1.8136 -0.1517 -2.2232
 7619TIP3   OH247051   0.076   6.393  11.907  0.2348 -0.3556 -0.2292
 7619TIP3    H147052   0.078   6.463  11.842  1.0985 -0.9292 -0.8412
 7619TIP3    H247053  -0.015   6.363  11.908 -0.5328  1.7965  1.1835
 7620TIP3   OH247054   7.592   1.874  12.304 -0.5454  0.2338 -0.0451
 7620TIP3    H147055   7.517   1.882  12.245 -0.1017  1.0050 -0.5099
 7620TIP3    H247056   7.659   1.931  12.266  1.4615 -2.7912 -1.4669
 7621TIP3   OH247057   7.155   6.810  12.946  0.4898  0.5890 -0.1689
 7621TIP3    H147058   7.141   6.880  13.011 -0.3590  1.0915 -0.8711
 7621TIP3    H247059   7.228   6.760  12.981  0.5663  1.3255  0.7848
 7622TIP3   OH247060   2.515   7.084  11.343 -0.4693  0.2603 -0.1842
 7622TIP3    H147061   2.446   7.027  11.377 -1.0396  1.1060  0.0951
 7622TIP3    H247062   2.514   7.068  11.248  0.8979 -1.8421  0.0852
 7623TIP3   OH247063   7.540   4.208  12.960  0.3508  0.9014 -0.1164
 7623TIP3    H147064   7.636   4.215  12.953  0.3098  0.9969 -0.6110
 7623TIP3    H247065   7.525   4.120  12.995  0.5961  0.6054 -0.7312
 7624TIP3   OH247066   4.009   3.165  10.949 -0.3230 -0.3793 -0.0049
 7624TIP3    H147067   4.014   3.069  10.959  1.3471 -0.3835 -0.4766
 7624TIP3    H247068   4.101   3.193  10.949 -0.8079  1.2806  0.5257
 7625TIP3   OH247069   2.738   5.471  11.458  0.2341  0.0362  0.2121
 7625TIP3    H147070   2.792   5.394  11.442 -0.3046 -1.0867  3.1712
 7625TIP3    H247071   2.658   5.437  11.499 -2.0433  1.8202 -2.3874
 7626TIP3   OH247072   7.201   1.266  12.716  0.4431 -0.1421 -0.4160
 7626TIP3    H147073   7.287   1.293  12.684  0.0074  0.9830 -0.7226
 7626TIP3    H247074   7.148   1.259  12.637 -0.0175  0.2375 -0.1470
 7627TIP3   OH247075   2.769   1.586  12.003  0.2496  0.3873  0.2138
 7627TIP3    H147076   2.816   1.516  11.958 -1.6011 -0.3954 -0.6238
 7627TIP3    H247077   2.837   1.637  12.047  1.6226 -2.4575  1.6382
 7628TIP3   OH247078   0.139   0.175  12.717  0.3597 -0.3830 -0.0819
 7628TIP3    H147079   0.082   0.153  12.643 -0.3716 -0.8132  0.5957
 7628TIP3    H247080   0.180   0.258  12.692 -0.8886  0.1555 -0.4041
 7629TIP3   OH247081   2.744   2.636  12.788 -0.7529 -0.1222  0.5090
 7629TIP3    H147082   2.773   2.581  12.715  2.2912  0.3937  1.1710
 7629TIP3    H247083   2.821   2.691  12.808 -2.5474  2.0287  2.0143
 7630TIP3   OH247084   4.583   7.675  10.899  0.2510  0.0658  0.2988
 7630TIP3    H147085   4.515   7.731  10.861 -0.4176 -0.2474  1.0034
 7630TIP3    H247086   4.536   7.597  10.929  1.4983 -2.1589 -3.0470
 7631TIP3   OH247087   7.292   5.971  11.125  0.0133 -0.4429 -0.0661
 7631TIP3    H147088   7.321   5.891  11.081  0.0740 -1.3169  1.4736
 7631TIP3    H247089   7.199   5.977  11.105  0.0574 -0.7618 -0.3838
 7632TIP3   OH247090   1.145   4.673  13.021  0.2118  0.6480  0.3164
 7632TIP3    H147091   1.127   4.680  13.114  0.2313  0.6842  0.3175
 7632TIP3    H247092   1.066   4.635  12.983  0.3844  0.1886  0.4163
 7633TIP3   OH247093   5.100   6.953  11.073  0.2122  0.1092 -0.5040
 7633TIP3    H147094   5.007   6.933  11.070  0.2332 -0.1281  0.2932
 7633TIP3    H247095   5.141   6.879  11.028  0.0184  0.2389 -0.8992
 7634TIP3   OH247096   6.585   2.539  11.057 -0.0094  0.6326  0.2412
 7634TIP3    H147097   6.497   2.567  11.082 -0.3592 -0.3576  0.1977
 7634TIP3    H247098   6.574   2.499  10.970  0.0221 -1.5033  1.1393
 7635TIP3   OH247099   5.776   1.585  11.462  0.4219  0.2944  0.0916
 7635TIP3    H147100   5.763   1.678  11.446 -1.7229  0.3349  1.6917
 7635TIP3    H247101   5.738   1.542  11.385 -0.0506  0.7102  0.0903
 7636TIP3   OH247102   1.267   7.141  10.635 -0.1793 -0.0891 -0.3208
 7636TIP3    H147103   1.228   7.143  10.547  0.8934 -0.6187 -0.8328
 7636TIP3    H247104   1.196   7.115  10.693 -0.7657 -0.2987 -1.1239
 7637TIP3   OH247105   0.362   2.800  10.952  0.1379 -0.1545 -0.0267
 7637TIP3    H147106   0.452   2.769  10.941  0.6885  0.6857  1.6558
 7637TIP3    H247107   0.311   2.747  10.892  1.1983 -3.4556  1.6878
 7638TIP3   OH247108   6.839   5.150  11.258  0.1137  0.3463 -0.2556
 7638TIP3    H147109   6.844   5.098  11.178 -1.5938  0.5023 -0.4948
 7638TIP3    H247110   6.746   5.150  11.282  0.4627  1.0178  1.2588
 7639TIP3   OH247111   0.363   2.637  11.768  0.5837  0.0054 -0.2888
 7639TIP3    H147112   0.426   2.565  11.769  1.2189  0.4978 -1.7997
 7639TIP3    H247113   0.302   2.617  11.839  2.0454 -0.8388  0.7723
 7640TIP3   OH247114   4.917   4.792  11.465  0.0173  0.4419 -0.1625
 7640TIP3    H147115   5.004   4.827  11.485 -0.8934  1.8286  1.7113
 7640TIP3    H247116   4.921   4.701  11.492  0.2507  1.0765  2.1366
 7641TIP3   OH247117   5.746   4.899  12.377  0.4809 -0.1432  0.5973
 7641TIP3    H147118   5.678   4.963  12.356 -0.3980 -1.7377 -1.6953
 7641TIP3    H247119   5.710   4.848  12.449  0.9430  1.4838  2.0429
 7642TIP3   OH247120   4.193   4.797  10.866  0.1951  0.0597  0.4012
 7642TIP3    H147121   4.250   4.748  10.925  0.8201  0.7509  0.3807
 7642TIP3    H247122   4.117   4.740  10.853  0.1729 -0.2181  1.6457
 7643TIP3   OH247123   7.006   4.367  12.440 -0.2237  0.1724 -0.6378
 7643TIP3    H147124   7.090   4.365  12.395  0.5057  0.9306  0.6235
 7643TIP3    H247125   6.953   4.429  12.389  0.8653  1.6434 -0.0580
 7644TIP3   OH247126   1.796   2.976  11.123  0.1932 -0.0821  0.2256
 7644TIP3    H147127   1.771   3.050  11.067 -0.9510 -0.2895  0.4487
 7644TIP3    H247128   1.841   3.017  11.197 -0.7395  0.4264  0.5184
 7645TIP3   OH247129   4.461   5.988  11.602  0.3725  0.3108 -0.7828
 7645TIP3    H147130   4.543   5.963  11.644  0.5636  2.5421  0.3337
 7645TIP3    H247131   4.394   5.969  11.668  0.5220  2.5175  0.0837
 7646TIP3   OH247132   7.130   6.684  10.426 -0.0510  0.0411 -0.0213
 7646TIP3    H147133   7.077   6.753  10.385 -0.7876 -1.6889 -2.2293
 7646TIP3    H247134   7.067   6.633  10.476  0.2253  0.1384  0.4251
 7647TIP3   OH247135   0.033   3.027  10.550 -0.0538 -0.4687 -0.3021
 7647TIP3    H147136  -0.017   3.099  10.589  0.5106 -0.0343 -0.3516
 7647TIP3    H247137  -0.029   2.983  10.492 -0.2328  0.4192 -0.8135
 7648TIP3   OH247138   0.282   0.749  11.356  0.0331  0.4622  0.7537
 7648TIP3    H147139   0.373   0.749  11.387  0.0627  0.3301  0.6691
 7648TIP3    H247140   0.275   0.669  11.303  0.0216  0.7560  0.3095
 7649TIP3   OH247141   5.193   1.241  10.666 -0.4139 -0.6327 -0.0636
 7649TIP3    H147142   5.275   1.261  10.712  0.4047 -1.1012 -1.2625
 7649TIP3    H247143   5.162   1.160  10.707  0.0311 -0.7645  0.0244
 7650TIP3   OH247144   1.615   0.147  12.420 -0.5163 -0.0260  0.2211
 7650TIP3    H147145   1.693   0.195  12.392 -0.0614 -0.2090  1.1013
 7650TIP3    H247146   1.569   0.207  12.478  1.4405 -1.4222  3.5230
 7651TIP3   OH247147   5.065   0.798  12.645  0.1341 -0.3312 -0.2270
 7651TIP3    H147148   5.106   0.864  12.589 -0.8315  1.7934  1.3976
 7651TIP3    H247149   5.104   0.814  12.731 -0.8604 -1.2249  0.4024
 7652TIP3   OH247150   3.026   7.253  12.024  0.3511 -0.2504  0.1481
 7652TIP3    H147151   2.995   7.165  12.046  0.2850 -0.5794 -1.1485
 7652TIP3    H247152   3.032   7.299  12.108 -0.2118 -1.2977  0.7777
 7653TIP3   OH247153   6.425   3.478  11.382 -0.2866  0.3116 -0.0102
 7653TIP3    H147154   6.490   3.412  11.357 -0.2156  0.8972 -1.4940
 7653TIP3    H247155   6.357   3.470  11.315 -0.6686  1.1977  0.2618
 7654TIP3   OH247156   0.552   7.201  12.080 -0.3633 -0.4462 -0.3796
 7654TIP3    H147157   0.477   7.260  12.085  0.1317  0.2452 -0.8523
 7654TIP3    H247158   0.584   7.195  12.170  0.0508  0.6520 -0.4338
 7655TIP3   OH247159   6.224   7.619  12.399 -0.3910  0.1299  0.3768
 7655TIP3    H147160   6.210   7.527  12.421 -0.6584 -0.0449 -0.4800
 7655TIP3    H247161   6.137   7.659  12.408 -0.7073 -0.1331 -1.1480
 7656TIP3   OH247162   5.682   3.284  12.221 -0.5369  0.6727  0.4969
 7656TIP3    H147163   5.623   3.244  12.157 -0.5917 -1.0426  1.5463
 7656TIP3    H247164   5.702   3.370  12.185 -2.2391  0.5916 -0.7703
 7657TIP3   OH247165   6.005   3.514  11.831  0.9273 -0.3434 -0.1402
 7657TIP3    H147166   5.925   3.470  11.859  0.3419  0.6982 -0.1430
 7657TIP3    H247167   6.001   3.513  11.736 -0.2697  1.7381 -0.1728
 7658TIP3   OH247168   4.164   6.075  11.225  0.2879  0.8399  0.5642
 7658TIP3    H147169   4.166   6.032  11.140  0.6866 -0.6509  1.3020
 7658TIP3    H247170   4.128   6.162  11.206 -1.9119 -0.2683 -0.7868
 7659TIP3   OH247171   5.951   4.174  11.914  0.1881  0.1175 -0.5538
 7659TIP3    H147172   5.960   4.079  11.907 -0.2766  0.0203  0.1144
 7659TIP3    H247173   6.040   4.207  11.906  0.6181 -0.5070  1.1983
 7660TIP3   OH247174   0.090   0.802  11.121 -0.1298 -0.4658  0.8466
 7660TIP3    H147175   0.102   0.895  11.102 -0.9013 -0.3251  0.9980
 7660TIP3    H247176   0.122   0.790  11.210  2.2927 -0.8654  0.0040
 7661TIP3   OH247177   3.015   2.943  10.663 -0.1558  0.4975 -0.0637
 7661TIP3    H147178   2.972   2.877  10.608 -2.3205  0.1906  1.8433
 7661TIP3    H247179   3.086   2.895  10.705  2.0608  0.9192 -2.9774
 7662TIP3   OH247180   7.171   1.408  11.560  0.0718 -0.1055 -0.3428
 7662TIP3    H147181   7.136   1.420  11.648 -2.5663  0.1678 -1.3255
 7662TIP3    H247182   7.253   1.456  11.560  1.9562 -2.8548  2.8875
 7663TIP3   OH247183   4.602   4.848  10.586  0.4638  0.2911  0.0390
 7663TIP3    H147184   4.688   4.813  10.566  0.3105 -0.3521  0.5092
 7663TIP3    H247185   4.542   4.775  10.572  0.3716 -0.3832  3.2401
 7664TIP3   OH247186   2.229   3.391  12.876  0.9437 -0.2869  0.6585
 7664TIP3    H147187   2.292   3.454  12.840  1.5487 -0.3953  1.4870
 7664TIP3    H247188   2.146   3.438  12.877  1.1046  0.0270  0.0009
 7665TIP3   OH247189   2.981   1.413  11.967 -0.6225  0.3141  0.3147
 7665TIP3    H147190   3.005   1.366  11.887 -2.0828  1.1521 -0.6491
 7665TIP3    H247191   3.065   1.442  12.003  0.0952 -0.5290 -0.6123
 7666TIP3   OH247192   1.056   0.444  13.073  0.7434  0.3714  0.0532
 7666TIP3    H147193   1.150   0.460  13.076  1.5070 -3.3427  0.7473
 7666TIP3    H247194   1.038   0.423  12.981  0.7338  0.4896  0.0289
 7667TIP3   OH247195   2.892   6.264  10.991  0.0535  0.2734 -0.0344
 7667TIP3    H147196   2.952   6.189  10.995 -1.0590 -0.6011  2.8467
 7667TIP3    H247197   2.950   6.340  10.986  1.2770 -0.6786 -0.9958
 7668TIP3   OH247198   3.084   6.460  10.786 -0.1727 -0.5506  0.0251
 7668TIP3    H147199   3.101   6.534  10.844  2.1678  0.4719 -1.7710
 7668TIP3    H247200   3.008   6.487  10.735 -0.8119 -0.4503  1.0100
 7669TIP3   OH247201   4.132   7.117  11.395  0.0440 -0.1290  0.5705
 7669TIP3    H147202   4.042   7.128  11.426 -0.2268 -1.2736  0.2305
 7669TIP3    H247203   4.161   7.206  11.374 -0.6447  0.3658  1.6568
 7670TIP3   OH247204   1.950   1.615  13.196 -0.1791  0.1495  0.4050
 7670TIP3    H147205   1.944   1.688  13.258  1.4295  0.8893 -0.2646
 7670TIP3    H247206   1.876   1.629  13.137 -0.2892  0.8490  0.6933
 7671TIP3   OH247207   7.124   4.353  11.426  0.4724 -0.4384 -0.6152
 7671TIP3    H147208   7.129   4.306  11.510 -0.2499 -0.3258 -0.5072
 7671TIP3    H247209   7.058   4.420  11.440  1.0763  0.2477 -0.9608
 7672TIP3   OH247210   4.730   3.486  10.737 -0.1931  0.0846  0.2408
 7672TIP3    H147211   4.754   3.394  10.747  1.4128  0.6148  1.9282
 7672TIP3    H247212   4.653   3.485  10.680 -0.5097 -2.3165  0.6032
 7673TIP3   OH247213   3.426   2.095  11.564 -0.5007 -0.5841 -0.2709
 7673TIP3    H147214   3.506   2.125  11.606 -1.8029  1.3970  1.0038
 7673TIP3    H247215   3.411   2.007  11.600  1.2539 -1.1633 -0.8636
 7674TIP3   OH247216   0.834   5.986  10.992 -0.7126 -0.2966  0.3493
 7674TIP3    H147217   0.739   6.002  10.996 -1.2247 -3.0448  1.5894
 7674TIP3    H247218   0.872   6.048  11.054 -1.4565  1.7622 -1.1114
 7675TIP3   OH247219   2.947   6.000  10.980  0.4036 -0.0343  0.6165
 7675TIP3    H147220   2.892   5.958  11.046 -0.0798  0.1060  0.3060
 7675TIP3    H247221   2.971   5.929  10.919 -0.2864  0.1007  0.1780
 7676TIP3   OH247222   1.780   3.873  10.604  0.0733 -0.0322  0.2354
 7676TIP3    H147223   1.737   3.917  10.531 -0.0665 -1.3040 -0.4731
 7676TIP3    H247224   1.815   3.944  10.657 -0.8275  0.9524 -0.4469
 7677TIP3   OH247225   2.215   3.115  11.079 -0.0170  0.2179 -0.3508
 7677TIP3    H147226   2.180   3.026  11.071  0.8176 -0.2128  0.5562
 7677TIP3    H247227   2.139   3.171  11.066 -0.4126 -0.5833 -1.8027
 7678TIP3   OH247228   6.201   4.067  11.596  0.5756  0.3289  0.5930
 7678TIP3    H147229   6.201   4.014  11.517 -2.9075 -1.3306  1.4965
 7678TIP3    H247230   6.162   4.150  11.568 -1.1787 -0.4517  0.5785
 7679TIP3   OH247231   0.757   1.259  12.114  0.0858 -0.2915 -0.4488
 7679TIP3    H147232   0.726   1.316  12.043  0.1851  0.2199 -0.0912
 7679TIP3    H247233   0.819   1.313  12.163 -1.4015  0.0570  1.1727
 7680TIP3   OH247234   6.582   5.490  11.674 -0.6283 -0.0777  0.0270
 7680TIP3    H147235   6.513   5.542  11.717  0.9908  1.7481  0.5609
 7680TIP3    H247236   6.537   5.410  11.646 -2.7276  0.5726  1.2596
 7681TIP3   OH247237   7.117   7.508  10.649  0.4188  0.1701  0.5295
 7681TIP3    H147238   7.194   7.490  10.595  0.3933 -0.3119  0.6487
 7681TIP3    H247239   7.092   7.422  10.684 -0.1821  0.3196  0.4734
 7682TIP3   OH247240   5.550   4.376  12.744  0.1743 -1.1822 -0.5757
 7682TIP3    H147241   5.455   4.366  12.745  0.1258 -0.7343  1.1268
 7682TIP3    H247242   5.581   4.314  12.810  0.7473  1.2076  1.5220
 7683TIP3   OH247243   3.299   1.213  12.077 -0.0421  0.0652  0.1068
 7683TIP3    H147244   3.366   1.155  12.041  0.4185 -0.0316  1.0925
 7683TIP3    H247245   3.217   1.167  12.063  0.1551 -0.0959 -0.5520
 7684TIP3   OH247246   3.303   1.911  12.236  0.3017  0.9228  0.1373
 7684TIP3    H147247   3.319   1.823  12.269 -0.0165  1.2301  1.1499
 7684TIP3    H247248   3.344   1.912  12.149  0.0063 -0.3170 -0.0346
 7685TIP3   OH247249   3.218   3.125  11.059 -0.4332  0.3976 -0.3027
 7685TIP3    H147250   3.196   3.040  11.097 -1.3807  0.7643 -0.0141
 7685TIP3    H247251   3.217   3.110  10.965  1.9612 -0.5258 -0.2705
 7686TIP3   OH247252   4.050   2.996  11.262 -0.8922  0.3406 -0.6402
 7686TIP3    H147253   4.072   3.082  11.227 -1.1960  1.2148  1.2471
 7686TIP3    H247254   4.131   2.945  11.250 -0.2411  1.3012 -0.4980
 7687TIP3   OH247255   5.121   0.221  11.383  0.0038 -0.2044  0.3647
 7687TIP3    H147256   5.063   0.150  11.356 -0.3690  0.1689  0.1845
 7687TIP3    H247257   5.174   0.182  11.453  0.8493 -1.1225 -0.7431
 7688TIP3   OH247258   1.591   1.985  12.427  0.0167  0.1431 -0.1051
 7688TIP3    H147259   1.609   1.925  12.500  0.3936  1.2766  0.7601
 7688TIP3    H247260   1.677   2.005  12.391 -0.0773  0.4479 -0.1596
 7689TIP3   OH247261   7.511   1.810  11.074 -0.2831 -0.0868 -0.6200
 7689TIP3    H147262   7.421   1.809  11.107 -1.1013 -2.3722 -2.6488
 7689TIP3    H247263   7.502   1.820  10.979  1.6940  0.9801 -0.7451
 7690TIP3   OH247264   1.081   0.306  11.500 -0.4507 -0.1379 -0.0466
 7690TIP3    H147265   0.992   0.330  11.524 -0.2770  0.8077 -0.2952
 7690TIP3    H247266   1.126   0.294  11.584 -1.2002 -2.2452  0.1029
 7691TIP3   OH247267   1.503   4.234  11.379  0.0099 -0.3509  1.0327
 7691TIP3    H147268   1.427   4.200  11.426  0.1862 -1.5624  0.4799
 7691TIP3    H247269   1.574   4.174  11.401 -0.1529 -1.6475 -1.6036
 7692TIP3   OH247270   1.339   0.970  11.527 -0.1251 -0.0228 -0.0265
 7692TIP3    H147271   1.413   0.954  11.470  0.5864  1.3487  0.4525
 7692TIP3    H247272   1.265   0.984  11.468 -0.0053 -1.2889 -0.5082
 7693TIP3   OH247273   0.658   6.460  16.600  0.0865 -0.2358  0.3772
 7693TIP3    H147274   0.656   6.370  16.633 -1.2684 -0.3076  0.1668
 7693TIP3    H247275   0.622   6.454  16.511  0.6894  0.4178  0.0745
 7694TIP3   OH247276   3.487   6.849  11.907 -0.0565  0.4326 -0.1730
 7694TIP3    H147277   3.543   6.803  11.845 -0.2858 -0.1154  0.0142
 7694TIP3    H247278   3.497   6.800  11.989 -0.1347  0.8532  0.0930
 7695TIP3   OH247279   0.139   1.509  13.060  0.2352  0.8597  0.3551
 7695TIP3    H147280   0.217   1.548  13.100 -0.1391  1.7280  0.2636
 7695TIP3    H247281   0.078   1.496  13.132  0.2869  0.6037  0.3546
 7696TIP3   OH247282   6.054   5.994  10.331  0.5438  0.0745 -0.6466
 7696TIP3    H147283   6.009   6.078  10.319 -0.1590 -0.2695 -0.5146
 7696TIP3    H247284   6.147   6.014  10.321  0.3359  0.7399 -1.3283
 7697TIP3   OH247285   6.339   6.009  10.333 -0.4167 -0.5407  0.0786
 7697TIP3    H147286   6.309   5.961  10.410 -1.0734  0.7146  0.6252
 7697TIP3    H247287   6.427   5.975  10.317  0.1304 -0.1397  1.9762
 7698TIP3   OH247288   4.210   5.420  11.607  0.5299 -0.5309 -0.0174
 7698TIP3    H147289   4.132   5.394  11.559 -1.1841  0.5016  2.0402
 7698TIP3    H247290   4.232   5.506  11.574  1.3304 -1.1416 -1.1519
 7699TIP3   OH247291   0.439   5.759  10.648 -0.1924 -0.0011 -0.3294
 7699TIP3    H147292   0.519   5.811  10.637 -0.0587 -0.4017 -1.4010
 7699TIP3    H247293   0.468   5.675  10.682 -0.3469  0.4172  0.8606
 7700TIP3   OH247294   4.997   1.138  12.170 -0.8483  0.0659 -0.0465
 7700TIP3    H147295   4.988   1.137  12.265  0.0180  0.7300  0.0534
 7700TIP3    H247296   4.964   1.223  12.143 -2.3987 -0.6581 -0.4972
 7701TIP3   OH247297   7.525   4.796  10.755  0.0682 -0.0740 -0.5290
 7701TIP3    H147298   7.614   4.831  10.756  0.4808 -1.0965 -0.5373
 7701TIP3    H247299   7.488   4.825  10.839  0.5420  0.0194 -0.3445
 7702TIP3   OH247300   1.711   1.853  12.643  0.1151 -0.4003 -0.0478
 7702TIP3    H147301   1.702   1.758  12.650  1.2348 -0.4544  1.2415
 7702TIP3    H247302   1.805   1.867  12.632  0.3564  0.6319  2.5960
 7703TIP3   OH247303   6.498   6.914  11.875 -0.0614 -0.4888 -0.3575
 7703TIP3    H147304   6.504   7.001  11.835  1.7156 -0.4033  0.0151
 7703TIP3    H247305   6.589   6.887  11.888 -0.5698 -2.5688 -0.7645
 7704TIP3   OH247306   5.157   0.600  12.174 -0.4387  0.2146  0.2499
 7704TIP3    H147307   5.182   0.540  12.104  0.6476  1.2332 -0.2882
 7704TIP3    H247308   5.078   0.563  12.212  0.6839 -2.0285  0.5476
 7705TIP3   OH247309   1.849   1.984  12.287  0.6480  0.1441 -0.4950
 7705TIP3    H147310   1.873   2.066  12.244 -0.7713  0.6587 -0.3669
 7705TIP3    H247311   1.931   1.936  12.296  1.6541  1.8876  0.1312
 7706TIP3   OH247312   0.868   4.836  12.064 -0.2416 -0.0471 -0.1493
 7706TIP3    H147313   0.843   4.920  12.025  0.0352  0.4336  0.6809
 7706TIP3    H247314   0.938   4.803  12.007 -0.3177  0.3085 -0.4536
 7707TIP3   OH247315   2.892   6.791  10.972  0.1707 -0.2925 -0.7188
 7707TIP3    H147316   2.824   6.851  11.003  1.2674  0.6006  0.0697
 7707TIP3    H247317   2.880   6.712  11.026  1.2003  0.7456  1.1431
 7708TIP3   OH247318   3.836   0.044  11.047 -0.1466 -0.4151 -0.4785
 7708TIP3    H147319   3.887   0.010  11.120  1.0111 -0.7443 -1.4105
 7708TIP3    H247320   3.752  -0.002  11.054  0.4504 -1.5027 -0.1726
 7709TIP3   OH247321   6.365   2.472  11.941  0.2651  0.5713 -0.4006
 7709TIP3    H147322   6.445   2.520  11.963 -0.4794  1.3594  0.7418
 7709TIP3    H247323   6.339   2.430  12.023 -1.6813  2.1641 -0.1270
 7710TIP3   OH247324   2.196   1.592  10.430 -0.3356 -0.1549  0.0803
 7710TIP3    H147325   2.211   1.566  10.339  0.1957  0.5618 -0.0368
 7710TIP3    H247326   2.135   1.665  10.424  0.1706  0.2814  0.2676
 7711TIP3   OH247327   0.933   4.873  13.143 -0.0216  0.0281  0.4887
 7711TIP3    H147328   0.977   4.940  13.196  1.7250 -0.3550 -0.4046
 7711TIP3    H247329   0.962   4.790  13.180  0.3852 -0.2367 -0.4007
 7712TIP3   OH247330   2.149   2.382  13.124 -0.0933 -0.4634  0.1455
 7712TIP3    H147331   2.067   2.426  13.102  0.7383  0.7804 -0.5935
 7712TIP3    H247332   2.132   2.339  13.208 -1.5245 -0.3011 -0.0468
 7713TIP3   OH247333   1.143   5.100  12.940  0.5009  0.1573  0.2017
 7713TIP3    H147334   1.160   5.172  13.001  2.8215  0.3102 -0.5282
 7713TIP3    H247335   1.169   5.135  12.854  0.5792 -1.1778 -0.3397
 7714TIP3   OH247336   5.745   6.756  10.973  0.2238  0.7995  0.3985
 7714TIP3    H147337   5.694   6.675  10.974  0.6335  0.5006 -0.8053
 7714TIP3    H247338   5.693   6.818  11.023 -0.1678 -0.1614  1.2137
 7715TIP3   OH247339   3.485   1.020  11.449  0.1303  0.1840  0.2457
 7715TIP3    H147340   3.534   1.067  11.516  0.3963 -0.4308  0.4934
 7715TIP3    H247341   3.434   1.088  11.404  1.0058  0.7965  0.1508
 7716TIP3   OH247342   1.892   7.489  11.151 -0.1496  0.3696  0.4617
 7716TIP3    H147343   1.811   7.452  11.185 -0.3133  1.0308  0.8041
 7716TIP3    H247344   1.876   7.504  11.058 -0.2864  0.1575  0.4498
 7717TIP3   OH247345   0.554   2.834  11.799 -0.4033 -0.6955  0.1176
 7717TIP3    H147346   0.473   2.784  11.787 -1.2367  0.5900  0.1770
 7717TIP3    H247347   0.534   2.894  11.871  0.0138  0.7908 -0.9638
 7718TIP3   OH247348   7.277   5.243  11.913 -0.0935  0.0034  0.4353
 7718TIP3    H147349   7.235   5.182  11.852 -0.4901 -0.9723  1.6491
 7718TIP3    H247350   7.260   5.329  11.875  0.6124 -0.5967 -1.4073
 7719TIP3   OH247351   5.129   4.583  12.729 -0.3069  0.0554  0.0493
 7719TIP3    H147352   5.135   4.603  12.636 -1.6990  1.2912  0.1989
 7719TIP3    H247353   5.152   4.666  12.773 -0.7738 -0.1935  0.7803
 7720TIP3   OH247354   1.998   3.308  11.089  0.0538 -0.0223  0.4772
 7720TIP3    H147355   2.008   3.401  11.105 -1.4077 -0.0332  1.6919
 7720TIP3    H247356   2.003   3.299  10.993  0.8004  1.2020  0.3922
 7721TIP3   OH247357   3.859   6.033  10.788 -0.3322 -0.3301  0.2552
 7721TIP3    H147358   3.897   5.947  10.770  1.9372  0.7469 -0.5919
 7721TIP3    H247359   3.866   6.080  10.705  0.2688  1.2604  1.1538
 7722TIP3   OH247360   3.055   1.947  12.160 -0.2855  0.5116  0.8246
 7722TIP3    H147361   3.051   2.043  12.151  0.8225  0.5403  0.5380
 7722TIP3    H247362   3.141   1.930  12.197  0.8422 -0.5721 -2.0370
 7723TIP3   OH247363   1.875   5.878  10.537 -0.1742  0.4426  0.2014
 7723TIP3    H147364   1.819   5.805  10.562 -0.5452  0.3303 -0.9262
 7723TIP3    H247365   1.815   5.947  10.509  0.2144  0.1556 -1.4812
 7724TIP3   OH247366   4.150   4.498  12.674  0.2485  0.1537  0.0791
 7724TIP3    H147367   4.145   4.564  12.743  3.5673 -0.0557  0.6524
 7724TIP3    H247368   4.135   4.547  12.593  0.7998  1.2521  0.6211
 7725TIP3   OH247369   4.587   1.333  10.709  0.2422  0.0545 -0.0347
 7725TIP3    H147370   4.559   1.264  10.769 -1.2093  0.1959 -0.5093
 7725TIP3    H247371   4.507   1.358  10.662  0.5602  2.5311  0.5924
 7726TIP3   OH247372   0.686   5.216  11.386  0.3526  0.7872  0.1308
 7726TIP3    H147373   0.748   5.220  11.313  1.2286  0.8135  0.8551
 7726TIP3    H247374   0.687   5.304  11.424 -0.8832  1.0658 -0.4426
 7727TIP3   OH247375   5.246   2.501  11.189 -0.3370  0.5092 -0.4849
 7727TIP3    H147376   5.334   2.540  11.195 -0.5000  0.6941  1.7354
 7727TIP3    H247377   5.216   2.522  11.101  1.2838  1.7024 -0.7976
 7728TIP3   OH247378   4.008   5.044  12.248 -0.3962 -0.2035 -0.1832
 7728TIP3    H147379   3.939   4.991  12.289 -0.3200  0.2832  0.5904
 7728TIP3    H247380   4.081   5.040  12.310 -0.4603  0.9618 -0.0192
 7729TIP3   OH247381   6.012   3.815  10.303 -0.2611 -0.0118  0.0096
 7729TIP3    H147382   6.094   3.790  10.261  0.0689 -0.5753  0.9430
 7729TIP3    H247383   5.952   3.742  10.284 -0.1645 -0.1840  0.3498
 7730TIP3   OH247384   6.483   3.403  12.042 -0.7387  0.0134  0.2291
 7730TIP3    H147385   6.433   3.322  12.032 -1.0806  0.1568  0.7613
 7730TIP3    H247386   6.455   3.457  11.969 -0.1489 -0.5263 -0.4151
 7731TIP3   OH247387   2.812   1.150  10.642 -0.1310 -0.1827  0.1322
 7731TIP3    H147388   2.750   1.138  10.570  2.6009 -0.1752 -2.4041
 7731TIP3    H247389   2.810   1.244  10.660 -0.0169  0.0058 -0.7834
 7732TIP3   OH247390   5.342   4.734  13.216  0.1550  0.6954  0.4419
 7732TIP3    H147391   5.266   4.702  13.167  0.6229  0.5984 -0.2301
 7732TIP3    H247392   5.382   4.799  13.159  0.3790  1.0087  0.9468
 7733TIP3   OH247393   4.531   2.400  12.094  0.2719 -0.1084 -0.8082
 7733TIP3    H147394   4.527   2.328  12.157  1.4901 -0.8936 -1.6009
 7733TIP3    H247395   4.536   2.479  12.148  1.0335 -0.7469  0.0846
 7734TIP3   OH247396   5.247   6.648  12.008  0.5551  0.1252  0.2786
 7734TIP3    H147397   5.223   6.725  11.958  0.6101 -0.6981 -1.0520
 7734TIP3    H247398   5.171   6.631  12.064 -0.3994 -0.1508 -1.0449
 7735TIP3   OH247399   3.304   4.723  11.969  0.3688  0.1382 -0.1160
 7735TIP3    H147400   3.395   4.708  11.941  0.6065  1.7589 -0.3014
 7735TIP3    H247401   3.281   4.807  11.931 -0.8704  0.2436  0.8088
 7736TIP3   OH247402   6.281   4.393  11.408  0.1953 -0.9195 -1.1368
 7736TIP3    H147403   6.201   4.370  11.455 -0.4061  2.9851  0.0897
 7736TIP3    H247404   6.348   4.336  11.447 -1.3891 -2.0241  0.0955
 7737TIP3   OH247405   2.722   7.590  13.903 -0.1886  0.1187 -0.0818
 7737TIP3    H147406   2.721   7.595  13.999  0.0390  1.2716 -0.1242
 7737TIP3    H247407   2.684   7.673  13.875  0.9699  0.3514 -0.9991
 7738TIP3   OH247408   6.912   1.827  10.801  0.4413 -0.2867  0.3622
 7738TIP3    H147409   6.839   1.794  10.748 -0.1536  1.3122  0.1054
 7738TIP3    H247410   6.873   1.843  10.887  0.2110  1.4475 -0.0295
 7739TIP3   OH247411   6.006   1.496  10.595  0.1301  0.1571 -0.1682
 7739TIP3    H147412   5.995   1.424  10.657 -1.8097  0.2818 -0.2885
 7739TIP3    H247413   6.052   1.457  10.520 -1.3779 -1.1429 -0.4750
 7740TIP3   OH247414   7.609   5.205  11.249 -0.2239 -0.3151 -0.0630
 7740TIP3    H147415   7.652   5.204  11.335 -0.6072  0.0628  0.1407
 7740TIP3    H247416   7.516   5.214  11.270 -0.1684  1.8747 -0.5584
 7741TIP3   OH247417   7.411   5.758  12.355 -0.3497 -0.1402 -0.3785
 7741TIP3    H147418   7.321   5.729  12.341  0.1452 -1.3718 -1.1770
 7741TIP3    H247419   7.446   5.698  12.421 -0.2991  0.7558  0.4354
 7742TIP3   OH247420   0.046   0.018  11.769  0.0667 -0.1864  0.0512
 7742TIP3    H147421   0.034  -0.075  11.750 -1.5575 -0.3164  1.4375
 7742TIP3    H247422   0.095   0.019  11.851  0.0276  0.1851  0.0688
 7743TIP3   OH247423   7.607   6.306  12.744  0.0873 -0.6424  0.3723
 7743TIP3    H147424   7.517   6.318  12.775  0.1597  5.5237 -0.7205
 7743TIP3    H247425   7.661   6.348  12.811  1.4430  1.2302 -1.7604
 7744TIP3   OH247426   6.350   6.983  12.652  0.0270  0.3947 -0.0022
 7744TIP3    H147427   6.406   6.952  12.723 -1.6124 -1.2036  0.6632
 7744TIP3    H247428   6.287   7.042  12.694 -0.1284  0.4930 -0.3669
 7745TIP3   OH247429   4.657   0.338  12.831  0.4113  0.5643  0.3357
 7745TIP3    H147430   4.624   0.312  12.917 -0.6090  1.2311  0.1616
 7745TIP3    H247431   4.727   0.401  12.851  1.2963 -0.4958  0.6934
 7746TIP3   OH247432   4.020   1.996  12.325 -0.2632  0.3975 -0.3326
 7746TIP3    H147433   4.032   1.902  12.338 -0.4613  0.5394  0.9132
 7746TIP3    H247434   3.935   2.004  12.281 -1.1353  0.0816  1.2244
 7747TIP3   OH247435   1.680   4.670  11.176 -0.5079  0.0853  0.2889
 7747TIP3    H147436   1.697   4.670  11.270 -1.1829 -0.2713  0.4143
 7747TIP3    H247437   1.735   4.599  11.142 -0.5846 -0.0633  0.4741
 7748TIP3   OH247438   1.324   1.652  11.528 -0.4220  0.2747  0.0821
 7748TIP3    H147439   1.326   1.734  11.478 -1.6406 -0.1560 -0.7161
 7748TIP3    H247440   1.385   1.667  11.600 -0.3409  1.7524 -0.2534
 7749TIP3   OH247441   5.915   6.541  11.550 -0.3230  0.1408  0.1570
 7749TIP3    H147442   5.945   6.541  11.459 -2.3270  2.4227 -0.5992
 7749TIP3    H247443   5.827   6.505  11.546  0.8275 -3.3256  1.8710
 7750TIP3   OH247444   5.373   6.308  10.388  0.0475  0.5811 -0.6880
 7750TIP3    H147445   5.361   6.368  10.461 -1.6182  0.4921 -0.8489
 7750TIP3    H247446   5.355   6.221  10.425  0.4478  0.4035 -0.9085
 7751TIP3   OH247447   3.843   1.641  12.181 -0.2716 -0.1823  0.2483
 7751TIP3    H147448   3.759   1.661  12.223 -0.1755  0.3796  0.1807
 7751TIP3    H247449   3.830   1.664  12.089  0.1432  0.4924  0.3510
 7752TIP3   OH247450   2.718   4.292  11.208 -0.7724  0.2215  0.1398
 7752TIP3    H147451   2.655   4.273  11.139  2.1609  0.0333 -2.7378
 7752TIP3    H247452   2.770   4.212  11.216  0.8656  1.2557  0.3364
 7753TIP3   OH247453   7.582   2.455  11.341 -0.1729 -0.3442  0.3361
 7753TIP3    H147454   7.621   2.530  11.386 -0.6314  0.5151 -0.6231
 7753TIP3    H247455   7.587   2.383  11.403  0.4013  0.4588  1.2442
 7754TIP3   OH247456   4.216   0.019  12.039 -0.0401 -0.0459 -0.2864
 7754TIP3    H147457   4.204  -0.011  11.949 -0.1200 -0.8906 -0.0113
 7754TIP3    H247458   4.129   0.013  12.078 -0.5310  2.6183 -0.7809
 7755TIP3   OH247459   2.414   1.804  10.811  0.1968 -0.5300  0.5327
 7755TIP3    H147460   2.508   1.794  10.826  0.4562 -0.1479 -0.7719
 7755TIP3    H247461   2.393   1.888  10.852  0.1118 -1.2845  2.1067
 7756TIP3   OH247462   7.277   2.292  11.181  0.2778 -0.7533 -0.2497
 7756TIP3    H147463   7.212   2.358  11.157 -0.7026 -0.9099  1.7237
 7756TIP3    H247464   7.322   2.270  11.099 -1.5947 -0.0281 -1.5255
 7757TIP3   OH247465   7.386   0.318  11.420 -0.0013  0.3249  0.4862
 7757TIP3    H147466   7.438   0.375  11.363 -0.7645 -1.4483 -2.1605
 7757TIP3    H247467   7.447   0.289  11.487  1.0070  2.3456  0.5082
 7758TIP3   OH247468   1.361   6.509  12.820 -0.2579  0.4084  0.2673
 7758TIP3    H147469   1.382   6.423  12.855  3.0220  1.0293  0.1061
 7758TIP3    H247470   1.299   6.546  12.883  0.1717 -1.1241  1.6615
 7759TIP3   OH247471   6.383   6.287  10.322 -0.5006  0.4194 -0.2186
 7759TIP3    H147472   6.298   6.329  10.340 -0.5270  0.0604  0.5302
 7759TIP3    H247473   6.361   6.198  10.297 -0.3123  0.0081  0.9910
 7760TIP3   OH247474   5.781   3.089  11.980 -0.3917  0.1203 -0.0831
 7760TIP3    H147475   5.829   3.012  11.950 -0.8111 -0.5280  0.8812
 7760TIP3    H247476   5.696   3.056  12.007 -0.6708  0.9590  0.0901
 7761TIP3   OH247477   2.735   6.919  13.238  0.5202 -0.2084  0.6253
 7761TIP3    H147478   2.754   6.831  13.268 -0.3366 -0.5295  0.2781
 7761TIP3    H247479   2.647   6.913  13.200 -0.2015  1.1146  1.9729
 7762TIP3   OH247480   5.206   5.002  12.393  0.3735  0.4016 -0.4185
 7762TIP3    H147481   5.241   5.000  12.482 -0.5322 -0.0053 -0.0506
 7762TIP3    H247482   5.243   5.081  12.354 -0.1534  1.2425  0.7225
 7763TIP3   OH247483   2.838   4.943  11.350 -0.4192 -0.1165 -0.1178
 7763TIP3    H147484   2.766   4.990  11.393  0.4426  0.8198  0.3397
 7763TIP3    H247485   2.897   4.919  11.422  0.4061  0.3582 -0.6112
 7764TIP3   OH247486   2.547   0.744  10.727 -0.3017 -0.0227 -0.3789
 7764TIP3    H147487   2.485   0.676  10.699  0.4211 -1.4612  1.2677
 7764TIP3    H247488   2.556   0.801  10.651 -2.9272 -0.2604 -0.9866
 7765TIP3   OH247489   3.642   5.962  11.494  0.3862  0.9337  0.8958
 7765TIP3    H147490   3.692   5.881  11.496  0.5788  0.9911 -0.6039
 7765TIP3    H247491   3.590   5.960  11.575 -0.7024 -1.3915  0.2391
 7766TIP3   OH247492   4.712   5.514  10.515  0.4990 -0.5825 -0.4129
 7766TIP3    H147493   4.801   5.532  10.543  0.9389 -1.7363 -1.0035
 7766TIP3    H247494   4.662   5.504  10.596  0.5107  1.7379 -0.0648
 7767TIP3   OH247495   4.399   4.441  13.049  0.2132 -0.8118  0.3171
 7767TIP3    H147496   4.459   4.367  13.050 -0.1569 -1.1562 -0.8657
 7767TIP3    H247497   4.455   4.518  13.046  0.6303 -1.1261 -0.7737
 7768TIP3   OH247498   6.579   3.858  12.154 -0.5997  0.0047  0.0888
 7768TIP3    H147499   6.502   3.868  12.210 -0.5454 -0.3369  0.2237
 7768TIP3    H247500   6.634   3.794  12.200 -0.7463 -0.6002 -0.5656
 7769TIP3   OH247501   1.056   7.136  12.296 -0.1831  0.2594  0.5571
 7769TIP3    H147502   1.073   7.055  12.249 -1.3386 -0.2708  1.0053
 7769TIP3    H247503   1.041   7.110  12.387 -1.7034  0.7944  0.5047
 7770TIP3   OH247504   4.683   2.522  12.696 -0.1119  0.2715  0.2668
 7770TIP3    H147505   4.703   2.550  12.607 -2.1779  0.3279 -0.2473
 7770TIP3    H247506   4.687   2.602  12.749  0.2621  0.3986  0.0439
 7771TIP3   OH247507   7.524   6.001  12.448  0.2616  0.5745  0.2243
 7771TIP3    H147508   7.473   5.920  12.442  0.3506  0.5361 -0.0182
 7771TIP3    H247509   7.604   5.983  12.400  0.1657  0.8959 -0.0568
 7772TIP3   OH247510   2.900   5.668  12.939 -0.3655  0.0616  0.5758
 7772TIP3    H147511   2.904   5.760  12.962  1.7525  0.8148 -2.2683
 7772TIP3    H247512   2.952   5.624  13.006  2.5190  1.6465 -0.4625
 7773TIP3   OH247513   1.570   6.151  12.517 -0.0220  0.0454 -0.8589
 7773TIP3    H147514   1.531   6.077  12.564  0.6662  0.0746 -0.2170
 7773TIP3    H247515   1.573   6.221  12.582 -0.6148  0.6304 -1.4451
 7774TIP3   OH247516   7.013   1.068  11.367 -0.4709  0.4894  0.1716
 7774TIP3    H147517   6.988   1.027  11.449 -0.1276  0.1018  0.0852
 7774TIP3    H247518   7.103   1.039  11.351 -0.6809  0.1955 -0.5574
 7775TIP3   OH247519   6.324   1.272  11.318 -0.0878 -0.6200  0.4118
 7775TIP3    H147520   6.377   1.254  11.241 -0.4567 -0.2738  0.0696
 7775TIP3    H247521   6.333   1.195  11.374  0.0578 -0.9349 -0.0500
 7776TIP3   OH247522   5.533   5.854  10.499  0.5544 -0.2573  0.0606
 7776TIP3    H147523   5.620   5.884  10.477  0.3994 -1.3370 -2.3104
 7776TIP3    H247524   5.474   5.915  10.454  0.1839 -1.4176 -1.0854
 7777TIP3   OH247525   6.608   4.063  11.291  0.0008  0.3802 -0.2752
 7777TIP3    H147526   6.674   4.002  11.259 -1.1880 -1.6748  1.0102
 7777TIP3    H247527   6.549   4.076  11.217  1.2582  1.5225 -1.1428
 7778TIP3   OH247528   6.596   5.766  11.848 -0.0500  0.1590 -0.2097
 7778TIP3    H147529   6.653   5.717  11.908 -2.2656  1.3650  3.1706
 7778TIP3    H247530   6.523   5.706  11.831 -1.6674  1.2969  2.1557
 7779TIP3   OH247531   1.642   2.428  11.106 -0.1130  0.3603 -0.4536
 7779TIP3    H147532   1.589   2.430  11.187 -0.3231  1.0253 -0.6030
 7779TIP3    H247533   1.723   2.472  11.130  0.1723 -0.2048 -0.3699
 7780TIP3   OH247534   6.502   7.577  10.887  0.1316  0.1068  0.4345
 7780TIP3    H147535   6.533   7.598  10.799 -0.0567  0.4002  0.4360
 7780TIP3    H247536   6.489   7.663  10.928 -0.6054 -0.0104  0.4605
 7781TIP3   OH247537   7.576   4.584  11.045  0.2508 -0.5439 -0.3062
 7781TIP3    H147538   7.637   4.571  10.973 -0.3386 -2.1805 -0.5408
 7781TIP3    H247539   7.495   4.613  11.003  0.0159 -1.1504 -0.2829
 7782TIP3   OH247540   1.345   4.116  12.262  0.1416  0.4930  1.0509
 7782TIP3    H147541   1.259   4.155  12.269  0.0110  0.3833  0.1606
 7782TIP3    H247542   1.352   4.058  12.338 -1.3279 -0.9502  0.1425
 7783TIP3   OH247543   5.252   1.809  11.359 -0.1886 -0.4162 -0.8866
 7783TIP3    H147544   5.193   1.884  11.348  0.2140  0.4371  1.9296
 7783TIP3    H247545   5.336   1.840  11.326 -0.5274 -0.4423 -1.7965
 7784TIP3   OH247546   2.904   5.301  10.690 -0.3862 -0.0329  0.0190
 7784TIP3    H147547   2.896   5.310  10.785 -0.8002 -0.1235 -0.0079
 7784TIP3    H247548   2.835   5.240  10.666  0.2959 -0.7196 -0.2302
 7785TIP3   OH247549   4.736   6.380  12.940 -0.0631 -0.9245  0.3412
 7785TIP3    H147550   4.721   6.448  13.007  1.2136 -0.8531  0.5957
 7785TIP3    H247551   4.710   6.299  12.982 -0.3131 -0.7512  0.5260
 7786TIP3   OH247552   5.343   1.828  12.664 -0.2960 -0.1536 -0.1698
 7786TIP3    H147553   5.380   1.916  12.651 -0.2459 -0.3103 -1.1483
 7786TIP3    H247554   5.413   1.779  12.707  0.7587 -0.5013 -2.1635
 7787TIP3   OH247555   3.369   7.408  12.745 -0.0147  0.7450  0.1519
 7787TIP3    H147556   3.330   7.435  12.829  1.5940  0.0384  1.1787
 7787TIP3    H247557   3.431   7.477  12.724 -0.5495  1.0121 -0.5706
 7788TIP3   OH247558   0.861   4.458  10.884 -0.2073  0.1463  0.3155
 7788TIP3    H147559   0.892   4.372  10.856 -0.7174  0.1112 -0.1744
 7788TIP3    H247560   0.870   4.513  10.805 -0.5447  0.3576  0.4241
 7789TIP3   OH247561   2.655   6.398  10.884  0.7536 -0.0781  0.2586
 7789TIP3    H147562   2.726   6.347  10.924  1.2201 -1.4201 -2.1041
 7789TIP3    H247563   2.581   6.338  10.880  0.3684  0.3961  0.1075
 7790TIP3   OH247564   2.285   6.317  11.160 -0.3156 -0.0997  0.5488
 7790TIP3    H147565   2.260   6.406  11.134  0.2750 -0.3788 -1.1171
 7790TIP3    H247566   2.350   6.291  11.094 -0.1225 -1.5810  1.3026
 7791TIP3   OH247567   0.258   4.592  11.297 -0.5249  0.1372 -0.5083
 7791TIP3    H147568   0.329   4.653  11.274 -0.0898 -0.5587 -1.0664
 7791TIP3    H247569   0.302   4.507  11.307 -1.2183 -0.2169 -0.4024
 7792TIP3   OH247570   5.259   6.351  11.258 -0.0961 -0.3661  0.6323
 7792TIP3    H147571   5.314   6.418  11.299  1.2057  0.1892 -1.8786
 7792TIP3    H247572   5.203   6.400  11.198  0.4714 -1.4613 -0.8204
 7793TIP3   OH247573   4.448   2.291  10.734 -0.2026  0.0857 -0.3363
 7793TIP3    H147574   4.486   2.305  10.647  0.5262  0.3104  0.0106
 7793TIP3    H247575   4.357   2.318  10.725 -0.3544 -0.6548 -1.2449
 7794TIP3   OH247576   1.370   2.809  12.046  0.4428  0.1756  0.6264
 7794TIP3    H147577   1.458   2.811  12.084 -0.0245  1.5856  1.7193
 7794TIP3    H247578   1.311   2.816  12.121 -0.6710 -1.9148  0.0242
 7795TIP3   OH247579   1.319   0.313  12.800 -0.0188  0.2311  0.1244
 7795TIP3    H147580   1.366   0.301  12.882 -1.3690 -2.1052  0.6401
 7795TIP3    H247581   1.227   0.310  12.823 -0.4375  0.7761 -1.3314
 7796TIP3   OH247582   5.109   2.843  13.287 -0.4178 -0.0687 -0.3167
 7796TIP3    H147583   5.096   2.748  13.290 -2.8969  0.2317  1.0675
 7796TIP3    H247584   5.147   2.859  13.200 -1.3729 -2.1755 -1.1939
 7797TIP3   OH247585   6.898   0.437  11.511  0.0978  0.3138  0.5467
 7797TIP3    H147586   6.989   0.460  11.532 -0.1180  0.9057  0.8478
 7797TIP3    H247587   6.880   0.360  11.565  0.2978  0.4190  0.7643
 7798TIP3   OH247588   4.744   6.601  10.623 -0.7199  0.1388 -0.2877
 7798TIP3    H147589   4.824   6.642  10.590 -0.9181  0.8893  0.1385
 7798TIP3    H247590   4.757   6.594  10.717 -1.3403  0.6972 -0.1547
 7799TIP3   OH247591   1.393   4.152  11.842  0.3244 -0.3215 -0.4854
 7799TIP3    H147592   1.403   4.210  11.917 -1.4799 -2.2673  1.4303
 7799TIP3    H247593   1.395   4.064  11.880  2.0211 -1.5340 -3.1190
 7800TIP3   OH247594   2.903   0.876  12.311 -0.2839  0.1043 -0.2965
 7800TIP3    H147595   2.940   0.959  12.341 -1.5118  0.6382 -0.1974
 7800TIP3    H247596   2.817   0.872  12.352  0.5232 -2.2197  1.3559
 7801TIP3   OH247597   1.939   0.808  11.973  0.7295 -0.0032  0.3777
 7801TIP3    H147598   1.850   0.774  11.986  0.2429  0.3526 -1.7423
 7801TIP3    H247599   1.994   0.729  11.967  0.5776 -0.2250  1.6406
 7802TIP3   OH247600   1.422   0.711  11.756 -0.1445 -0.0752 -0.1178
 7802TIP3    H147601   1.414   0.644  11.824  0.7998 -1.2820 -1.1483
 7802TIP3    H247602   1.427   0.662  11.674  0.6147  1.2507 -0.9073
 7803TIP3   OH247603   2.293   1.983  11.191  0.7676  0.1513 -0.2185
 7803TIP3    H147604   2.374   2.003  11.238  0.0597 -0.6249  1.4012
 7803TIP3    H247605   2.227   2.040  11.231 -0.3372 -2.1133  1.4331
 7804TIP3   OH247606   7.186   0.157  12.115 -0.0742  0.1346 -0.5215
 7804TIP3    H147607   7.138   0.078  12.089 -0.1723  0.0627 -0.1341
 7804TIP3    H247608   7.252   0.169  12.047  0.1325 -0.4531 -0.4275
 7805TIP3   OH247609   5.179   4.615  11.835  0.3494  0.4642  0.0536
 7805TIP3    H147610   5.185   4.700  11.878  1.2576  0.1664  0.5432
 7805TIP3    H247611   5.199   4.633  11.743 -0.5974  0.9489 -0.0678
 7806TIP3   OH247612   0.530   2.149  11.170  0.5595 -0.1070  0.8925
 7806TIP3    H147613   0.573   2.224  11.213  0.0619  0.9207 -0.3502
 7806TIP3    H247614   0.489   2.101  11.242 -0.0651  1.4482  1.6132
 7807TIP3   OH247615   4.394   6.310  11.292  0.0977 -0.0627  0.1684
 7807TIP3    H147616   4.472   6.363  11.305  1.0168 -1.8031  2.2532
 7807TIP3    H247617   4.357   6.298  11.379 -1.5146 -0.7379 -0.5588
 7808TIP3   OH247618   7.448   4.653  12.266  0.0943  0.6337 -0.4251
 7808TIP3    H147619   7.396   4.611  12.198 -0.4740  2.3493 -1.1042
 7808TIP3    H247620   7.414   4.742  12.271  3.1008  1.9321 -1.0861
 7809TIP3   OH247621   0.193   2.878  11.880  0.0633 -0.4111  0.0939
 7809TIP3    H147622   0.218   2.929  11.958 -0.1985  0.4176 -0.3432
 7809TIP3    H247623   0.187   2.788  11.911 -2.0907  0.1526  1.5737
 7810TIP3   OH247624   6.791   0.866  11.464 -0.9695 -0.8900 -0.1931
 7810TIP3    H147625   6.770   0.782  11.506 -0.2768 -1.5953 -1.1993
 7810TIP3    H247626   6.852   0.842  11.394 -0.1666  0.5573 -0.0142
 7811TIP3   OH247627   2.674   4.950  11.129  0.2966 -0.9031 -0.2976
 7811TIP3    H147628   2.618   5.022  11.156  0.2938 -0.9428 -0.1959
 7811TIP3    H247629   2.736   4.939  11.201  1.3153  0.0381 -0.9926
 7812TIP3   OH247630   2.630   4.810  11.577 -0.2179 -0.3434  0.5017
 7812TIP3    H147631   2.583   4.818  11.494  0.4725  0.4199  0.1815
 7812TIP3    H247632   2.674   4.894  11.589  2.7626 -1.6482 -0.2434
 7813TIP3   OH247633   6.038   1.406  12.317 -0.3919 -0.4898  0.5540
 7813TIP3    H147634   5.952   1.401  12.360 -0.3273 -0.9542  0.6346
 7813TIP3    H247635   6.071   1.316  12.320  0.7288 -0.0627  1.8113
 7814TIP3   OH247636   5.055   0.428  10.420  0.0629 -0.3269 -0.4780
 7814TIP3    H147637   5.063   0.518  10.451 -1.0618 -0.9744  1.8794
 7814TIP3    H247638   4.970   0.425  10.376 -1.4112 -0.8780  2.1892
 7815TIP3   OH247639   0.381   5.851  12.634 -0.2227  0.3666 -0.0372
 7815TIP3    H147640   0.316   5.905  12.590 -0.5089 -0.4273 -0.6201
 7815TIP3    H247641   0.459   5.858  12.578  0.2819  1.4827  0.7699
 7816TIP3   OH247642   4.999   0.831  12.953 -0.4335 -0.3483 -0.1151
 7816TIP3    H147643   4.973   0.920  12.977  0.1476 -0.0642 -0.5339
 7816TIP3    H247644   5.094   0.833  12.955 -0.4221 -1.0068  0.0282
 7817TIP3   OH247645   1.906   1.855  12.937 -0.4613  0.4893 -0.1699
 7817TIP3    H147646   1.834   1.918  12.940 -0.2875  0.7777  3.7686
 7817TIP3    H247647   1.874   1.780  12.985  1.1874 -0.2038 -0.0777
 7818TIP3   OH247648   2.663   0.967  12.411 -0.6890  0.3850  0.3615
 7818TIP3    H147649   2.646   1.060  12.395 -1.0678 -0.2050 -3.3552
 7818TIP3    H247650   2.681   0.963  12.505 -2.5437  3.8983  1.0664
 7819TIP3   OH247651   7.156   0.416  11.573  0.0471  0.2856 -0.0100
 7819TIP3    H147652   7.117   0.360  11.640  1.9541 -1.4879 -0.2948
 7819TIP3    H247653   7.251   0.407  11.586  0.4498  2.7260 -0.6989
 7820TIP3   OH247654   4.792   1.887  12.586  0.0726  0.4533 -0.5867
 7820TIP3    H147655   4.701   1.864  12.567  0.2552  0.4196 -1.4844
 7820TIP3    H247656   4.788   1.979  12.614 -0.1686  0.6924 -1.3648
 7821TIP3   OH247657   1.947   1.143  13.563 -0.4623  0.6219  0.4219
 7821TIP3    H147658   1.924   1.221  13.513 -1.6138  1.0180  1.5173
 7821TIP3    H247659   2.040   1.129  13.545 -0.3115  2.0720 -0.0144
 7822TIP3   OH247660   5.742   3.343  11.216 -0.0290 -0.8150 -0.3965
 7822TIP3    H147661   5.664   3.325  11.164  1.1662  0.6766 -2.8466
 7822TIP3    H247662   5.814   3.347  11.153  1.7378 -0.1076  1.5207
 7823TIP3   OH247663   3.462   4.741  11.327  0.2300 -0.1641  0.1840
 7823TIP3    H147664   3.481   4.732  11.234  0.4710  1.5218  0.0392
 7823TIP3    H247665   3.536   4.697  11.371  0.4625 -0.3658 -0.4041
 7824TIP3   OH247666   2.747   3.964  12.280  0.1101 -0.0781  0.3257
 7824TIP3    H147667   2.750   3.959  12.376  0.3338  1.1218  0.3946
 7824TIP3    H247668   2.772   3.876  12.251 -0.0604 -0.4858  1.3634
 7825TIP3   OH247669   7.166   0.224  10.812  0.6809 -0.8242 -0.3415
 7825TIP3    H147670   7.217   0.296  10.849 -0.3548 -0.0426 -0.3989
 7825TIP3    H247671   7.078   0.260  10.801 -0.0813 -2.3604  0.4240
 7826TIP3   OH247672   2.637   0.816  11.552  0.1704  0.1527  0.4246
 7826TIP3    H147673   2.680   0.896  11.523  0.9203 -0.2698  0.3361
 7826TIP3    H247674   2.556   0.812  11.501  0.9625 -0.0401 -0.8674
 7827TIP3   OH247675   0.042   3.081  11.752 -0.4037  0.3287  0.4617
 7827TIP3    H147676  -0.048   3.061  11.777 -0.5221 -2.2227 -1.5586
 7827TIP3    H247677   0.095   3.018  11.801  0.1279  0.7123  0.3890
 7828TIP3   OH247678   0.088   4.429  10.670 -0.2402 -0.7208 -0.4631
 7828TIP3    H147679   0.015   4.413  10.729  0.2957 -2.0296 -0.1218
 7828TIP3    H247680   0.048   4.464  10.590 -1.0570  0.1927  0.3276
 7829TIP3   OH247681   1.536   1.706  11.023  0.1754 -0.3169  0.0282
 7829TIP3    H147682   1.620   1.702  10.977 -0.1370  1.2567 -0.7816
 7829TIP3    H247683   1.509   1.798  11.015 -1.9355 -0.8990 -0.3341
 7830TIP3   OH247684   3.731   6.917  11.604  1.0018  0.6890  0.5353
 7830TIP3    H147685   3.738   7.012  11.611 -1.5889  0.8775  1.8866
 7830TIP3    H247686   3.819   6.884  11.623  2.4510  2.8102 -1.9447
 7831TIP3   OH247687   2.451   5.768  12.337  0.8488 -0.2260 -0.4917
 7831TIP3    H147688   2.485   5.856  12.320  2.1930 -0.5426  0.3308
 7831TIP3    H247689   2.485   5.715  12.265 -0.4006  0.0033 -1.2777
 7832TIP3   OH247690   4.821   7.537  10.978  0.3573 -0.3808  0.5551
 7832TIP3    H147691   4.750   7.590  10.943 -1.4012 -1.5662  2.1611
 7832TIP3    H247692   4.891   7.600  10.997 -0.3247  0.8400 -0.8260
 7833TIP3   OH247693   3.421   3.730  11.769  0.0554  0.5235  0.0765
 7833TIP3    H147694   3.387   3.737  11.858 -0.7621 -0.3526 -0.1489
 7833TIP3    H247695   3.366   3.790  11.718 -0.1249  0.2998  0.0014
 7834TIP3   OH247696   6.931   4.008  12.328 -0.0024  0.1167  0.2230
 7834TIP3    H147697   6.957   3.917  12.314  0.0049  0.1690 -0.0940
 7834TIP3    H247698   6.859   4.002  12.392 -0.1222 -0.1242  0.0685
 7835TIP3   OH247699   6.406   6.328  10.934 -0.1049  0.6185 -0.4067
 7835TIP3    H147700   6.467   6.401  10.941  1.8596 -1.0428  1.3306
 7835TIP3    H247701   6.414   6.282  11.018 -0.4977 -2.1011 -1.7458
 7836TIP3   OH247702   5.263   4.622  10.480 -0.1228  0.0967  0.5913
 7836TIP3    H147703   5.322   4.618  10.555  0.7888 -0.7385 -0.1302
 7836TIP3    H247704   5.236   4.532  10.465 -1.9716  0.5214  1.1690
 7837TIP3   OH247705   4.215   3.226  12.360  0.1424  0.3276 -0.1393
 7837TIP3    H147706   4.303   3.226  12.322  0.7395  1.4803  1.1494
 7837TIP3    H247707   4.165   3.287  12.306 -0.2311 -1.2022 -1.5876
 7838TIP3   OH247708   6.075   0.135  11.094  0.0988 -0.4498 -0.4127
 7838TIP3    H147709   6.119   0.213  11.127  0.4225 -1.5115  1.8866
 7838TIP3    H247710   6.059   0.153  11.001  0.1929  2.2806  0.0411
 7839TIP3   OH247711   3.514   2.338  11.790  0.2055  0.2978  0.7993
 7839TIP3    H147712   3.597   2.384  11.807 -0.1679  0.5668  1.9597
 7839TIP3    H247713   3.528   2.250  11.824  0.3606  0.0110  0.0319
 7840TIP3   OH247714   6.836   3.270  11.703 -0.4079  0.5144  0.6121
 7840TIP3    H147715   6.887   3.275  11.784 -1.5624 -0.0943  1.4019
 7840TIP3    H247716   6.902   3.264  11.634  0.6038  0.9565  1.5031
 7841TIP3   OH247717   4.019   7.271  12.154  0.3016  0.0653  0.1398
 7841TIP3    H147718   4.086   7.319  12.202  0.2056 -0.7737  1.1479
 7841TIP3    H247719   3.945   7.266  12.214 -1.7245  3.1608 -1.7956
 7842TIP3   OH247720   5.376   6.426  10.629  0.2850  0.0663 -0.0931
 7842TIP3    H147721   5.422   6.474  10.697  0.6772 -1.9453  1.1516
 7842TIP3    H247722   5.288   6.414  10.663 -0.1246  0.7836 -0.8640
 7843TIP3   OH247723   2.373   0.363  12.515 -0.2217 -0.0118 -0.0035
 7843TIP3    H147724   2.422   0.360  12.433 -0.5361  0.1319 -0.1968
 7843TIP3    H247725   2.360   0.271  12.538 -1.1934 -0.0714 -0.7505
 7844TIP3   OH247726   5.795   1.198  12.239  0.1509  0.5742  0.3684
 7844TIP3    H147727   5.783   1.210  12.334  0.1779 -1.9576  0.7520
 7844TIP3    H247728   5.730   1.256  12.199 -1.4084  0.0308  1.9972
 7845TIP3   OH247729   4.504   6.619  12.872  0.1617  0.6275  0.2728
 7845TIP3    H147730   4.598   6.600  12.875  0.2055  0.6660 -0.5874
 7845TIP3    H247731   4.468   6.577  12.950  0.5849 -1.1084 -0.4310
 7846TIP3   OH247732   5.389   2.129  11.463 -0.1157 -0.0059  0.2708
 7846TIP3    H147733   5.465   2.139  11.519 -1.4628  1.3681  1.9893
 7846TIP3    H247734   5.411   2.179  11.384 -0.0475  2.4593  1.7200
 7847TIP3   OH247735   3.571   0.861  11.167  0.0890  0.0133  0.1956
 7847TIP3    H147736   3.508   0.906  11.111 -0.5495  1.1253  1.7312
 7847TIP3    H247737   3.583   0.775  11.126 -3.2353 -0.6500  0.3746
 7848TIP3   OH247738   6.087   2.331  12.156  0.2059 -0.0322 -0.2477
 7848TIP3    H147739   6.023   2.387  12.112  0.8606  1.7997  1.0351
 7848TIP3    H247740   6.037   2.290  12.227  0.2984  0.9471  0.3961
 7849TIP3   OH247741   1.254   6.925  11.741 -0.2704 -0.5061 -0.0173
 7849TIP3    H147742   1.335   6.976  11.739  0.1575 -1.1612  0.1754
 7849TIP3    H247743   1.217   6.934  11.653 -0.6691  0.8532  0.2643
 7850TIP3   OH247744   1.114   1.237  13.448 -0.3057 -0.2919 -0.1909
 7850TIP3    H147745   1.147   1.262  13.361  0.0393 -0.4681 -0.1123
 7850TIP3    H247746   1.153   1.151  13.464 -0.5446 -0.3567  0.0476
 7851TIP3   OH247747   2.367   5.784  10.663  0.6902 -0.3642  0.2972
 7851TIP3    H147748   2.281   5.822  10.683  0.9218 -1.3220  3.5840
 7851TIP3    H247749   2.414   5.855  10.619 -0.6199  1.3828  1.5540
 7852TIP3   OH247750   1.288   1.942  11.073 -0.3396  0.0927  0.1274
 7852TIP3    H147751   1.297   2.015  11.011  1.0972  0.7766  1.0740
 7852TIP3    H247752   1.199   1.951  11.107 -1.5955 -0.9490 -2.5474
 7853TIP3   OH247753   6.974   0.439  10.954  0.6754 -0.7669  0.4718
 7853TIP3    H147754   7.032   0.462  10.881 -0.6985  0.3150 -0.3212
 7853TIP3    H247755   6.956   0.523  10.997 -0.6668 -0.9998  0.4083
 7854TIP3   OH247756   3.364   3.498  12.040 -0.0660 -0.2485  0.0549
 7854TIP3    H147757   3.369   3.592  12.059  1.5494 -0.5417  1.2484
 7854TIP3    H247758   3.424   3.485  11.967  0.1583 -0.4571  0.2789
 7855TIP3   OH247759   5.470   3.613  11.893  0.2420  0.1122  0.0085
 7855TIP3    H147760   5.513   3.637  11.811  0.0119 -0.5262 -0.3089
 7855TIP3    H247761   5.426   3.693  11.922  1.7947  0.8444  0.4511
 7856TIP3   OH247762   0.646   6.852  10.800 -0.0582  0.0915  0.4986
 7856TIP3    H147763   0.611   6.778  10.850  0.0372 -0.8504 -0.7726
 7856TIP3    H247764   0.718   6.884  10.853  1.4700 -2.2757  0.0356
 7857TIP3   OH247765   7.166   4.509  13.173  0.0491 -0.1149 -0.5369
 7857TIP3    H147766   7.213   4.580  13.218 -0.4627 -0.1081  0.0089
 7857TIP3    H247767   7.220   4.432  13.188 -2.5569 -1.3644  4.8690
 7858TIP3   OH247768   1.207   6.769  12.598  0.7904 -0.2058 -0.0420
 7858TIP3    H147769   1.241   6.804  12.515  1.5903 -1.0982 -0.1094
 7858TIP3    H247770   1.273   6.793  12.663  0.5077 -0.1109  0.2109
 7859TIP3   OH247771   6.368   3.493  10.191  0.1963  0.0146 -0.1159
 7859TIP3    H147772   6.443   3.553  10.183 -0.4271  0.8601  0.1714
 7859TIP3    H247773   6.397   3.428  10.254  0.7761  0.2013 -0.1767
 7860TIP3   OH247774   3.958   2.440  10.838 -0.6800 -0.1267 -0.1024
 7860TIP3    H147775   3.884   2.410  10.784 -0.6111 -1.3658  0.4431
 7860TIP3    H247776   3.971   2.369  10.901  0.7496  0.2332  0.0358
 7861TIP3   OH247777   3.144   0.505  11.732 -0.1024 -0.1945  0.2384
 7861TIP3    H147778   3.101   0.571  11.678 -0.8650 -1.0821 -0.2789
 7861TIP3    H247779   3.097   0.424  11.712  0.7843 -0.8875  0.8820
 7862TIP3   OH247780   6.662   5.619  10.734  0.2282 -0.2054  0.0061
 7862TIP3    H147781   6.582   5.585  10.694  0.6740 -1.5755  0.2128
 7862TIP3    H247782   6.731   5.558  10.706  0.9311  0.0654  1.0688
 7863TIP3   OH247783   6.783   3.751  10.240 -0.1876 -0.4400  0.0444
 7863TIP3    H147784   6.720   3.738  10.169 -0.6399 -0.5064  0.4550
 7863TIP3    H247785   6.866   3.717  10.205  0.0444  1.2585 -1.1458
 7864TIP3   OH247786   6.810   4.082  10.584 -0.3815  0.0997  0.0134
 7864TIP3    H147787   6.749   4.009  10.569  1.0191 -1.6033  2.0435
 7864TIP3    H247788   6.828   4.115  10.496 -1.8263 -1.3635 -0.9050
 7865TIP3   OH247789   5.488   1.024  11.572  0.0645  0.9169  0.2600
 7865TIP3    H147790   5.440   1.096  11.614 -0.1132  1.3715 -0.6800
 7865TIP3    H247791   5.466   1.032  11.479  3.0141  2.0000 -0.4555
 7866TIP3   OH247792   3.511   4.532  11.588  0.2974 -0.2027 -0.0432
 7866TIP3    H147793   3.530   4.624  11.607  0.7824 -0.2885 -0.0975
 7866TIP3    H247794   3.426   4.516  11.629 -0.0729  0.4302 -0.5483
 7867TIP3   OH247795   6.849   4.651  10.767 -0.7584  1.3680  0.4547
 7867TIP3    H147796   6.832   4.743  10.787 -0.5352  1.6164 -0.4441
 7867TIP3    H247797   6.924   4.653  10.707 -0.4768  0.5746  0.7655
 7868TIP3   OH247798   3.614   0.326  12.886  0.5410 -0.0149 -0.6048
 7868TIP3    H147799   3.636   0.253  12.944  1.0081 -0.1348 -0.9273
 7868TIP3    H247800   3.687   0.387  12.896  1.1570 -0.5244 -1.8614
 7869TIP3   OH247801   3.405   4.819  12.806 -0.1261  0.4714  0.2585
 7869TIP3    H147802   3.419   4.914  12.801  1.0924  0.2708 -0.6942
 7869TIP3    H247803   3.419   4.788  12.716 -0.8322 -0.5790  0.4933
 7870TIP3   OH247804   5.990   4.479  12.457  0.4820  0.4096  0.5260
 7870TIP3    H147805   5.897   4.461  12.471  0.7330 -0.8930  0.6705
 7870TIP3    H247806   5.996   4.501  12.365  0.4939 -3.2634 -0.5002
 7871TIP3   OH247807   4.840   0.252  11.859  0.1741  0.6056 -0.8694
 7871TIP3    H147808   4.814   0.294  11.776 -1.9796  1.9841  0.4103
 7871TIP3    H247809   4.812   0.162  11.850 -1.1858  1.0435 -1.1936
 7872TIP3   OH247810   6.528   4.728  13.195 -0.4599 -0.2013 -0.0894
 7872TIP3    H147811   6.531   4.802  13.134 -0.1326  0.2928  0.5062
 7872TIP3    H247812   6.556   4.766  13.279  0.1364 -1.0968  0.1312
 7873TIP3   OH247813   6.787   3.600  13.248  0.2033 -0.0364 -0.4951
 7873TIP3    H147814   6.704   3.557  13.230  1.0011 -1.6987 -0.3926
 7873TIP3    H247815   6.765   3.675  13.303 -1.2121 -0.4265 -0.5128
 7874TIP3   OH247816   4.387   0.081  11.315 -0.3253 -0.2939  0.3957
 7874TIP3    H147817   4.344   0.106  11.397 -0.1004 -0.6333  0.6148
 7874TIP3    H247818   4.321   0.029  11.269  0.4501 -2.4227  1.5455
 7875TIP3   OH247819   3.683   7.348  13.413 -0.0089 -0.1616  0.0408
 7875TIP3    H147820   3.639   7.382  13.491 -0.0324  2.6723 -1.0986
 7875TIP3    H247821   3.776   7.362  13.430  0.0050  0.1868 -0.3028
 7876TIP3   OH247822   5.707   2.016  11.992  0.0680  0.6115  0.3081
 7876TIP3    H147823   5.647   2.026  11.918  0.4261  1.5413  0.1180
 7876TIP3    H247824   5.664   2.061  12.065  0.6150  1.4931  0.1077
 7877TIP3   OH247825   4.958   2.785  11.578 -0.2982 -0.3556  0.5120
 7877TIP3    H147826   4.937   2.878  11.571  0.8720 -0.1677 -1.5497
 7877TIP3    H247827   5.047   2.778  11.543 -0.1101 -2.1712  1.2213
 7878TIP3   OH247828   2.783   1.878  12.146  0.0273 -0.4256 -0.2016
 7878TIP3    H147829   2.875   1.899  12.155 -0.0692  0.0707 -0.3160
 7878TIP3    H247830   2.737   1.954  12.183 -0.3324 -0.8379  0.2142
 7879TIP3   OH247831   3.248   1.520  11.981  0.2065  0.0319  0.5122
 7879TIP3    H147832   3.338   1.542  12.004  0.7787 -0.6934 -0.9031
 7879TIP3    H247833   3.257   1.457  11.909 -1.4329  2.0604 -1.6273
 7880TIP3   OH247834   6.005   4.981  12.318  0.2692 -0.6365  0.1697
 7880TIP3    H147835   6.051   4.903  12.347 -1.2470 -1.5887  0.0955
 7880TIP3    H247836   5.914   4.965  12.340 -0.0136  1.3707  0.6919
 7881TIP3   OH247837   1.925   1.524  12.418  0.3088 -0.2996 -0.4068
 7881TIP3    H147838   2.011   1.492  12.444  0.9832  1.1422 -0.7818
 7881TIP3    H247839   1.943   1.586  12.347 -1.1029 -0.5608 -1.0231
 7882TIP3   OH247840   6.061   5.828  10.955 -0.2025  0.1354  0.2210
 7882TIP3    H147841   6.097   5.915  10.970 -0.8872  0.4151  0.2674
 7882TIP3    H247842   5.967   5.837  10.972  0.1193 -1.3753  3.7799
 7883TIP3   OH247843   1.685   6.346  11.849  0.1687 -0.5577 -0.3542
 7883TIP3    H147844   1.763   6.392  11.818 -1.0733  2.0200  0.0295
 7883TIP3    H247845   1.619   6.361  11.781 -0.3729 -1.6236 -0.0956
 7884TIP3   OH247846   0.684   5.714  11.838  0.4449  0.3803  0.6159
 7884TIP3    H147847   0.660   5.799  11.875  1.8564  0.7601  0.6990
 7884TIP3    H247848   0.709   5.661  11.913 -2.2324 -0.7883  0.7925
 7885TIP3   OH247849   0.422   4.725  12.859 -0.0323 -0.0127 -0.5516
 7885TIP3    H147850   0.473   4.697  12.935 -0.4451 -0.2210 -0.3445
 7885TIP3    H247851   0.481   4.781  12.809  0.5156 -0.5506 -0.5124
 7886TIP3   OH247852   5.801   5.909  10.411  0.4419  0.2539 -0.0215
 7886TIP3    H147853   5.766   5.870  10.331  2.3385 -0.6761 -0.4481
 7886TIP3    H247854   5.876   5.961  10.381  0.0712  1.4259  0.9650
 7887TIP3   OH247855   2.718   6.923  12.157 -0.5956  0.2760  0.1812
 7887TIP3    H147856   2.724   7.000  12.213 -1.4805  1.7093 -1.5897
 7887TIP3    H247857   2.790   6.934  12.095 -1.1983  0.1090 -0.5632
 7888TIP3   OH247858   3.651   5.195  10.956  0.5818  0.1668 -0.6439
 7888TIP3    H147859   3.736   5.152  10.948  0.1188 -0.8404 -0.2850
 7888TIP3    H247860   3.663   5.280  10.914  2.4524  1.0374  1.4272
 7889TIP3   OH247861   5.802   0.108  11.223  0.0774  0.4865 -0.6384
 7889TIP3    H147862   5.741   0.150  11.162  0.4241 -1.0591 -2.1459
 7889TIP3    H247863   5.889   0.135  11.193  0.2405 -0.0533 -0.6671
 7890TIP3   OH247864   2.419   4.744  11.098 -0.3985  0.6096 -0.2953
 7890TIP3    H147865   2.508   4.767  11.071  0.3557 -2.0295 -0.3936
 7890TIP3    H247866   2.387   4.686  11.028 -1.2015 -0.5090  0.9537
 7891TIP3   OH247867   5.666   4.789  11.558 -1.1362  0.5735  0.2513
 7891TIP3    H147868   5.582   4.761  11.593  0.1318  0.4431  3.5012
 7891TIP3    H247869   5.695   4.859  11.617  1.0967  0.5082 -0.6771
 7892TIP3   OH247870   6.180   6.866  11.304 -0.1254 -0.1458  0.0440
 7892TIP3    H147871   6.237   6.790  11.309 -2.2275 -1.9393 -1.5225
 7892TIP3    H247872   6.237   6.936  11.272  1.8921 -0.9578  1.6480
 7893TIP3   OH247873   7.615   4.108  11.722 -0.0986 -0.0896 -0.2839
 7893TIP3    H147874   7.656   4.183  11.767  2.3529  0.6941 -3.4393
 7893TIP3    H247875   7.642   4.032  11.773  2.6071  0.7325 -0.3460
 7894TIP3   OH247876   6.834   4.850  10.396 -0.3818  0.3573 -0.1100
 7894TIP3    H147877   6.792   4.902  10.464 -1.2086 -1.9472  1.2205
 7894TIP3    H247878   6.762   4.822  10.339  0.2944  2.2899 -2.0981
 7895TIP3   OH247879   5.020   7.222  12.777  0.3147 -0.6972 -0.0892
 7895TIP3    H147880   5.091   7.181  12.828  1.2691 -0.9276 -1.5261
 7895TIP3    H247881   5.023   7.314  12.801  0.0744 -0.9685  1.0147
 7896TIP3   OH247882   2.897   0.824  12.640  0.1526  0.0412 -0.3030
 7896TIP3    H147883   2.887   0.806  12.733 -0.3442  0.4739 -0.2666
 7896TIP3    H247884   2.856   0.910  12.627 -3.2915 -1.5933 -1.5552
 7897TIP3   OH247885   0.668   5.522  11.116 -0.1015 -0.3813 -0.0956
 7897TIP3    H147886   0.718   5.557  11.043 -3.3509 -1.7377 -3.2335
 7897TIP3    H247887   0.674   5.427  11.107 -0.2970 -0.5973  1.6558
 7898TIP3   OH247888   0.732   4.229  11.661 -0.1410 -0.2817  0.5773
 7898TIP3    H147889   0.643   4.233  11.697 -0.2371 -0.3889  0.3556
 7898TIP3    H247890   0.780   4.296  11.709 -0.3614 -0.1720  0.6471
 7899TIP3   OH247891   5.442   3.144  10.896 -0.0387 -0.1850  0.2206
 7899TIP3    H147892   5.527   3.100  10.896 -1.7208 -3.8437  1.0260
 7899TIP3    H247893   5.429   3.173  10.806  1.4426 -0.8863 -0.2398
 7900TIP3   OH247894   4.028   2.698  12.529 -0.5917 -0.8684 -0.7804
 7900TIP3    H147895   3.978   2.764  12.481  1.0040  0.8887 -0.1239
 7900TIP3    H247896   4.111   2.692  12.483  0.5002 -0.0313  1.0096
 7901TIP3   OH247897   2.983   4.258  13.244  0.3088 -0.1051 -0.3282
 7901TIP3    H147898   2.969   4.345  13.208 -0.9932 -0.1819 -0.0677
 7901TIP3    H247899   2.896   4.229  13.271  1.0765 -0.3797  2.1021
 7902TIP3   OH247900   3.480   2.197  10.691  0.6342  0.0380 -0.2504
 7902TIP3    H147901   3.530   2.116  10.694 -2.0941 -1.7330  1.8727
 7902TIP3    H247902   3.415   2.183  10.622  1.1248  1.1546 -0.9859
 7903TIP3   OH247903   3.823   2.373  11.288  0.2557 -0.4300 -0.1700
 7903TIP3    H147904   3.835   2.316  11.213  1.2203  0.9002 -1.0648
 7903TIP3    H247905   3.743   2.341  11.330  0.0495 -1.5804 -1.3856
 7904TIP3   OH247906   1.118   3.837  12.743  0.4285 -0.1671 -0.4338
 7904TIP3    H147907   1.154   3.925  12.741 -2.1889  1.1017  1.7947
 7904TIP3    H247908   1.048   3.838  12.678  0.7967 -0.8458 -0.8555
 7905TIP3   OH247909   3.133   5.163  12.530 -0.1230  0.2761  0.1268
 7905TIP3    H147910   3.114   5.253  12.556 -2.7114 -0.4542  1.0771
 7905TIP3    H247911   3.092   5.153  12.444  1.2056  0.3225 -0.5296
 7906TIP3   OH247912   2.248   6.587  11.097 -0.0415 -0.0022  0.2867
 7906TIP3    H147913   2.317   6.581  11.031 -0.2826 -0.2490  0.0538
 7906TIP3    H247914   2.266   6.669  11.143  0.6327 -0.2602  0.4850
 7907TIP3   OH247915   6.268   2.395  16.528 -0.3037  0.4301 -0.0801
 7907TIP3    H147916   6.322   2.473  16.520 -0.5432  0.6215  0.1421
 7907TIP3    H247917   6.178   2.427  16.524 -0.4380  0.3772  1.6540
 7908TIP3   OH247918   3.585   6.713  11.666  0.1216  0.2676 -0.7013
 7908TIP3    H147919   3.618   6.800  11.642  0.9261  0.2368  0.2474
 7908TIP3    H247920   3.570   6.669  11.581 -1.6840  1.7911 -1.2414
 7909TIP3   OH247921   2.183   2.055  13.201 -0.8723  0.2133  0.5047
 7909TIP3    H147922   2.167   2.123  13.267 -2.0473 -0.6847  1.1902
 7909TIP3    H247923   2.099   2.046  13.156  0.1549  1.4672 -1.7933
 7910TIP3   OH247924   5.456   4.532  13.014 -0.3866 -0.4658  0.3228
 7910TIP3    H147925   5.435   4.444  13.044 -1.1821  0.1262  1.5611
 7910TIP3    H247926   5.374   4.581  13.020  0.1789  0.5325  0.2662
 7911TIP3   OH247927   2.523   2.444  12.758 -0.3570  0.6477  1.2456
 7911TIP3    H147928   2.606   2.485  12.781  0.1875  0.0753  0.3495
 7911TIP3    H247929   2.463   2.471  12.828  0.7112  0.6116  2.2106
 7912TIP3   OH247930   6.870   5.482  10.616  0.4682  0.5575 -0.6022
 7912TIP3    H147931   6.910   5.396  10.599  1.2057  0.4500  1.4122
 7912TIP3    H247932   6.874   5.527  10.532  1.6088 -0.7780 -1.3067
 7913TIP3   OH247933   4.409   3.787  11.728 -0.3138  0.3463  0.3734
 7913TIP3    H147934   4.499   3.770  11.699  0.0794  0.1297  1.6502
 7913TIP3    H247935   4.354   3.755  11.656  0.6332  1.0463 -0.6941
 7914TIP3   OH247936   3.399   4.211  11.588  0.0633 -0.1208 -0.1575
 7914TIP3    H147937   3.320   4.161  11.567 -0.1455  0.1291  0.0248
 7914TIP3    H247938   3.382   4.299  11.554 -1.2785  1.0013  3.0219
 7915TIP3   OH247939   1.048   5.269  11.474  0.2293 -0.4580 -0.0050
 7915TIP3    H147940   1.088   5.182  11.471  0.7117 -0.2164 -1.6381
 7915TIP3    H247941   0.976   5.264  11.411 -1.0446 -0.2486  1.3652
 7916TIP3   OH247942   4.020   1.571  11.839 -0.3281 -1.0250  0.1542
 7916TIP3    H147943   3.942   1.601  11.885 -0.2038 -3.4535  2.1020
 7916TIP3    H247944   4.091   1.626  11.874 -1.0982  1.4945 -1.9461
 7917TIP3   OH247945   1.215   5.589  11.205  0.3273  0.3787 -0.1380
 7917TIP3    H147946   1.165   5.567  11.284 -1.0872  0.3179 -1.0233
 7917TIP3    H247947   1.193   5.680  11.188  1.2688  0.6379 -0.0270
 7918TIP3   OH247948   6.416   4.506  12.414  0.5324 -0.6380  0.2386
 7918TIP3    H147949   6.445   4.595  12.434  1.8945 -1.1380  0.6436
 7918TIP3    H247950   6.428   4.496  12.320 -0.0780 -0.2515  0.1160
 7919TIP3   OH247951   0.701   3.898  11.932  0.0275 -0.6253  0.4463
 7919TIP3    H147952   0.666   3.921  11.846 -0.7042 -0.7885  0.6936
 7919TIP3    H247953   0.720   3.983  11.973 -1.9993 -0.4076  1.0843
 7920TIP3   OH247954   0.308   7.439  11.869  0.0700 -0.6202  0.4469
 7920TIP3    H147955   0.246   7.377  11.832  2.3131 -2.1028 -1.0588
 7920TIP3    H247956   0.307   7.422  11.963 -1.1611 -1.1738  0.3415
 7921TIP3   OH247957   6.220   3.387  12.530  0.2457 -0.7493 -0.4772
 7921TIP3    H147958   6.239   3.387  12.436 -1.9938 -1.9040 -1.0033
 7921TIP3    H247959   6.182   3.301  12.546 -2.6590  0.6261  0.7089
 7922TIP3   OH247960   3.377   7.336  11.016 -0.6991  0.1384 -0.2862
 7922TIP3    H147961   3.293   7.324  10.973 -0.0333  0.3721 -1.7221
 7922TIP3    H247962   3.370   7.286  11.097 -2.9925  1.9488  0.7489
 7923TIP3   OH247963   0.832   2.334  11.553  0.0268 -0.8884 -0.7857
 7923TIP3    H147964   0.741   2.353  11.577  0.3312  0.6798 -0.8164
 7923TIP3    H247965   0.870   2.296  11.632 -0.1466  0.2498 -0.1379
 7924TIP3   OH247966   0.518   4.298  12.210 -0.3938 -0.3702 -0.8375
 7924TIP3    H147967   0.430   4.333  12.227 -0.8719 -0.6845 -2.5311
 7924TIP3    H247968   0.540   4.249  12.289 -1.6630 -0.1234 -0.3103
 7925TIP3   OH247969   1.987   6.477  10.814 -0.1161 -0.0188 -0.0125
 7925TIP3    H147970   1.968   6.551  10.757  1.1348  1.2157  1.1029
 7925TIP3    H247971   1.979   6.512  10.903  0.1767 -1.3074  0.5466
 7926TIP3   OH247972   2.905   4.108  11.249  0.4244  0.0262 -0.1865
 7926TIP3    H147973   2.983   4.149  11.212  0.3761 -1.8557 -2.6103
 7926TIP3    H247974   2.933   4.018  11.269 -1.6057 -1.4620 -3.3903
 7927TIP3   OH247975   2.436   5.671  11.434 -0.4822  0.2437 -0.1201
 7927TIP3    H147976   2.342   5.669  11.420 -0.3226 -0.6807 -1.2094
 7927TIP3    H247977   2.474   5.666  11.346  0.5860 -3.2826  0.3598
 7928TIP3   OH247978   1.841   3.964  11.311 -0.1685 -0.4588  0.4192
 7928TIP3    H147979   1.857   3.875  11.281  1.4123 -0.0595  0.0157
 7928TIP3    H247980   1.753   3.984  11.281  0.1531 -1.2277 -1.1145
 7929TIP3   OH247981   0.973   2.172  10.957 -0.1122  0.4565  0.1924
 7929TIP3    H147982   0.982   2.108  11.028 -0.6573  0.3123  0.1371
 7929TIP3    H247983   1.043   2.235  10.972  1.7093 -1.2159 -0.8921
 7930TIP3   OH247984   4.811   7.642  11.868  0.1756  0.9314 -0.1836
 7930TIP3    H147985   4.900   7.622  11.838  0.6814  1.6224  0.8099
 7930TIP3    H247986   4.759   7.568  11.837  1.3872 -0.2999  0.5583
 7931TIP3   OH247987   1.438   7.061  11.969  0.0568 -0.3075  0.6215
 7931TIP3    H147988   1.470   7.036  11.883 -2.4781 -0.5456 -0.3192
 7931TIP3    H247989   1.502   7.125  12.001  0.4087  0.7229 -1.9569
 7932TIP3   OH247990   2.953   7.197  13.047 -0.0079  0.0152  0.4885
 7932TIP3    H147991   2.984   7.274  13.095  1.3907  0.3408 -0.8574
 7932TIP3    H247992   2.867   7.179  13.085 -0.2512  2.0593  1.0510
 7933TIP3   OH247993   2.149   6.623  11.676  0.0117  0.1144  0.5489
 7933TIP3    H147994   2.218   6.628  11.610 -1.5730  1.0727 -1.1389
 7933TIP3    H247995   2.084   6.565  11.638 -2.1458  2.7202 -0.0409
 7934TIP3   OH247996   5.058   0.913  11.480 -0.2157  0.2109 -0.0504
 7934TIP3    H147997   4.995   0.842  11.491  0.3620 -0.4983 -1.0405
 7934TIP3    H247998   5.064   0.955  11.565 -1.9398  0.2358  0.0771
 7935TIP3   OH247999   6.951   2.472  10.641  0.0084 -0.5216  0.2305
 7935TIP3    H148000   6.941   2.419  10.720 -1.2076 -1.2096 -0.3577
 7935TIP3    H248001   6.869   2.520  10.634  0.2868 -0.1280 -0.3699
 7936TIP3   OH248002   2.013   1.358  10.637  0.1240  0.7234  0.1536
 7936TIP3    H148003   2.102   1.390  10.652  1.4505 -1.2236 -2.6577
 7936TIP3    H248004   2.023   1.265  10.620 -2.3857  0.5397 -0.8151
 7937TIP3   OH248005   6.005   1.515  11.110 -0.4213 -0.0399  0.0612
 7937TIP3    H148006   5.980   1.574  11.038 -0.5233 -0.1118  0.0373
 7937TIP3    H248007   5.921   1.487  11.147 -0.3884 -0.6554 -0.3204
 7938TIP3   OH248008   3.966   6.991  10.032  0.0028  0.2795  0.0395
 7938TIP3    H148009   3.888   6.935  10.028  0.0530  0.0658  1.4706
 7938TIP3    H248010   3.934   7.074  10.067  0.3936  0.2183  0.5508
 7939TIP3   OH248011   1.420   6.750  11.942 -0.3255  0.1118 -0.1939
 7939TIP3    H148012   1.499   6.783  11.986  0.1328  1.3975 -1.8550
 7939TIP3    H248013   1.381   6.829  11.904 -1.5709 -0.7397 -0.7058
 7940TIP3   OH248014   5.512   5.502  11.747  0.1454 -0.2287 -0.0218
 7940TIP3    H148015   5.581   5.542  11.693 -0.9134 -0.5507 -1.6815
 7940TIP3    H248016   5.431   5.537  11.711 -0.6981 -2.0938 -0.0501
 7941TIP3   OH248017   2.606   4.200  12.432  0.2788 -0.3521  0.4823
 7941TIP3    H148018   2.563   4.275  12.472 -0.9455 -1.3210  1.0602
 7941TIP3    H248019   2.690   4.234  12.401 -0.4557  1.3630  0.2417
 7942TIP3   OH248020   6.811   5.378  10.952  0.0802 -0.1897  0.5941
 7942TIP3    H148021   6.821   5.412  11.041 -0.9241  1.1230  0.2526
 7942TIP3    H248022   6.826   5.454  10.896  0.3784 -0.9265 -0.3548
 7943TIP3   OH248023   1.327   3.707  11.654 -0.0716 -0.2797  0.1379
 7943TIP3    H148024   1.260   3.660  11.703 -0.3319  1.0026  1.0487
 7943TIP3    H248025   1.286   3.789  11.628  1.1096  0.5192  0.6844
 7944TIP3   OH248026   6.994   2.843  12.041  0.5689  0.0911 -0.0350
 7944TIP3    H148027   6.913   2.894  12.045  0.9885  0.7909 -0.1759
 7944TIP3    H248028   7.010   2.816  12.131 -0.1442 -0.5777 -0.1034
 7945TIP3   OH248029   3.269   4.471  12.385 -0.0040  0.3910 -0.1757
 7945TIP3    H148030   3.343   4.450  12.329  0.0450  2.0571 -0.7976
 7945TIP3    H248031   3.195   4.482  12.325 -0.2264  0.9742  0.1913
 7946TIP3   OH248032   3.234   2.236  10.915  0.4836  0.4766  0.2156
 7946TIP3    H148033   3.188   2.288  10.982 -1.6231  0.2992 -1.0072
 7946TIP3    H248034   3.304   2.293  10.884  3.9854 -0.6225  4.9012
 7947TIP3   OH248035   3.533   1.466  12.024  0.7704 -0.0435  0.1357
 7947TIP3    H148036   3.517   1.380  11.985  0.0861 -1.1184  2.6033
 7947TIP3    H248037   3.628   1.470  12.036  0.7756 -0.5751  0.2737
 7948TIP3   OH248038   2.149   0.399  12.357 -0.2415 -0.8433 -0.3328
 7948TIP3    H148039   2.204   0.441  12.292 -0.8605  0.4590 -0.0422
 7948TIP3    H248040   2.205   0.390  12.434  0.0564 -1.0702 -0.5717
 7949TIP3   OH248041   5.509   3.234  12.020 -0.4282  0.0339 -0.5495
 7949TIP3    H148042   5.459   3.303  11.976  0.3552  1.9169  1.3249
 7949TIP3    H248043   5.442   3.177  12.058 -1.1716  1.3246  0.1444
 7950TIP3   OH248044   1.607   7.093  11.371  0.3628  0.3409 -0.2269
 7950TIP3    H148045   1.612   7.113  11.277  1.9747 -1.3648 -0.5472
 7950TIP3    H248046   1.518   7.121  11.396 -0.0635  0.9524 -2.2012
 7951TIP3   OH248047   6.377   0.983  10.610  0.4799 -0.3786 -0.7098
 7951TIP3    H148048   6.415   1.065  10.581 -0.1076  0.4541  0.7836
 7951TIP3    H248049   6.449   0.937  10.654  0.2214  0.5144  0.7394
 7952TIP3   OH248050   4.279   2.724  11.994  0.7489 -0.2024  0.7734
 7952TIP3    H148051   4.328   2.806  11.983  1.0119 -0.5454 -0.9526
 7952TIP3    H248052   4.323   2.662  11.935 -1.2284 -0.7485 -0.2097
 7953TIP3   OH248053   3.484   2.825  10.570  0.0640 -0.1920  0.4278
 7953TIP3    H148054   3.563   2.863  10.530  0.4486 -0.6581  0.7240
 7953TIP3    H248055   3.497   2.731  10.561 -1.0487 -0.2597 -0.6243
 7954TIP3   OH248056   3.835   3.889  11.034 -0.0284 -0.4204  0.2565
 7954TIP3    H148057   3.799   3.811  11.076 -3.1056  0.2871 -0.8134
 7954TIP3    H248058   3.809   3.882  10.942 -1.4847  2.3652  0.3320
 7955TIP3   OH248059   2.271   2.391  12.492 -0.5466 -0.4402 -0.7434
 7955TIP3    H148060   2.347   2.335  12.475  0.0501  0.3863 -0.8296
 7955TIP3    H248061   2.305   2.480  12.485 -0.6932 -0.0016  2.5391
 7956TIP3   OH248062   0.162   1.966  11.639  0.3025 -0.4490 -0.2484
 7956TIP3    H148063   0.163   1.887  11.692  0.9566  0.1126  0.6097
 7956TIP3    H248064   0.074   1.967  11.600 -1.0633  0.1817  2.5226
 7957TIP3   OH248065   2.468   2.096  12.359  0.4098  0.3493  0.0781
 7957TIP3    H148066   2.508   2.139  12.284  0.1259  1.9653  0.8056
 7957TIP3    H248067   2.503   2.143  12.435 -1.4334  0.5933  0.8164
 7958TIP3   OH248068   2.662   0.806  11.237  0.1153 -0.8105  0.1317
 7958TIP3    H148069   2.582   0.787  11.285  1.8020 -1.6704  2.8839
 7958TIP3    H248070   2.659   0.900  11.221 -1.8923 -0.9988 -0.8167
 7959TIP3   OH248071   1.723   4.651  11.463 -0.0888  0.0097  0.3621
 7959TIP3    H148072   1.791   4.644  11.529  0.3645 -0.3631 -0.1339
 7959TIP3    H248073   1.642   4.632  11.510  0.4853 -3.1513  0.2886
 7960TIP3   OH248074   1.399   4.986  11.809 -0.1555  0.3883 -0.9033
 7960TIP3    H148075   1.393   5.047  11.883  0.1652 -1.2889  0.5665
 7960TIP3    H248076   1.309   4.980  11.776 -0.2075  1.5569 -1.0133
 7961TIP3   OH248077   4.289   4.814  11.700 -0.0004 -0.1653 -0.0747
 7961TIP3    H148078   4.286   4.804  11.795  2.1630 -1.0603 -0.0402
 7961TIP3    H248079   4.215   4.764  11.668 -1.4538  1.0901  1.1548
 7962TIP3   OH248080   4.829   2.142  11.976 -0.0891  0.0731 -0.0934
 7962TIP3    H148081   4.824   2.054  12.014  0.2535  0.2474  0.3585
 7962TIP3    H248082   4.905   2.182  12.018  0.8107 -0.0158 -1.5670
 7963TIP3   OH248083   4.405   6.658  10.420  0.3408 -0.5640 -0.3004
 7963TIP3    H148084   4.444   6.731  10.372 -1.7600  1.1195  0.4119
 7963TIP3    H248085   4.457   6.582  10.394  1.1407  0.7582 -2.9166
 7964TIP3   OH248086   2.429   0.341  10.774  0.1364 -0.5330 -0.0664
 7964TIP3    H148087   2.413   0.261  10.722 -0.0468  0.1313 -1.0635
 7964TIP3    H248088   2.341   0.374  10.794  0.2170 -0.3622 -0.0016
 7965TIP3   OH248089   0.628   3.423  12.173 -0.1913  0.2369  0.2066
 7965TIP3    H148090   0.608   3.420  12.079 -1.5712  0.0501  0.4808
 7965TIP3    H248091   0.676   3.505  12.184  0.5015 -0.0232 -0.7440
 7966TIP3   OH248092   1.300   3.492  11.925  0.3110  0.9143 -0.2326
 7966TIP3    H148093   1.295   3.403  11.889 -0.1667  0.4653  0.8931
 7966TIP3    H248094   1.216   3.532  11.901 -0.5941  0.1524  1.4867
 7967TIP3   OH248095   3.307   1.617  12.250  0.0857  0.4301  0.6097
 7967TIP3    H148096   3.297   1.585  12.160  0.7126 -0.5030  0.8587
 7967TIP3    H248097   3.235   1.576  12.298  0.5655 -0.1936  0.8127
 7968TIP3   OH248098   2.637   2.385  11.994  0.4243  0.5739  0.2117
 7968TIP3    H148099   2.548   2.410  11.972  0.4243 -0.1731 -0.7503
 7968TIP3    H248100   2.687   2.467  11.990 -0.1487  0.9316  0.3847
 7969TIP3   OH248101   7.300   5.138  10.989 -0.0576  0.4422 -0.4161
 7969TIP3    H148102   7.301   5.145  11.085  0.0070  0.1244 -0.3937
 7969TIP3    H248103   7.306   5.044  10.971 -1.4556  0.3827 -0.7099
 7970TIP3   OH248104   6.722   6.435  12.653 -0.4334 -0.4544  0.3495
 7970TIP3    H148105   6.633   6.438  12.620 -1.0349  0.0055  1.9436
 7970TIP3    H248106   6.720   6.372  12.725  0.9473 -1.7905 -0.6994
 7971TIP3   OH248107   5.171   2.113  11.621 -0.3206  0.2624 -0.0554
 7971TIP3    H148108   5.225   2.125  11.543  1.9778 -2.4350  0.9262
 7971TIP3    H248109   5.216   2.163  11.689  0.2213 -0.8654  0.4484
 7972TIP3   OH248110   2.881   3.769  12.109 -0.0786  0.3487 -0.2511
 7972TIP3    H148111   2.860   3.676  12.104 -0.8538  0.5274 -0.4985
 7972TIP3    H248112   2.967   3.772  12.150  0.4712 -0.5281 -1.2905
 7973TIP3   OH248113   1.674   5.056  12.785  0.2472  0.4236  0.4151
 7973TIP3    H148114   1.722   5.135  12.759  2.2457  0.2239  3.0842
 7973TIP3    H248115   1.694   4.992  12.717  1.1598  1.3125 -0.1843
 7974TIP3   OH248116   5.707   2.840  10.497 -0.4077 -0.0583  0.0810
 7974TIP3    H148117   5.669   2.754  10.476 -0.7475 -0.2884  1.4944
 7974TIP3    H248118   5.801   2.825  10.500 -0.2699  0.1774 -1.9985
 7975TIP3   OH248119   3.626   4.265  10.628 -0.7097  0.7565 -1.0294
 7975TIP3    H148120   3.672   4.200  10.680  1.6305  2.1369 -1.2180
 7975TIP3    H248121   3.538   4.267  10.664  0.1577 -0.0160  1.3151
 7976TIP3   OH248122   4.395   3.047  10.788  0.1174 -0.2791 -0.0310
 7976TIP3    H148123   4.426   3.131  10.822 -0.6803  0.1527 -0.3452
 7976TIP3    H248124   4.474   2.997  10.772  0.5911  0.2873  0.4892
 7977TIP3   OH248125   1.352   6.402  10.800  0.7581  0.1089 -0.2061
 7977TIP3    H148126   1.405   6.323  10.792 -0.6297 -1.1590  2.0030
 7977TIP3    H248127   1.282   6.378  10.860  0.2005  2.9872  0.4703
 7978TIP3   OH248128   1.596   3.474  10.959  0.3669 -0.6503 -0.6985
 7978TIP3    H148129   1.674   3.476  10.903  0.2061  1.7242 -0.9177
 7978TIP3    H248130   1.557   3.560  10.948 -1.5407 -1.3199  0.5033
 7979TIP3   OH248131   5.328   3.037  12.082  0.2749 -0.3876 -0.1961
 7979TIP3    H148132   5.287   3.056  12.166  0.4969 -0.4777 -0.0665
 7979TIP3    H248133   5.256   3.012  12.025 -0.0536  1.0552 -0.4385
 7980TIP3   OH248134   1.052   7.048  10.792 -0.0659 -0.2777  0.0408
 7980TIP3    H148135   1.004   7.015  10.715  1.6221 -0.5188 -0.9683
 7980TIP3    H248136   1.101   6.972  10.823  0.9292  0.3354  0.0148
 7981TIP3   OH248137   5.458   5.258  12.948  0.1497  0.2431  0.2162
 7981TIP3    H148138   5.407   5.237  12.869 -0.6961  1.8623  0.2924
 7981TIP3    H248139   5.511   5.180  12.964 -0.5183 -0.5539 -1.2882
 7982TIP3   OH248140   4.078   3.545  10.933  0.1314  0.7629 -0.1759
 7982TIP3    H148141   4.123   3.468  10.968 -1.2359  0.4694  1.0456
 7982TIP3    H248142   4.101   3.615  10.993 -0.2074  0.8478 -0.1448
 7983TIP3   OH248143   2.252   1.700  12.080  0.2480  0.0040  0.2503
 7983TIP3    H148144   2.226   1.621  12.032  0.6639  0.7762 -1.3283
 7983TIP3    H248145   2.341   1.682  12.110  1.0461  0.4721 -1.6491
 7984TIP3   OH248146   3.878   0.823  12.208 -0.3674 -0.3444 -0.0928
 7984TIP3    H148147   3.921   0.746  12.246 -0.4115 -1.6147 -2.3732
 7984TIP3    H248148   3.949   0.885  12.192  0.0800 -0.9604 -0.5480
 7985TIP3   OH248149   6.600   3.287  10.728  0.0126 -0.7352 -0.0530
 7985TIP3    H148150   6.536   3.355  10.709  0.0438 -0.8316 -0.5349
 7985TIP3    H248151   6.577   3.255  10.815  0.9357  0.9306  0.8463
 7986TIP3   OH248152   5.410   1.459  11.748  0.2605  0.1291 -0.1541
 7986TIP3    H148153   5.497   1.443  11.712  0.2162  1.0437 -0.6765
 7986TIP3    H248154   5.370   1.522  11.689 -0.8309 -0.4063 -0.0185
 7987TIP3   OH248155   6.454   2.461  12.403 -0.0291  0.0255  0.4753
 7987TIP3    H148156   6.515   2.424  12.467 -1.3242 -0.3855  1.5318
 7987TIP3    H248157   6.435   2.388  12.344 -0.3422 -0.1938  0.8322
 7988TIP3   OH248158   7.093   4.683  12.044 -0.4296  0.0562 -0.7408
 7988TIP3    H148159   7.074   4.764  12.092 -2.6673 -0.7434 -0.1069
 7988TIP3    H248160   7.030   4.683  11.972  0.8948 -0.2065 -1.9476
 7989TIP3   OH248161   4.601   1.043  12.148 -0.2774 -0.0704  0.7197
 7989TIP3    H148162   4.595   0.989  12.069  2.1138  0.1177  0.3212
 7989TIP3    H248163   4.667   0.999  12.202 -1.2515  0.2723  2.2488
 7990TIP3   OH248164   2.299   1.453  10.639 -0.0755  0.5518  0.2063
 7990TIP3    H148165   2.273   1.496  10.558 -1.5900 -0.2248  0.2421
 7990TIP3    H248166   2.347   1.520  10.687 -1.0219  1.7156 -0.4074
 7991TIP3   OH248167   5.085   4.653  13.106  0.3587 -0.0673 -0.5669
 7991TIP3    H148168   4.998   4.693  13.105 -0.4199 -1.6837 -1.4131
 7991TIP3    H248169   5.070   4.561  13.081  2.0071 -0.9850  1.4609
 7992TIP3   OH248170   6.694   4.366  11.017 -0.1426 -0.3133  0.2068
 7992TIP3    H148171   6.789   4.368  11.029 -0.2437 -2.7598  2.4226
 7992TIP3    H248172   6.682   4.326  10.931  0.8517 -0.6789  0.2236
 7993TIP3   OH248173   5.621   4.658  10.467  0.4039  0.2052 -0.0324
 7993TIP3    H148174   5.628   4.750  10.443  0.9212  0.1486 -0.1028
 7993TIP3    H248175   5.588   4.615  10.388  1.6683  0.0915 -0.5287
 7994TIP3   OH248176   4.090   6.674  13.207  0.3865 -0.0563  0.1518
 7994TIP3    H148177   4.068   6.610  13.275  1.2509  1.2213  1.7152
 7994TIP3    H248178   4.049   6.755  13.236  1.9023  0.8411 -0.1116
 7995TIP3   OH248179   0.624   0.772  11.131  0.5021  0.2375 -0.3895
 7995TIP3    H148180   0.592   0.749  11.218 -0.7458  0.1492 -0.8572
 7995TIP3    H248181   0.545   0.788  11.080  1.1749 -0.9014 -1.8354
 7996TIP3   OH248182   3.618   1.269  11.146 -0.1583 -0.1164 -0.0630
 7996TIP3    H148183   3.711   1.281  11.165 -0.0224  0.0911 -0.8520
 7996TIP3    H248184   3.606   1.174  11.142 -0.2670 -0.1897  1.3801
 7997TIP3   OH248185   5.905   7.615  11.596  0.0157 -0.2630 -0.0154
 7997TIP3    H148186   5.976   7.564  11.556  0.3027  1.1821 -1.4539
 7997TIP3    H248187   5.928   7.619  11.689  1.0320 -1.0571 -0.2145
 7998TIP3   OH248188   3.571   5.622  11.928  0.0298  0.3029 -0.3183
 7998TIP3    H148189   3.635   5.645  11.859  0.3322  2.2917  0.5436
 7998TIP3    H248190   3.603   5.539  11.963  0.6642 -0.0490 -1.6294
 7999TIP3   OH248191   6.752   6.537  11.227 -0.1584 -0.1627 -0.3778
 7999TIP3    H148192   6.800   6.455  11.218 -1.1865 -0.7362 -0.7548
 7999TIP3    H248193   6.819   6.601  11.254  0.9629 -0.7603 -1.6284
 8000TIP3   OH248194   1.545   6.300  12.288  0.3057  0.2248 -0.0773
 8000TIP3    H148195   1.636   6.326  12.282  0.4458  0.9273  3.1303
 8000TIP3    H248196   1.538   6.258  12.374 -2.1342 -0.9649 -0.7688
 8001TIP3   OH248197   6.863   0.936  10.751  0.0128 -0.5889  0.3671
 8001TIP3    H148198   6.841   1.022  10.787  0.1115 -1.2338  2.0568
 8001TIP3    H248199   6.779   0.896  10.731 -0.0601 -0.3664  0.2239
 8002TIP3   OH248200   6.236   4.309  12.994 -0.1446 -0.5606 -0.2194
 8002TIP3    H148201   6.272   4.385  13.040 -0.7844 -1.6535  2.1923
 8002TIP3    H248202   6.161   4.344  12.945 -0.6463  0.3327  1.1334
 8003TIP3   OH248203   2.701   5.199  12.294 -0.4532  0.0494  0.8119
 8003TIP3    H148204   2.617   5.158  12.274 -0.6512 -0.0936  1.8465
 8003TIP3    H248205   2.717   5.260  12.222 -0.7489 -0.9474 -0.1267
 8004TIP3   OH248206   0.126   1.819  11.016  0.9467 -0.1050 -0.5910
 8004TIP3    H148207   0.031   1.828  11.025  0.6425 -0.9827 -2.3284
 8004TIP3    H248208   0.154   1.902  10.977  1.7531  2.2581  4.3076
 8005TIP3   OH248209   1.557   0.992  12.498  0.0567 -0.3824  0.0173
 8005TIP3    H148210   1.486   1.055  12.486 -0.3506 -0.6919  0.7329
 8005TIP3    H248211   1.636   1.041  12.478 -0.3755 -0.1124 -1.0796
 8006TIP3   OH248212   7.534   0.055  10.901 -0.4057 -0.4146 -0.4607
 8006TIP3    H148213   7.541  -0.002  10.978 -1.0546 -0.3986 -0.3805
 8006TIP3    H248214   7.576   0.006  10.831  3.2830  0.9375  0.5747
 8007TIP3   OH248215   2.659   6.788  11.914  0.4658  0.4173 -0.0083
 8007TIP3    H148216   2.569   6.758  11.929 -0.2343  2.8787  1.2008
 8007TIP3    H248217   2.700   6.786  12.000  1.5014 -0.2941 -0.4884
 8008TIP3   OH248218   1.067   5.572  10.917 -0.1020  0.4574 -0.5284
 8008TIP3    H148219   1.134   5.518  10.874 -0.5002 -1.6256  1.3319
 8008TIP3    H248220   1.114   5.618  10.986 -0.1521  1.0125 -0.8512
 8009TIP3   OH248221   3.158   0.416  12.164  0.2486 -0.5249 -0.0165
 8009TIP3    H148222   3.210   0.440  12.087  1.9813  0.0055  1.2619
 8009TIP3    H248223   3.102   0.491  12.180 -1.5458 -1.3759 -1.8273
 8010TIP3   OH248224   0.646   2.485  12.948  0.1620 -0.4665  0.0400
 8010TIP3    H148225   0.572   2.520  12.899  1.2647  1.1720 -0.5221
 8010TIP3    H248226   0.616   2.484  13.039  0.5750  3.7658  0.4246
 8011TIP3   OH248227   4.204   7.120  13.128 -0.0732 -0.1130  0.5436
 8011TIP3    H148228   4.198   7.181  13.054  1.4619 -0.8610 -0.2403
 8011TIP3    H248229   4.120   7.128  13.173 -1.1661  0.1411 -1.4492
 8012TIP3   OH248230   5.899   1.721  11.784 -0.0190  0.6647  0.2459
 8012TIP3    H148231   5.812   1.750  11.758  0.9575  2.7975 -0.8893
 8012TIP3    H248232   5.917   1.647  11.726 -0.4102  1.3136 -0.7336
 8013TIP3   OH248233   0.098   5.796  13.050  0.0645  0.0010 -0.5602
 8013TIP3    H148234   0.139   5.711  13.035 -0.9219 -1.6149  4.0794
 8013TIP3    H248235   0.163   5.846  13.101 -1.5592 -0.6713  2.4448
 8014TIP3   OH248236   4.180   1.385  11.667  0.0149  0.0188 -0.3037
 8014TIP3    H148237   4.168   1.478  11.683 -2.6599 -0.2959 -0.0017
 8014TIP3    H248238   4.143   1.343  11.745  2.3279 -1.3295  0.1668
 8015TIP3   OH248239   3.807   6.680  10.767 -0.0732  0.4068 -0.0131
 8015TIP3    H148240   3.874   6.620  10.733 -0.0227  0.1739  0.4818
 8015TIP3    H248241   3.840   6.707  10.852 -0.4205  0.6053  0.0606
 8016TIP3   OH248242   3.629   3.115  11.918 -0.7973 -0.0413 -0.2477
 8016TIP3    H148243   3.699   3.148  11.862  0.1578 -0.4003  0.6949
 8016TIP3    H248244   3.623   3.178  11.989  0.3456 -1.2947  1.0298
 8017TIP3   OH248245   5.993   6.588  10.980 -0.0229  0.0011 -0.6055
 8017TIP3    H148246   5.908   6.615  10.946 -0.2976  0.2868  0.2819
 8017TIP3    H248247   6.053   6.659  10.956  0.5278 -1.2905 -3.3668
 8018TIP3   OH248248   4.572   3.835  10.843 -0.4110 -0.1251 -0.2982
 8018TIP3    H148249   4.620   3.853  10.762  0.6900 -0.6315  0.2279
 8018TIP3    H248250   4.489   3.797  10.813 -0.6259  1.0106 -1.2281
 8019TIP3   OH248251   5.195   2.045  11.228  0.0162 -0.2889 -0.1235
 8019TIP3    H148252   5.282   2.083  11.217 -0.4166  0.9095  0.4064
 8019TIP3    H248253   5.135   2.119  11.216 -0.9450 -1.1534 -0.7763
 8020TIP3   OH248254   6.768   4.016  13.314 -0.7248  0.3108  0.0925
 8020TIP3    H148255   6.863   4.027  13.323 -0.4935 -1.2769 -0.1095
 8020TIP3    H248256   6.744   4.075  13.243  0.3138 -0.1471 -0.6688
 8021TIP3   OH248257   2.353   7.350  11.901  0.3940  0.1122 -0.0755
 8021TIP3    H148258   2.389   7.283  11.959  0.3161 -0.8629 -1.1233
 8021TIP3    H248259   2.429   7.388  11.857  0.3540 -0.0802 -0.3138
 8022TIP3   OH248260   4.005   6.457  10.742  0.0813  0.0631 -0.8325
 8022TIP3    H148261   4.088   6.460  10.791 -0.2720 -0.4213 -0.1929
 8022TIP3    H248262   4.031   6.443  10.651  0.7181  0.3097 -0.6943
 8023TIP3   OH248263   7.176   6.179  11.368  1.0957 -0.5286  0.0182
 8023TIP3    H148264   7.160   6.195  11.461 -0.7100  0.6925 -0.4492
 8023TIP3    H248265   7.271   6.174  11.361  1.3300  0.6332  1.7328
 8024TIP3   OH248266   0.825   6.558  10.735 -0.8153 -0.3914 -0.1905
 8024TIP3    H148267   0.865   6.481  10.775 -0.8396  1.0636  2.9630
 8024TIP3    H248268   0.733   6.555  10.764 -1.1972  0.0591 -1.3003
 8025TIP3   OH248269   3.890   1.970  13.010  0.2677  0.1991  0.4540
 8025TIP3    H148270   3.855   2.031  12.945 -0.8529 -1.1460 -0.2599
 8025TIP3    H248271   3.858   1.885  12.982  2.9817 -0.9806  0.5550
 8026TIP3   OH248272   1.532   2.245  12.374 -0.5461 -0.2462 -0.3196
 8026TIP3    H148273   1.540   2.151  12.392 -2.0082 -0.1496  1.0434
 8026TIP3    H248274   1.617   2.281  12.398 -0.1360 -1.1352 -0.3699
 8027TIP3   OH248275   4.828   4.069  11.684 -0.5652  0.1540 -0.1153
 8027TIP3    H148276   4.768   4.002  11.715 -0.4320 -0.2156 -0.6440
 8027TIP3    H248277   4.896   4.021  11.637 -0.2950  0.6341 -0.2272
 8028TIP3   OH248278   5.033   0.537  12.607  0.4275 -0.3539 -0.3036
 8028TIP3    H148279   5.037   0.511  12.699 -0.3324 -1.0625 -0.4611
 8028TIP3    H248280   5.038   0.632  12.609 -1.1370 -0.2447  0.6035
 8029TIP3   OH248281   4.638   5.219  10.437 -0.0675 -0.2223 -0.3986
 8029TIP3    H148282   4.653   5.308  10.469  0.1858 -0.8344  1.2743
 8029TIP3    H248283   4.544   5.205  10.450  0.2011 -0.8149  1.0784
 8030TIP3   OH248284   6.295   0.597  12.614  0.4826  0.6849  0.2377
 8030TIP3    H148285   6.361   0.633  12.672  2.6124 -3.2000  0.5542
 8030TIP3    H248286   6.339   0.589  12.529  0.2286 -1.1855  0.2384
 8031TIP3   OH248287   1.522   6.571  10.987  0.2428  0.5431 -0.2013
 8031TIP3    H148288   1.495   6.526  10.907 -0.4931  0.0273  0.3286
 8031TIP3    H248289   1.607   6.610  10.965  1.3245 -1.7938 -0.4070
 8032TIP3   OH248290   6.307   5.745  12.330 -0.0288  0.2463 -0.3878
 8032TIP3    H148291   6.381   5.782  12.379 -0.0569 -0.6314  0.3461
 8032TIP3    H248292   6.345   5.710  12.250  0.3510 -0.1535 -0.0374
 8033TIP3   OH248293   1.360   1.608  12.710  0.0555  0.0652  1.0978
 8033TIP3    H148294   1.281   1.575  12.667 -0.4765  0.0755  2.0329
 8033TIP3    H248295   1.331   1.684  12.761  0.7901  0.4505  0.9653
 8034TIP3   OH248296   1.779   6.546  11.281 -0.1391 -0.1709 -0.2493
 8034TIP3    H148297   1.748   6.624  11.326 -0.4425  0.5623 -1.6593
 8034TIP3    H248298   1.701   6.508  11.241  0.1688 -0.5987 -0.4563
 8035TIP3   OH248299   4.944   4.272  11.428 -0.0828 -0.0985 -0.1527
 8035TIP3    H148300   5.040   4.269  11.436  0.0754  2.1823 -0.3374
 8035TIP3    H248301   4.920   4.357  11.466 -2.0789 -0.7644  0.1782
 8036TIP3   OH248302   2.021   6.512  11.412 -0.1433 -0.0519  0.3838
 8036TIP3    H148303   1.950   6.487  11.353  0.4378 -4.3398  1.1822
 8036TIP3    H248304   2.101   6.491  11.365  0.4941  1.1315  0.9053
 8037TIP3   OH248305   3.135   7.077  11.429 -0.0758 -0.0337 -0.1211
 8037TIP3    H148306   3.145   6.996  11.379 -1.3670 -0.4430  0.2540
 8037TIP3    H248307   3.110   7.143  11.364  0.2098 -0.1103 -0.3084
 8038TIP3   OH248308   5.295   0.512  11.412 -0.0763  0.1968  0.2067
 8038TIP3    H148309   5.345   0.449  11.464  2.2735  2.4441  0.9360
 8038TIP3    H248310   5.334   0.597  11.435 -0.2834  1.5282 -3.7084
 8039TIP3   OH248311   3.841   1.229  10.788 -0.6456 -0.1888 -0.0997
 8039TIP3    H148312   3.771   1.164  10.788  0.3031 -1.2895 -1.6292
 8039TIP3    H248313   3.863   1.240  10.880 -1.2051 -1.6572  0.2482
 8040TIP3   OH248314   3.833   4.719  11.073  0.0936 -0.3269 -0.2418
 8040TIP3    H148315   3.776   4.656  11.029  0.7547 -0.8749 -0.3372
 8040TIP3    H248316   3.919   4.677  11.073  0.2487 -0.0446  0.9826
 8041TIP3   OH248317   7.153   0.259  12.550  0.1348  0.4323  0.0892
 8041TIP3    H148318   7.175   0.202  12.476  1.8537  1.1006  0.0241
 8041TIP3    H248319   7.065   0.290  12.531  0.7611  1.1040 -2.0407
 8042TIP3   OH248320   4.809   6.374  11.778  0.3266 -0.2136 -0.7013
 8042TIP3    H148321   4.860   6.398  11.701  0.7673  2.0018  0.2081
 8042TIP3    H248322   4.873   6.368  11.849 -0.2953 -0.3591 -0.1322
 8043TIP3   OH248323   7.074   4.987  11.766  0.6271  0.1380  0.3278
 8043TIP3    H148324   7.058   5.031  11.850  2.1806  2.0443 -0.3059
 8043TIP3    H248325   7.052   5.052  11.700  2.3675 -0.2252 -0.6764
 8044TIP3   OH248326   3.891   0.769  10.798  0.2446 -0.5072 -0.0752
 8044TIP3    H148327   3.845   0.689  10.772  0.3068 -0.6009  0.0961
 8044TIP3    H248328   3.932   0.801  10.718  2.1403 -1.9151  0.2508
 8045TIP3   OH248329   0.454   0.237  10.987 -0.3036 -0.2566  0.2427
 8045TIP3    H148330   0.394   0.213  10.917  1.2261 -1.3851 -0.7503
 8045TIP3    H248331   0.479   0.154  11.028  1.0163  0.1026  0.2381
 8046TIP3   OH248332   5.436   3.024  11.220  0.3747  0.1357 -0.1449
 8046TIP3    H148333   5.411   3.115  11.234 -0.4992  0.1025 -1.3787
 8046TIP3    H248334   5.355   2.980  11.193  0.5805 -1.2182  1.2996
 8047TIP3   OH248335   2.123   5.851  11.202  0.3545 -0.2146 -0.1572
 8047TIP3    H148336   2.072   5.827  11.279  0.3373  0.9079  0.1958
 8047TIP3    H248337   2.058   5.881  11.138  0.1345 -3.1630 -1.4625
 8048TIP3   OH248338   3.669   0.043  12.450  0.1445 -0.0992 -0.3508
 8048TIP3    H148339   3.719   0.120  12.423  1.4955 -1.2418 -1.2730
 8048TIP3    H248340   3.686  -0.022  12.382  0.1078 -1.6494  1.0532
 8049TIP3   OH248341   2.158   7.023  11.541  0.2552  0.0978  0.7027
 8049TIP3    H148342   2.064   7.039  11.530  0.5185  0.2696 -2.0409
 8049TIP3    H248343   2.165   6.977  11.625 -2.3642 -0.5786  0.6351
 8050TIP3   OH248344   4.869   5.564  11.367  0.0509  0.2844 -0.4168
 8050TIP3    H148345   4.826   5.649  11.363 -0.4742  0.0032 -0.9522
 8050TIP3    H248346   4.826   5.513  11.298 -0.7551 -0.9301  0.9405
 8051TIP3   OH248347   7.429   5.754  11.283  0.2131  0.2159  0.1918
 8051TIP3    H148348   7.383   5.742  11.200 -0.4079  0.1748  0.5342
 8051TIP3    H248349   7.481   5.833  11.270 -0.3700  0.5760 -0.0316
 8052TIP3   OH248350   1.313   2.475  11.279 -0.3306 -0.6785 -0.0640
 8052TIP3    H148351   1.345   2.564  11.262 -2.1889  0.3118  1.3344
 8052TIP3    H248352   1.263   2.482  11.360 -2.5941 -2.4724 -1.1886
 8053TIP3   OH248353   7.638   0.818  12.162  0.3802 -0.0957 -0.0486
 8053TIP3    H148354   7.608   0.891  12.216 -0.4337  0.3366 -1.0584
 8053TIP3    H248355   7.733   0.818  12.172  0.2875  0.3345  0.9161
 8054TIP3   OH248356   0.533   3.387  11.111  0.2268 -0.4461  0.2509
 8054TIP3    H148357   0.439   3.370  11.109  0.4104 -1.7515  1.4453
 8054TIP3    H248358   0.542   3.467  11.163 -0.2217 -0.2946  0.0945
 8055TIP3   OH248359   5.157   5.147  11.695 -0.2260  0.3148  0.2425
 8055TIP3    H148360   5.063   5.164  11.703  0.1284  2.2524  0.8285
 8055TIP3    H248361   5.188   5.213  11.633  0.5303 -1.3149 -1.2042
 8056TIP3   OH248362   3.890   7.416  12.961 -0.4502 -0.1568  0.2831
 8056TIP3    H148363   3.832   7.430  13.036  1.3707 -0.1493  1.7541
 8056TIP3    H248364   3.875   7.491  12.904 -1.8555 -0.1574  0.6085
 8057TIP3   OH248365   7.457   5.992  11.910  0.1557  0.7039  0.4054
 8057TIP3    H148366   7.419   5.984  11.997  1.5200  1.3367  1.0747
 8057TIP3    H248367   7.524   5.923  11.907  0.7950  1.3303  0.2293
 8058TIP3   OH248368   2.775   0.560  12.638  0.4181  0.0085  0.0746
 8058TIP3    H148369   2.827   0.640  12.647 -1.4745  1.2679  0.4568
 8058TIP3    H248370   2.693   0.589  12.598 -0.7897 -1.5282  1.3010
 8059TIP3   OH248371   2.238   7.004  12.793  0.1573 -0.1758  0.1476
 8059TIP3    H148372   2.252   7.056  12.873 -0.5621  0.8876 -0.3888
 8059TIP3    H248373   2.232   7.069  12.723  0.4604 -1.0779 -0.7314
 8060TIP3   OH248374   1.244   3.168  12.321  0.3890  0.6456  0.5162
 8060TIP3    H148375   1.150   3.157  12.330  0.3155  1.1163  0.3477
 8060TIP3    H248376   1.257   3.190  12.229  0.7437 -0.2193  0.3515
 8061TIP3   OH248377   5.657   3.243  12.485 -0.2547 -0.0454 -0.2299
 8061TIP3    H148378   5.588   3.179  12.502  0.6269 -0.9719  0.0090
 8061TIP3    H248379   5.667   3.244  12.390  1.5651 -2.3733 -0.1629
 8062TIP3   OH248380   7.080   2.065  11.865 -0.1754 -0.0718  0.1794
 8062TIP3    H148381   7.046   1.976  11.873  1.0038 -0.5055  0.5390
 8062TIP3    H248382   7.142   2.061  11.793 -0.3293  0.5277  0.0140
 8063TIP3   OH248383   6.951   4.521  11.075 -0.4862  0.0616 -0.6133
 8063TIP3    H148384   6.956   4.594  11.136 -0.3200 -1.0484  0.7438
 8063TIP3    H248385   6.945   4.563  10.989  0.5023  1.6583  0.0458
 8064TIP3   OH248386   0.618   6.621  11.749  0.4742  0.3140  0.3942
 8064TIP3    H148387   0.666   6.605  11.830  0.6022  0.4542  0.3444
 8064TIP3    H248388   0.669   6.687  11.702  1.4482 -1.1179 -0.6839
 8065TIP3   OH248389   4.999   6.229  11.096  0.4411  0.7025 -0.3089
 8065TIP3    H148390   4.940   6.156  11.114  1.2639 -0.2003 -1.1453
 8065TIP3    H248391   5.043   6.205  11.014  1.7131  1.4992  0.1111
 8066TIP3   OH248392   7.621   5.683  10.921  0.3020 -0.0027 -0.1206
 8066TIP3    H148393   7.681   5.737  10.972  0.1946 -1.0698  1.1951
 8066TIP3    H248394   7.676   5.640  10.856  0.4609  1.3097 -0.8641
 8067TIP3   OH248395   5.171   1.240  11.940 -0.3465 -0.4311  0.4796
 8067TIP3    H148396   5.075   1.241  11.946 -0.2997 -0.0100  1.3329
 8067TIP3    H248397   5.200   1.202  12.023  0.2655  0.9340  0.9181
 8068TIP3   OH248398   6.130   0.771  12.801  0.4658 -0.3465 -0.5447
 8068TIP3    H148399   6.055   0.712  12.789 -0.4546  0.8245 -0.8497
 8068TIP3    H248400   6.199   0.734  12.746  0.0378 -1.3331 -0.4337
 8069TIP3   OH248401   3.287   1.843  11.548  0.2404  0.3049 -0.0856
 8069TIP3    H148402   3.209   1.788  11.548  0.4092 -0.0145  1.8799
 8069TIP3    H248403   3.270   1.908  11.479 -1.1261 -0.5919 -0.6453
 8070TIP3   OH248404   3.609   2.401  12.401  0.3455  0.5023  0.4043
 8070TIP3    H148405   3.695   2.431  12.375 -0.7491  1.7274 -2.1404
 8070TIP3    H248406   3.588   2.452  12.480  1.8675  0.2354  1.0045
 8071TIP3   OH248407   3.593   2.328  10.912 -0.1179 -0.1171 -0.0594
 8071TIP3    H148408   3.573   2.302  10.822 -0.3819 -0.2480  0.0382
 8071TIP3    H248409   3.578   2.249  10.964 -0.2354  0.0356  0.1397
 8072TIP3   OH248410   0.433   0.428  12.200 -0.1895  0.1416 -0.2498
 8072TIP3    H148411   0.426   0.456  12.109 -0.7573  1.2751  0.1248
 8072TIP3    H248412   0.437   0.509  12.250 -2.6253 -0.3642  0.9363
 8073TIP3   OH248413   6.380   4.093  13.197 -0.0929 -0.5061 -0.6479
 8073TIP3    H148414   6.427   4.141  13.265 -1.3348 -0.4265  0.1806
 8073TIP3    H248415   6.350   4.160  13.136 -0.1940 -0.4315 -0.5153
 8074TIP3   OH248416   4.005   6.870  11.525  0.3985  0.3009 -0.1859
 8074TIP3    H148417   4.010   6.812  11.601  0.5189 -0.3487 -0.6819
 8074TIP3    H248418   4.094   6.869  11.489  0.1284 -0.0702 -0.8341
 8075TIP3   OH248419   6.179   0.715  11.835  0.3445  0.1214 -0.4447
 8075TIP3    H148420   6.100   0.673  11.801  0.2109  0.7820 -0.9822
 8075TIP3    H248421   6.171   0.708  11.930  0.8954 -2.0857 -0.5156
 8076TIP3   OH248422   5.709   2.980  11.214 -0.6103  0.1711 -0.1982
 8076TIP3    H148423   5.618   2.988  11.186 -0.2201 -0.0855 -1.6398
 8076TIP3    H248424   5.757   3.037  11.155  0.2511 -0.2450  0.0842
 8077TIP3   OH248425   7.297   6.866  11.458  0.7073 -0.1988 -0.6418
 8077TIP3    H148426   7.262   6.780  11.433 -1.5002  0.4236  0.1096
 8077TIP3    H248427   7.357   6.889  11.386 -1.7326 -0.6194 -2.9696
 8078TIP3   OH248428   0.919   4.567  10.652  0.9293 -0.7020 -0.3327
 8078TIP3    H148429   0.902   4.659  10.670 -2.2377 -0.6011 -2.8437
 8078TIP3    H248430   0.995   4.567  10.594  1.2265  0.2787  0.0437
 8079TIP3   OH248431   0.032   6.597  11.236 -0.2950  0.0681  0.0929
 8079TIP3    H148432  -0.063   6.602  11.225 -0.1174  0.4912 -1.6335
 8079TIP3    H248433   0.062   6.546  11.161  1.0411  2.2362 -0.9726
 8080TIP3   OH248434   1.017   5.781  11.706 -0.3530  0.0868  0.0341
 8080TIP3    H148435   0.955   5.781  11.778 -0.9023  2.8752 -0.3221
 8080TIP3    H248436   1.090   5.728  11.737 -2.0952 -1.8251  1.1459
 8081TIP3   OH248437   5.935   2.159  11.933  0.1276 -0.2451  0.2429
 8081TIP3    H148438   5.864   2.096  11.938  1.2980 -1.5399  1.6612
 8081TIP3    H248439   5.951   2.185  12.023 -1.3917  3.4749 -0.3709
 8082TIP3   OH248440   3.547   6.012  12.076  0.4410  0.0841  0.1986
 8082TIP3    H148441   3.504   5.931  12.102  0.1043  0.0724 -0.3925
 8082TIP3    H248442   3.572   6.053  12.159 -0.4405 -0.0506  0.5451
 8083TIP3   OH248443   7.271   5.814  11.472 -0.0313  0.0743 -0.3539
 8083TIP3    H148444   7.344   5.789  11.415 -0.4941 -2.6583  0.1411
 8083TIP3    H248445   7.308   5.882  11.528  1.6778 -0.1458 -1.1340
 8084TIP3   OH248446   0.298   7.305  12.601  0.1508 -0.4116 -0.2875
 8084TIP3    H148447   0.250   7.385  12.622  0.2285 -0.7391  1.3009
 8084TIP3    H248448   0.247   7.263  12.532 -0.0292  0.8654 -0.9503
 8085TIP3   OH248449   1.490   6.408  11.672 -0.4928  0.3009 -0.1113
 8085TIP3    H148450   1.492   6.504  11.676  1.6380  0.2828  1.0073
 8085TIP3    H248451   1.413   6.383  11.723 -0.7002  1.4162  0.1467
 8086TIP3   OH248452   2.801   7.272  13.519  0.5044  0.0450 -0.0878
 8086TIP3    H148453   2.772   7.303  13.605 -2.5703  0.9521 -1.3096
 8086TIP3    H248454   2.841   7.349  13.479  0.3500  0.1139 -0.1100
 8087TIP3   OH248455   3.550   2.725  12.937 -0.1771 -0.0038 -0.0234
 8087TIP3    H148456   3.505   2.654  12.982 -0.2053 -0.4000 -0.6552
 8087TIP3    H248457   3.486   2.796  12.933 -0.8990 -0.6933 -1.2432
 8088TIP3   OH248458   5.452   1.718  11.888  0.5894 -0.0557  0.0832
 8088TIP3    H148459   5.528   1.726  11.830 -0.9818  0.2437 -2.0823
 8088TIP3    H248460   5.384   1.771  11.846 -0.4106  0.9589  2.7521
 8089TIP3   OH248461   5.046   5.820  11.023  0.0172 -0.6247  0.0204
 8089TIP3    H148462   5.023   5.744  10.969  0.1554 -0.7599  0.1502
 8089TIP3    H248463   5.021   5.896  10.969  1.4686 -0.7222 -0.8530
 8090TIP3   OH248464   3.890   0.833  12.592  0.0736 -0.4448  0.1165
 8090TIP3    H148465   3.903   0.838  12.687  0.5033 -1.4964  0.1322
 8090TIP3    H248466   3.935   0.910  12.558 -1.8226  1.0738  0.8922
 8091TIP3   OH248467   2.902   6.994  11.609 -0.4117 -0.1738 -0.2094
 8091TIP3    H148468   2.995   7.010  11.598 -0.7195  2.0205 -0.0789
 8091TIP3    H248469   2.865   7.079  11.633 -2.4972 -0.9075 -0.5548
 8092TIP3   OH248470   3.790   2.197  12.900  0.3693  0.6140  0.1097
 8092TIP3    H148471   3.764   2.267  12.960 -0.4624  0.4264 -0.0187
 8092TIP3    H248472   3.812   2.242  12.818 -0.2557  0.7227 -0.0024
 8093TIP3   OH248473   6.040   2.037  13.144 -0.3815  0.1011 -0.2645
 8093TIP3    H148474   6.086   1.979  13.205  0.5651 -0.0339 -1.0895
 8093TIP3    H248475   6.064   2.125  13.172 -1.0575  0.0885  0.3971
 8094TIP3   OH248476   0.061   2.661  11.369 -0.3789 -0.2810  0.2205
 8094TIP3    H148477   0.065   2.703  11.455 -0.4346 -0.4004  0.2819
 8094TIP3    H248478   0.152   2.653  11.343 -0.2929 -1.3063  0.7932
 8095TIP3   OH248479   1.886   2.181  13.015 -0.3380  0.0323  0.7348
 8095TIP3    H148480   1.850   2.261  13.054  0.2441 -0.1814  1.7569
 8095TIP3    H248481   1.829   2.111  13.046 -1.3597  0.1172 -0.8530
 8096TIP3   OH248482   6.660   2.127  10.913 -0.1813 -0.0716 -0.4343
 8096TIP3    H148483   6.714   2.051  10.931 -2.2315 -1.3910  0.5622
 8096TIP3    H248484   6.623   2.110  10.826 -0.3749 -0.0679 -0.3546
 8097TIP3   OH248485   5.078   7.124  10.399  0.3058 -0.5441 -0.7828
 8097TIP3    H148486   5.162   7.081  10.411  2.2189  2.6525 -1.6641
 8097TIP3    H248487   5.064   7.173  10.480 -0.8282 -1.1517 -0.5850
 8098TIP3   OH248488   1.960   6.908  10.965  0.4265 -0.1353  0.1857
 8098TIP3    H148489   2.054   6.922  10.976  0.2948  0.4477  0.6368
 8098TIP3    H248490   1.931   6.980  10.909  0.5164 -1.2318 -1.3269
 8099TIP3   OH248491   2.424   2.066  10.957  1.1331 -0.1371  0.1672
 8099TIP3    H148492   2.349   2.112  10.921  2.3986 -0.3142 -3.0612
 8099TIP3    H248493   2.395   2.034  11.042 -1.8760  1.1242 -0.2758
 8100TIP3   OH248494   6.991   2.326  12.806  0.0396  0.5097 -0.2703
 8100TIP3    H148495   7.020   2.241  12.838 -0.2344  0.0797 -1.1169
 8100TIP3    H248496   6.909   2.343  12.852  0.5099  0.7128  0.5121
 8101TIP3   OH248497   4.630   6.997  11.746 -0.4989 -0.3707  0.0584
 8101TIP3    H148498   4.607   6.904  11.749  0.1626 -0.5290  0.4180
 8101TIP3    H248499   4.564   7.036  11.689 -2.3201 -0.6155  1.9015
 8102TIP3   OH248500   1.858   4.635  12.713 -0.0669 -0.4730  0.2694
 8102TIP3    H148501   1.905   4.708  12.754  0.9051 -0.6358 -0.5299
 8102TIP3    H248502   1.810   4.595  12.786  0.7710 -0.0995  1.0592
 8103TIP3   OH248503   1.005   1.445  12.101 -0.4348 -0.1588 -0.4867
 8103TIP3    H148504   1.096   1.462  12.080 -0.2255 -1.2466 -0.5104
 8103TIP3    H248505   1.000   1.452  12.196  0.1592 -2.1523 -0.2575
 8104TIP3   OH248506   4.698   1.926  11.434 -0.6367 -0.0862 -0.0519
 8104TIP3    H148507   4.666   1.926  11.524  0.5668  1.9543  0.4306
 8104TIP3    H248508   4.767   1.992  11.433 -0.5924 -0.0854 -2.4770
 8105TIP3   OH248509   5.724   0.718  11.777  1.3276  0.2771  0.0661
 8105TIP3    H148510   5.668   0.752  11.847 -1.0625 -0.2485 -1.4701
 8105TIP3    H248511   5.757   0.796  11.733  1.6327  0.5965  0.8439
 8106TIP3   OH248512   0.793   3.894  10.561  0.3192  0.2901  0.2617
 8106TIP3    H148513   0.789   3.802  10.535  0.8809  0.0500  0.9592
 8106TIP3    H248514   0.880   3.903  10.601  0.5447  1.2957 -0.4207
 8107TIP3   OH248515   2.762   7.180  13.246 -0.4818  0.3041 -0.3936
 8107TIP3    H148516   2.791   7.225  13.325  0.3730  0.2243 -0.6608
 8107TIP3    H248517   2.769   7.087  13.268 -2.7753  0.2384  0.3605
 8108TIP3   OH248518   5.083   3.688  10.518  0.2848  0.6965  0.1767
 8108TIP3    H148519   5.031   3.645  10.450 -0.8622  0.2386  1.3158
 8108TIP3    H248520   5.025   3.755  10.555  0.6937  0.5710  1.0778
 8109TIP3   OH248521   2.791   1.611  12.783 -0.7335 -0.3456 -0.6178
 8109TIP3    H148522   2.732   1.661  12.728 -0.7068 -0.4481 -0.7388
 8109TIP3    H248523   2.847   1.677  12.825 -0.2078 -0.3224 -1.3456
 8110TIP3   OH248524   2.456   6.908  12.147 -0.0175  0.2597  0.1700
 8110TIP3    H148525   2.550   6.903  12.163 -0.2147 -0.0832  1.2821
 8110TIP3    H248526   2.427   6.817  12.138 -0.0652  0.3938 -1.4168
 8111TIP3   OH248527   0.562   3.947  11.286 -0.4788  0.0486  0.3879
 8111TIP3    H148528   0.528   4.035  11.300  1.0493  0.4219  2.2544
 8111TIP3    H248529   0.573   3.939  11.192 -3.0052  0.8843 -0.0585
 8112TIP3   OH248530   7.077   5.381  12.126  0.2679 -0.2326  0.3396
 8112TIP3    H148531   7.000   5.401  12.180  0.9787  2.6151  0.4303
 8112TIP3    H248532   7.146   5.362  12.189  0.3798  0.2558  0.3705
 8113TIP3   OH248533   4.455   0.607  10.801  0.1819  0.1244  0.1479
 8113TIP3    H148534   4.399   0.656  10.862 -1.5310 -1.0879 -0.3606
 8113TIP3    H248535   4.521   0.566  10.856 -1.0780 -0.6050  1.1855
 8114TIP3   OH248536   2.872   4.479  12.007 -0.1200  0.2887 -0.0999
 8114TIP3    H148537   2.821   4.474  12.088 -0.9941  0.1055 -0.6485
 8114TIP3    H248538   2.833   4.551  11.959 -0.3892 -0.3595 -0.8774
 8115TIP3   OH248539   2.794   3.743  11.738 -0.0126 -0.2877 -0.0558
 8115TIP3    H148540   2.872   3.728  11.685 -0.5252 -2.5441 -0.2789
 8115TIP3    H248541   2.733   3.674  11.711 -1.3162  0.1614  1.5557
 8116TIP3   OH248542   6.348   5.568  11.834 -0.1160  0.2824  0.1378
 8116TIP3    H148543   6.277   5.594  11.893 -0.4902 -0.7293  0.1582
 8116TIP3    H248544   6.317   5.486  11.795  1.4465 -0.6749  0.8464
 8117TIP3   OH248545   1.665   3.399  12.131 -0.1505 -0.0021 -0.1395
 8117TIP3    H148546   1.657   3.339  12.056  0.3587  1.2825 -1.2633
 8117TIP3    H248547   1.603   3.469  12.112 -0.8525 -0.2205  1.2467
 8118TIP3   OH248548   5.408   1.882  12.120  0.1338  0.1361 -0.0163
 8118TIP3    H148549   5.465   1.880  12.043 -1.5650 -0.8949 -1.3166
 8118TIP3    H248550   5.320   1.866  12.086 -0.7611  0.1856  2.0871
 8119TIP3   OH248551   3.524   5.198  11.213 -0.4695  0.1634 -0.0475
 8119TIP3    H148552   3.545   5.202  11.120  1.7955 -0.1359  0.3899
 8119TIP3    H248553   3.530   5.105  11.235 -0.1801  0.3196  0.5590
 8120TIP3   OH248554   6.066   6.295  12.237  0.0388  0.4318 -0.0015
 8120TIP3    H148555   6.025   6.327  12.157  2.9621  3.5410 -0.4661
 8120TIP3    H248556   6.010   6.331  12.307 -0.3332  1.0861 -0.6170
 8121TIP3   OH248557   2.212   7.549  13.161 -0.3783 -0.0682 -0.4579
 8121TIP3    H148558   2.289   7.606  13.165 -0.3741 -0.1374  2.3200
 8121TIP3    H248559   2.226   7.496  13.083  2.3424  0.0045 -0.1290
 8122TIP3   OH248560   4.789   2.693  18.105  0.1440 -0.1248 -0.1415
 8122TIP3    H148561   4.827   2.712  18.191  0.6266 -0.5783 -0.2519
 8122TIP3    H248562   4.830   2.611  18.078  0.1725  0.1368 -0.9134
 8123TIP3   OH248563   5.542   0.559  11.584 -0.3037 -0.0438 -0.2456
 8123TIP3    H148564   5.465   0.587  11.633  0.3601  0.3592  0.5684
 8123TIP3    H248565   5.613   0.614  11.615  0.7826 -1.8110  0.5407
 8124TIP3   OH248566   3.527   7.424  12.486 -0.1293  0.1159 -0.2815
 8124TIP3    H148567   3.455   7.488  12.484  1.5205  2.1711  1.4587
 8124TIP3    H248568   3.581   7.447  12.410 -1.2800 -1.5052 -1.6600
 8125TIP3   OH248569   7.261   5.910  13.082 -0.2248  0.2082  0.1723
 8125TIP3    H148570   7.295   5.991  13.045 -2.1759  0.3994 -1.3684
 8125TIP3    H248571   7.329   5.881  13.142  1.2723  2.0866 -0.5048
 8126TIP3   OH248572   6.341   5.026  13.148  0.2982 -0.2214 -0.2658
 8126TIP3    H148573   6.430   5.018  13.113  0.6242  0.0227  0.4718
 8126TIP3    H248574   6.324   5.120  13.148 -0.9480 -0.3749 -2.7199
 8127TIP3   OH248575   0.726   3.341  12.421 -0.3478  0.2752 -0.0898
 8127TIP3    H148576   0.769   3.426  12.423 -0.7151  0.4918 -1.0385
 8127TIP3    H248577   0.663   3.347  12.350 -3.3957  0.6395  2.3950
 8128TIP3   OH248578   1.667   5.715  10.674 -0.6136 -0.2592  0.5699
 8128TIP3    H148579   1.572   5.712  10.679 -0.9345  0.7004 -2.8227
 8128TIP3    H248580   1.695   5.624  10.676 -1.8217 -0.6799 -0.6476
 8129TIP3   OH248581   1.759   6.879  11.690  0.3327 -0.2630  0.0183
 8129TIP3    H148582   1.838   6.907  11.643  0.6354  0.4685  0.9365
 8129TIP3    H248583   1.738   6.794  11.651  1.9280 -0.7602  0.1593
 8130TIP3   OH248584   3.253   3.035  12.631  0.5455 -0.4326 -0.2328
 8130TIP3    H148585   3.344   3.006  12.644  0.6647  0.6468  1.6879
 8130TIP3    H248586   3.214   3.031  12.718 -0.0680  2.9082 -0.2117
 8131TIP3   OH248587   5.614   0.208  12.374  0.4385  0.6407  0.0555
 8131TIP3    H148588   5.645   0.136  12.319  0.0790 -1.4565  2.3907
 8131TIP3    H248589   5.557   0.260  12.317  0.6163 -1.0031 -1.7076
 8132TIP3   OH248590   6.050   5.270  11.070 -0.3477 -0.0494  0.5538
 8132TIP3    H148591   5.972   5.270  11.013  0.3060  0.6405 -0.3630
 8132TIP3    H248592   6.055   5.180  11.102  0.0861 -0.8997 -1.6719
 8133TIP3   OH248593   5.506   4.289  12.465  0.0380  0.5580 -0.3629
 8133TIP3    H148594   5.524   4.322  12.553 -1.5755 -0.4622  0.3871
 8133TIP3    H248595   5.483   4.197  12.478 -1.0988  0.6181 -1.7358
 8134TIP3   OH248596   1.161   6.392  16.973  0.1071  0.4094  0.1744
 8134TIP3    H148597   1.240   6.443  16.993  0.6179 -0.6834  1.0439
 8134TIP3    H248598   1.184   6.302  16.997 -0.9792 -0.1450 -0.7581
 8135TIP3   OH248599   5.368   1.347  10.848 -0.0763  0.6494 -0.1872
 8135TIP3    H148600   5.433   1.277  10.840  1.7503  1.9790  1.6382
 8135TIP3    H248601   5.307   1.316  10.915 -0.0913  0.2351 -0.3936
 8136TIP3   OH248602   1.012   4.534  12.187 -0.1364 -0.1647  0.2216
 8136TIP3    H148603   1.006   4.627  12.207  1.3457 -0.1829  0.7876
 8136TIP3    H248604   1.043   4.493  12.267 -1.0061 -1.1949  0.0541
 8137TIP3   OH248605   0.999   1.752  13.156  0.0128 -0.1111  0.2528
 8137TIP3    H148606   0.908   1.774  13.136 -0.0688 -1.4594 -1.0418
 8137TIP3    H248607   0.996   1.716  13.245 -0.4222  1.3878  0.8721
 8138TIP3   OH248608   6.450   1.459  11.062  0.3436  0.1168  0.1012
 8138TIP3    H148609   6.499   1.475  10.981  0.0494 -0.7483 -0.2699
 8138TIP3    H248610   6.418   1.545  11.089  2.2041  0.7206  0.4597
 8139TIP3   OH248611   6.238   4.332  10.237 -0.1008  0.2205  0.3011
 8139TIP3    H148612   6.160   4.364  10.191 -2.6455  0.1975  4.1131
 8139TIP3    H248613   6.243   4.239  10.215 -0.4958  0.4504 -0.8074
 8140TIP3   OH248614   5.136   0.902  11.219  0.1312  0.4018  0.0117
 8140TIP3    H148615   5.110   0.925  11.308 -0.6666 -0.1824 -0.0600
 8140TIP3    H248616   5.103   0.813  11.206  0.1455  0.5161 -0.8978
 8141TIP3   OH248617   7.208   7.504  12.831  0.1944 -0.5289  0.1640
 8141TIP3    H148618   7.224   7.551  12.749  1.5350  0.1118  0.7579
 8141TIP3    H248619   7.264   7.549  12.895  0.4843 -2.0904  1.0473
 8142TIP3   OH248620   6.492   0.275  12.230  0.5529  0.1309  0.7121
 8142TIP3    H148621   6.458   0.193  12.194  1.1368  0.4510 -0.6061
 8142TIP3    H248622   6.572   0.249  12.277  0.2267 -0.1724  1.1127
 8143TIP3   OH248623   6.561   3.205  11.456 -0.1314  0.3902 -0.3248
 8143TIP3    H148624   6.590   3.201  11.547 -0.1028 -1.3742 -0.3750
 8143TIP3    H248625   6.634   3.246  11.409  1.3891 -1.8977 -0.0886
 8144TIP3   OH248626   4.309   6.117  12.727  0.5897 -0.2278 -0.7658
 8144TIP3    H148627   4.317   6.088  12.636 -0.7385 -0.7216 -0.7431
 8144TIP3    H248628   4.399   6.139  12.753  1.1945 -1.3860 -1.7579
 8145TIP3   OH248629   6.936   2.056  11.238 -0.0988  0.1172 -0.6155
 8145TIP3    H148630   6.857   2.026  11.282  0.9014  0.0024  1.1666
 8145TIP3    H248631   6.931   2.151  11.241  1.3974  0.2000  2.6044
 8146TIP3   OH248632   7.021   7.088  12.237 -0.2996  0.5713 -0.1496
 8146TIP3    H148633   7.054   7.081  12.148  1.7679  1.0919  0.5290
 8146TIP3    H248634   6.963   7.164  12.235  1.1522  1.7063 -0.6788
 8147TIP3   OH248635   5.985   0.737  10.489  0.4405  0.1620  0.0985
 8147TIP3    H148636   6.036   0.759  10.567 -0.9060 -1.0493  1.3981
 8147TIP3    H248637   5.952   0.821  10.458 -0.1306  0.5830  1.7031
 8148TIP3   OH248638   1.303   5.207  11.597  0.2294  0.1227  0.0231
 8148TIP3    H148639   1.342   5.250  11.674  2.0882  1.5498 -1.6002
 8148TIP3    H248640   1.217   5.248  11.589 -0.0624 -0.1631  1.4057
 8149TIP3   OH248641   5.240   0.875  12.169 -0.4310 -1.2439 -0.3105
 8149TIP3    H148642   5.160   0.911  12.130 -0.7199 -0.1107  1.2094
 8149TIP3    H248643   5.236   0.781  12.151 -0.9220 -0.8929 -2.2537
 8150TIP3   OH248644   3.755   1.495  12.533  0.3030  0.0459  0.1342
 8150TIP3    H148645   3.659   1.490  12.537  0.2682 -0.8048 -1.2129
 8150TIP3    H248646   3.784   1.406  12.516  1.2742  0.4656 -0.5068
 8151TIP3   OH248647   4.318   3.243  13.488 -0.1917 -0.3672  0.1032
 8151TIP3    H148648   4.320   3.325  13.439 -1.7575 -1.1053 -1.2794
 8151TIP3    H248649   4.411   3.222  13.503  0.3782 -0.1571 -2.6649
 8152TIP3   OH248650   2.782   2.868  11.703  0.4645 -0.1298  0.0933
 8152TIP3    H148651   2.695   2.858  11.743  0.5116 -0.7224  0.0640
 8152TIP3    H248652   2.791   2.790  11.648  0.7435  0.2699 -0.4245
 8153TIP3   OH248653   4.247   7.078  12.344 -0.3586 -0.0071 -0.9079
 8153TIP3    H148654   4.158   7.043  12.335 -1.1978  1.8438 -0.4115
 8153TIP3    H248655   4.251   7.109  12.435  0.3120  1.1094 -1.3012
 8154TIP3   OH248656   5.984   0.472  10.983  0.3762 -0.3919 -0.6785
 8154TIP3    H148657   6.058   0.499  11.037  0.5161 -2.2360  0.1350
 8154TIP3    H248658   5.934   0.552  10.969  0.7568  0.3089  1.5663
 8155TIP3   OH248659   1.751   1.623  13.012 -0.2612  0.4181  0.1715
 8155TIP3    H148660   1.706   1.596  12.932 -1.5510 -2.1368  1.6149
 8155TIP3    H248661   1.691   1.685  13.053 -1.3402 -1.0104  0.8346
 8156TIP3   OH248662   1.473   5.408  11.786 -0.0752 -0.4545 -0.3709
 8156TIP3    H148663   1.537   5.341  11.763  0.3609  0.0256 -0.5877
 8156TIP3    H248664   1.525   5.488  11.795 -0.7120  0.0530 -1.0685
 8157TIP3   OH248665   3.310   3.809  12.452  0.7109 -0.3669  0.0351
 8157TIP3    H148666   3.234   3.866  12.438  0.2464 -0.9532  0.1093
 8157TIP3    H248667   3.353   3.846  12.530  1.4766  0.9676 -0.9820
 8158TIP3   OH248668   2.310   2.450  11.917  0.0517  0.6863 -0.2654
 8158TIP3    H148669   2.278   2.381  11.858 -1.3912  0.2832  0.9186
 8158TIP3    H248670   2.267   2.530  11.884 -0.3581  0.5499 -0.0703
 8159TIP3   OH248671   5.267   3.927  12.403 -0.1640 -0.2780 -0.0932
 8159TIP3    H148672   5.247   4.014  12.367  1.0990 -0.6450 -1.7801
 8159TIP3    H248673   5.353   3.937  12.444  0.4420 -0.9527 -1.1706
 8160TIP3   OH248674   5.868   0.645  11.208 -0.1064 -0.4121  0.0291
 8160TIP3    H148675   5.805   0.587  11.251  0.3996  0.3034  1.8202
 8160TIP3    H248676   5.824   0.674  11.129 -1.2588 -1.4346  0.2706
 8161TIP3   OH248677   2.244   2.899  12.111 -0.2550 -0.1208  0.1581
 8161TIP3    H148678   2.191   2.888  12.190 -0.6317  2.2326  0.3151
 8161TIP3    H248679   2.231   2.991  12.086  0.8963 -0.4543 -1.8996
 8162TIP3   OH248680   4.607   2.372  12.462  0.7364  0.2480 -0.0041
 8162TIP3    H148681   4.573   2.304  12.404  2.2205 -0.1525 -0.4562
 8162TIP3    H248682   4.531   2.400  12.514 -0.2666 -0.5155 -1.0168
 8163TIP3   OH248683   1.882   2.294  12.755  0.1339  0.1957 -0.5741
 8163TIP3    H148684   1.880   2.236  12.831 -0.1240 -0.7776 -1.3018
 8163TIP3    H248685   1.971   2.330  12.754  0.0116  0.5554  0.4200
 8164TIP3   OH248686   6.543   5.108  12.196  0.0043 -0.6410 -0.2136
 8164TIP3    H148687   6.531   5.017  12.167 -2.1447 -0.8406  1.0232
 8164TIP3    H248688   6.544   5.102  12.292 -0.2931  0.6337 -0.1180
 8165TIP3   OH248689   2.756   1.909  11.338 -0.7238  0.2725  0.1227
 8165TIP3    H148690   2.691   1.855  11.294  0.2716 -0.2161 -0.7638
 8165TIP3    H248691   2.790   1.853  11.408  0.8967 -0.5971 -1.3032
 8166TIP3   OH248692   7.513   7.316  11.761 -0.0080 -0.1939 -0.4102
 8166TIP3    H148693   7.451   7.261  11.713  0.9161 -0.7377 -0.9940
 8166TIP3    H248694   7.457   7.377  11.810 -1.0076 -0.7831 -0.7844
 8167TIP3   OH248695   0.423   0.161  11.711  0.4329 -0.3832  0.2505
 8167TIP3    H148696   0.499   0.185  11.763  0.4999 -0.5608  0.2345
 8167TIP3    H248697   0.447   0.184  11.621  0.3104 -0.0595  0.2968
 8168TIP3   OH248698   7.502   2.886  11.410 -0.3139 -0.5879 -0.0721
 8168TIP3    H148699   7.465   2.850  11.330  1.6401  0.8283 -1.7242
 8168TIP3    H248700   7.427   2.905  11.466 -1.6167 -3.3481 -0.7461
 8169TIP3   OH248701   2.997   1.682  12.128  0.0498 -0.2859  0.0401
 8169TIP3    H148702   3.056   1.642  12.064  0.2042 -0.9965  0.6123
 8169TIP3    H248703   3.027   1.773  12.134  1.9023 -0.8992  1.1957
 8170TIP3   OH248704   2.869   1.379  12.296 -0.3159  0.5375  0.3436
 8170TIP3    H148705   2.920   1.367  12.376 -0.5760 -1.5165  0.2490
 8170TIP3    H248706   2.936   1.395  12.228  0.0935 -0.3649  0.5237
 8171TIP3   OH248707   1.292   4.820  12.046  0.4948  0.2597 -0.4160
 8171TIP3    H148708   1.215   4.776  12.011  1.2167 -0.2455 -1.4154
 8171TIP3    H248709   1.256   4.890  12.102 -0.6673 -0.4262 -0.2735
 8172TIP3   OH248710   6.529   6.209  11.796 -0.8820 -0.1582 -0.1584
 8172TIP3    H148711   6.616   6.173  11.779 -1.1766 -0.8941 -0.1408
 8172TIP3    H248712   6.499   6.162  11.874 -0.6903  1.1587  0.7367
 8173TIP3   OH248713   7.371   3.158  10.715 -0.3108  0.0698 -0.0458
 8173TIP3    H148714   7.281   3.170  10.686 -0.5519 -0.5951  0.4141
 8173TIP3    H248715   7.376   3.066  10.743  0.5440  0.0562 -0.2023
 8174TIP3   OH248716   3.747   0.085  13.011  0.2245  0.2104  0.0786
 8174TIP3    H148717   3.790   0.052  12.932  0.0244 -1.1381  0.5097
 8174TIP3    H248718   3.692   0.013  13.040 -0.3243  0.9794  1.0117
 8175TIP3   OH248719   0.786   1.425  10.809  0.0402 -0.2210  0.5901
 8175TIP3    H148720   0.701   1.407  10.848  1.3432 -1.8347  2.9613
 8175TIP3    H248721   0.849   1.398  10.875  2.4458 -0.4334 -1.6005
 8176TIP3   OH248722   6.161   1.433  11.908 -0.4785 -0.7112  0.0208
 8176TIP3    H148723   6.093   1.481  11.861  1.1087  1.4845 -0.1954
 8176TIP3    H248724   6.183   1.360  11.850 -2.5659 -1.4464  0.0831
 8177TIP3   OH248725   3.918   6.901  13.228 -0.1540  0.3450  0.0102
 8177TIP3    H148726   3.917   6.979  13.173 -0.7129  0.6764  0.4811
 8177TIP3    H248727   3.855   6.920  13.298 -0.6113 -0.6959 -0.1070
 8178TIP3   OH248728   5.086   6.246  12.573  0.0919 -0.1468 -0.1868
 8178TIP3    H148729   5.072   6.256  12.668 -1.3560 -0.7507 -0.3127
 8178TIP3    H248730   5.166   6.195  12.566  0.7424  0.7183  0.6882
 8179TIP3   OH248731   5.099   0.137  12.656 -0.0751 -0.6127 -0.1145
 8179TIP3    H148732   5.148   0.194  12.716 -1.1028  0.5932 -0.3766
 8179TIP3    H248733   5.024   0.190  12.630  0.2653 -1.1430 -2.3803
 8180TIP3   OH248734   3.856   4.251  12.710 -1.2396  0.3583  0.4421
 8180TIP3    H148735   3.806   4.185  12.756 -0.2883 -0.5371  0.2287
 8180TIP3    H248736   3.888   4.207  12.631 -0.2359  0.9426  0.5041
 8181TIP3   OH248737   2.125   3.855  12.988 -0.2125 -0.3612  0.0808
 8181TIP3    H148738   2.141   3.809  13.071  1.8666  3.0083  1.7933
 8181TIP3    H248739   2.188   3.818  12.927  0.6067 -0.5937  1.0420
 8182TIP3   OH248740   6.380   4.540  12.672  0.0771  0.4155 -0.7456
 8182TIP3    H148741   6.359   4.510  12.584 -2.9009  2.6864 -0.9894
 8182TIP3    H248742   6.389   4.460  12.723  0.0694 -0.9264 -2.7248
 8183TIP3   OH248743   2.766   6.822  13.583  0.2641  0.1312 -0.5709
 8183TIP3    H148744   2.672   6.824  13.597  0.0372  2.0712 -2.1020
 8183TIP3    H248745   2.779   6.765  13.508  0.4179 -0.7608  0.1113
 8184TIP3   OH248746   2.081   3.458  13.138  0.6118 -0.0583  0.0865
 8184TIP3    H148747   2.042   3.448  13.051 -0.1369  0.1706  0.3823
 8184TIP3    H248748   2.096   3.368  13.168  0.8172 -0.1393 -0.2500
 8185TIP3   OH248749   3.412   5.770  11.172 -0.2052  0.2961 -0.1892
 8185TIP3    H148750   3.452   5.856  11.176 -1.0354  0.6606  0.4266
 8185TIP3    H248751   3.474   5.712  11.217 -0.1621  0.7744  0.3725
 8186TIP3   OH248752   0.843   7.001  11.078  0.4662 -0.3134 -0.8282
 8186TIP3    H148753   0.800   7.021  11.162  1.9894  0.4245 -0.1977
 8186TIP3    H248754   0.855   7.086  11.036  1.6046 -0.4712 -0.8427
 8187TIP3   OH248755   4.705   4.529  11.924 -0.0933 -0.4608  0.0722
 8187TIP3    H148756   4.670   4.507  11.838 -0.2110 -1.2143  0.3139
 8187TIP3    H248757   4.629   4.556  11.975 -0.2841 -1.7258  0.4786
 8188TIP3   OH248758   7.259   4.781  11.722  0.1022  0.3934  0.2121
 8188TIP3    H148759   7.183   4.836  11.738 -0.1477 -0.0879  0.7380
 8188TIP3    H248760   7.289   4.805  11.634 -1.4573 -0.3404 -0.5511
 8189TIP3   OH248761   1.012   1.220  11.606  0.5625  0.0697 -0.1608
 8189TIP3    H148762   1.004   1.131  11.571 -1.3696  0.2587 -0.2782
 8189TIP3    H248763   0.980   1.213  11.696  0.5501  0.6343 -0.1186
 8190TIP3   OH248764   6.353   3.301  11.606 -0.5442 -0.6169 -0.0723
 8190TIP3    H148765   6.295   3.237  11.646  0.8852 -3.2025 -1.8058
 8190TIP3    H248766   6.418   3.249  11.559  1.5309  2.1230 -0.5497
 8191TIP3   OH248767   3.505   4.923  12.113  0.6962  0.2372  0.0252
 8191TIP3    H148768   3.433   4.983  12.134  2.2554  2.1937  0.0100
 8191TIP3    H248769   3.513   4.868  12.191  0.8053  1.6897  1.0770
 8192TIP3   OH248770   6.244   3.055  12.232 -0.2783  0.1413  0.0976
 8192TIP3    H148771   6.306   3.113  12.274  0.2110  0.3816 -0.9268
 8192TIP3    H248772   6.162   3.105  12.228 -0.4787 -0.0784  1.2083
 8193TIP3   OH248773   3.181   2.857  12.464 -0.6378 -0.4834  1.0440
 8193TIP3    H148774   3.167   2.898  12.379  2.6111 -1.7265 -0.2588
 8193TIP3    H248775   3.203   2.929  12.523 -0.8623  0.1904  0.3140
 8194TIP3   OH248776   2.201   2.424  10.810 -0.0067 -0.5923 -0.3947
 8194TIP3    H148777   2.197   2.378  10.894 -1.0130 -0.6127 -0.4375
 8194TIP3    H248778   2.152   2.367  10.750 -1.3773  0.5528 -0.4265
 8195TIP3   OH248779   0.487   2.023  11.711  0.3508  0.1034 -0.0897
 8195TIP3    H148780   0.486   2.010  11.616  0.3721 -1.3162  0.0758
 8195TIP3    H248781   0.394   2.025  11.736  0.2391  3.2740 -0.4272
 8196TIP3   OH248782   3.438   3.948  11.357  0.7258 -0.0373 -0.0404
 8196TIP3    H148783   3.507   3.932  11.293 -0.6538  1.4545 -2.0367
 8196TIP3    H248784   3.469   4.021  11.410  1.3277 -0.4367  0.1680
 8197TIP3   OH248785   5.078   2.470  11.678 -0.1254  0.7163 -0.4408
 8197TIP3    H148786   4.987   2.444  11.664 -0.5473  2.3294 -0.9158
 8197TIP3    H248787   5.102   2.517  11.599  0.8562  1.0092  0.0147
 8198TIP3   OH248788   6.135   0.735  12.114 -0.4015 -0.1262 -0.1972
 8198TIP3    H148789   6.061   0.675  12.121 -0.5888  0.2294  1.2996
 8198TIP3    H248790   6.115   0.805  12.177  0.9894  0.2084 -0.0915
 8199TIP3   OH248791   2.372   1.504  11.269  0.1171 -0.1772  0.5896
 8199TIP3    H148792   2.296   1.549  11.304 -0.1560  0.7726 -1.0890
 8199TIP3    H248793   2.348   1.411  11.270 -1.1901  0.1300 -0.1463
 8200TIP3   OH248794   7.676   4.352  12.661 -0.1807 -0.2566  0.3559
 8200TIP3    H148795   7.636   4.399  12.734  0.7509 -2.3592  2.3468
 8200TIP3    H248796   7.725   4.281  12.702  1.8034 -0.5458 -2.2488
 8201TIP3   OH248797   3.454   0.535  10.658 -0.2378  0.0416  0.2671
 8201TIP3    H148798   3.474   0.443  10.639 -0.5877 -0.1691  0.8954
 8201TIP3    H248799   3.361   0.536  10.680 -0.0853  0.4309  0.9331
 8202TIP3   OH248800   6.011   6.330  11.935  0.3218  0.5325 -0.1544
 8202TIP3    H148801   6.039   6.353  11.846  1.1058 -2.2986 -0.7277
 8202TIP3    H248802   5.916   6.324  11.930  0.3185  0.9311 -0.6541
 8203TIP3   OH248803   1.873   4.819  11.079  0.1183  0.1306  0.2590
 8203TIP3    H148804   1.934   4.826  11.152  0.2155 -0.9783  0.3014
 8203TIP3    H248805   1.796   4.775  11.116  0.2463 -0.6125 -0.3389
 8204TIP3   OH248806   7.223   6.961  10.891  0.0003 -0.1397  0.2025
 8204TIP3    H148807   7.152   6.949  10.828  0.4724  0.6286 -0.5061
 8204TIP3    H248808   7.256   6.873  10.907 -0.8578 -0.4630  0.2387
 8205TIP3   OH248809   4.223   1.509  12.512 -0.2023  0.2722 -0.0584
 8205TIP3    H148810   4.183   1.422  12.520  1.3407 -0.9346 -3.3117
 8205TIP3    H248811   4.159   1.561  12.464  0.7573 -0.7173 -2.5569
 8206TIP3   OH248812   2.964   2.685  12.522 -0.5456 -0.0760 -0.4175
 8206TIP3    H148813   3.055   2.713  12.507 -0.4795  0.6709  1.1558
 8206TIP3    H248814   2.920   2.701  12.439  0.0938  2.4326 -0.3473
 8207TIP3   OH248815   5.910   1.287  10.760  0.5538 -0.8584  0.0728
 8207TIP3    H148816   5.931   1.209  10.709 -1.6142 -1.9469  0.7127
 8207TIP3    H248817   5.865   1.254  10.837  0.0387  1.0020  0.6282
 8208TIP3   OH248818   7.611   2.454  12.340  0.1083 -0.2301  0.0966
 8208TIP3    H148819   7.554   2.386  12.375 -1.4457  0.9392 -0.0369
 8208TIP3    H248820   7.578   2.471  12.252 -0.7641  1.9384  0.7735
 8209TIP3   OH248821   1.886   5.985  11.798  0.2745 -0.4214  0.0972
 8209TIP3    H148822   1.926   6.035  11.726  0.3277 -2.5375 -1.4592
 8209TIP3    H248823   1.806   5.948  11.760  0.2406 -1.4880  1.1525
 8210TIP3   OH248824   2.970   2.037  11.187  0.6427  0.9768 -0.2295
 8210TIP3    H148825   2.884   2.004  11.213  0.7632 -1.6140 -2.5502
 8210TIP3    H248826   2.986   2.112  11.243 -2.5454  0.7439  1.1755
 8211TIP3   OH248827   1.161   5.136  10.786  0.6042 -0.0857  0.4456
 8211TIP3    H148828   1.224   5.126  10.714  2.1557  0.3206  1.6807
 8211TIP3    H248829   1.136   5.046  10.808 -0.1974 -0.2053 -0.8051
 8212TIP3   OH248830   4.072   5.504  12.262  0.0067  0.2048  0.6997
 8212TIP3    H148831   4.058   5.410  12.259  0.5899  0.1380 -1.3308
 8212TIP3    H248832   4.001   5.542  12.209  1.6238  0.5835 -1.3420
 8213TIP3   OH248833   4.185   3.745  11.132  0.0834  0.0390  0.9360
 8213TIP3    H148834   4.281   3.751  11.130  0.1006 -0.0846 -1.0454
 8213TIP3    H248835   4.157   3.826  11.173  1.0355  0.0209  1.6603
 8214TIP3   OH248836   7.001   7.555  13.068 -0.1084 -0.1101  0.3908
 8214TIP3    H148837   7.091   7.569  13.097  0.2402 -0.3238 -0.5520
 8214TIP3    H248838   6.981   7.632  13.015 -0.4415 -0.1227  0.4984
 8215TIP3   OH248839   0.854   5.305  10.354  0.2192 -0.0941  0.4506
 8215TIP3    H148840   0.769   5.335  10.321  0.4505 -0.9118 -0.9522
 8215TIP3    H248841   0.918   5.364  10.314  0.4645 -0.8119 -0.2513
 8216TIP3   OH248842   6.841   6.705  12.403 -0.6263  0.2477  0.5283
 8216TIP3    H148843   6.910   6.734  12.462 -1.2086  0.3944  1.1556
 8216TIP3    H248844   6.764   6.756  12.428 -0.8672  0.3870 -0.4256
 8217TIP3   OH248845   2.732   7.239  11.363 -0.7306 -0.1415  0.2949
 8217TIP3    H148846   2.783   7.167  11.325 -0.1447  0.9632 -1.1265
 8217TIP3    H248847   2.643   7.204  11.370 -0.4216 -1.0740 -0.1579
 8218TIP3   OH248848   1.204   3.502  11.286  0.1336 -0.1750  0.5378
 8218TIP3    H148849   1.140   3.486  11.216 -0.1331  0.1033  0.7169
 8218TIP3    H248850   1.289   3.494  11.243 -0.0122 -0.7437  0.3371
 8219TIP3   OH248851   0.081   2.283  12.074  0.0384 -0.1327 -0.3816
 8219TIP3    H148852   0.012   2.343  12.101  2.1870  1.5936  1.7524
 8219TIP3    H248853   0.073   2.209  12.134  0.6854  0.6058  0.6527
 8220TIP3   OH248854   0.469   5.494  11.759 -0.8342  0.2901  0.3991
 8220TIP3    H148855   0.519   5.567  11.795 -1.0512  1.6056 -1.7737
 8220TIP3    H248856   0.473   5.426  11.827 -0.4621  2.2160  2.4266
 8221TIP3   OH248857   3.162   5.402  11.625  0.2911  0.0623 -0.4420
 8221TIP3    H148858   3.112   5.379  11.702  0.9950 -1.7644 -0.4698
 8221TIP3    H248859   3.251   5.420  11.658  0.8122 -1.5667 -0.8628
 8222TIP3   OH248860   4.954   3.803  11.879  0.4710  0.4413 -0.4016
 8222TIP3    H148861   4.969   3.880  11.934  0.0878  1.4602 -1.6830
 8222TIP3    H248862   4.965   3.729  11.938 -1.5513  1.5152  1.4868
 8223TIP3   OH248863   3.811   3.477  12.985 -0.1204  0.0931 -0.3175
 8223TIP3    H148864   3.850   3.554  12.943  0.5899  0.2662  0.6347
 8223TIP3    H248865   3.769   3.512  13.064  1.9504 -0.6996  1.2437
 8224TIP3   OH248866   7.561   6.749  11.434  0.1895 -0.5968  0.1080
 8224TIP3    H148867   7.645   6.729  11.476  0.2862 -0.7349 -0.1469
 8224TIP3    H248868   7.495   6.709  11.491  0.3217 -0.8265  0.0987
 8225TIP3   OH248869   1.838   4.500  11.020  0.3296 -0.4288 -0.1003
 8225TIP3    H148870   1.821   4.538  10.933 -1.0274 -0.1934  0.2537
 8225TIP3    H248871   1.931   4.478  11.018  0.3843 -0.1746 -1.5208
 8226TIP3   OH248872   6.232   1.369  12.944  0.1998 -0.4530 -0.2337
 8226TIP3    H148873   6.152   1.371  12.891 -1.6312  0.6595  2.3387
 8226TIP3    H248874   6.258   1.461  12.952  1.0539 -0.7028 -0.0759
 8227TIP3   OH248875   1.582   1.100  10.753 -0.1341  0.1408 -0.0893
 8227TIP3    H148876   1.489   1.078  10.745 -0.7056  1.2257  2.6650
 8227TIP3    H248877   1.583   1.193  10.772  1.6038  0.2760 -0.7195
 8228TIP3   OH248878   2.172   6.122  11.379 -0.1980 -0.1952  0.1179
 8228TIP3    H148879   2.200   6.043  11.333  0.7495  0.3114 -0.2077
 8228TIP3    H248880   2.206   6.194  11.325 -0.1544  0.4183  0.9498
 8229TIP3   OH248881   2.433   5.141  12.244 -0.6278 -0.3364 -0.5764
 8229TIP3    H148882   2.407   5.127  12.335  2.4473  0.5828  0.5728
 8229TIP3    H248883   2.390   5.223  12.220 -0.9463 -0.2300  0.3000
 8230TIP3   OH248884   2.467   4.857  12.198  0.3569 -0.1477  0.5439
 8230TIP3    H148885   2.416   4.814  12.266  0.6121 -1.4632 -0.0693
 8230TIP3    H248886   2.451   4.951  12.211 -2.8845 -0.4985 -0.1488
 8231TIP3   OH248887   5.000   0.044  13.338 -0.2899  0.0273  0.2710
 8231TIP3    H148888   5.076   0.101  13.345 -1.2357  1.1398  2.7991
 8231TIP3    H248889   5.026  -0.024  13.276  3.8127 -1.2496  2.9855
 8232TIP3   OH248890   4.911   7.008  11.666 -0.0287 -0.0016 -0.2845
 8232TIP3    H148891   4.846   6.997  11.736 -0.3575  1.3651 -0.3576
 8232TIP3    H248892   4.991   6.970  11.702 -0.5785 -0.6880  0.2413
 8233TIP3   OH248893   1.962   6.883  11.241 -0.2713 -0.1270 -0.5098
 8233TIP3    H148894   1.949   6.911  11.150  0.0361  0.9362 -0.2510
 8233TIP3    H248895   2.056   6.897  11.257 -0.4095  0.1382  0.1052
 8234TIP3   OH248896   0.344   7.271  11.253 -0.0458  0.0092  0.1940
 8234TIP3    H148897   0.418   7.224  11.291 -1.2721 -0.4154  2.2173
 8234TIP3    H248898   0.303   7.208  11.194 -0.1945 -0.6125  0.9389
 8235TIP3   OH248899   1.801   1.712  10.932 -0.9411 -0.0318  0.6242
 8235TIP3    H148900   1.836   1.801  10.934  0.1963 -0.4476  0.4365
 8235TIP3    H248901   1.820   1.680  10.843 -3.0052  0.1461  0.0642
 8236TIP3   OH248902   2.580   1.708  11.251 -0.2794 -0.2648  0.2994
 8236TIP3    H148903   2.605   1.648  11.181  0.2032  2.2096 -1.8433
 8236TIP3    H248904   2.484   1.706  11.251 -0.3174  0.2664 -1.0627
 8237TIP3   OH248905   0.891   4.685  11.562  1.2083  0.2875 -0.2170
 8237TIP3    H148906   0.901   4.769  11.608  0.7352  0.5314 -0.5519
 8237TIP3    H248907   0.896   4.619  11.631  1.6743  0.5882  0.0387
 8238TIP3   OH248908   6.734   3.685  12.299 -0.4313  0.0198 -0.0117
 8238TIP3    H148909   6.797   3.726  12.358 -0.9735 -0.5939  1.0246
 8238TIP3    H248910   6.688   3.620  12.353 -0.8901 -0.6278 -1.1291
 8239TIP3   OH248911   7.218   5.950  12.648 -0.7676 -0.3188 -0.2918
 8239TIP3    H148912   7.299   5.898  12.641  0.6365  1.6752  0.3940
 8239TIP3    H248913   7.205   5.984  12.560  0.5818  1.3252  0.0873
 8240TIP3   OH248914   0.234   5.386  11.223  0.4032 -0.2788 -0.0990
 8240TIP3    H148915   0.179   5.353  11.152  0.0477 -1.3328  0.6470
 8240TIP3    H248916   0.173   5.405  11.294  0.7631  0.6925 -0.0314
 8241TIP3   OH248917   7.510   7.178  11.052  0.1314  0.5073  0.7301
 8241TIP3    H148918   7.553   7.228  10.983 -0.5310 -0.5759 -0.5131
 8241TIP3    H248919   7.538   7.088  11.038 -0.8824  0.0976  1.1771
 8242TIP3   OH248920   3.051   3.286  12.107  0.1515  0.0143 -0.1667
 8242TIP3    H148921   3.061   3.376  12.138 -0.6544 -0.2128  0.8131
 8242TIP3    H248922   2.975   3.253  12.155  0.5275 -1.2339 -0.4020
 8243TIP3   OH248923   4.214   5.026  12.463 -0.3810 -0.1797 -0.4112
 8243TIP3    H148924   4.291   4.993  12.417  1.2564  1.4760  0.9883
 8243TIP3    H248925   4.220   4.989  12.551 -0.0818  1.4311  0.2921
 8244TIP3   OH248926   1.364   2.707  11.146 -0.0703 -0.8110  0.7576
 8244TIP3    H148927   1.343   2.663  11.063 -2.2157  0.3159  0.6321
 8244TIP3    H248928   1.342   2.798  11.130  0.2871 -0.4305  2.3265
 8245TIP3   OH248929   2.721   7.623  11.381  0.7273 -0.3660 -0.1440
 8245TIP3    H148930   2.809   7.584  11.384  0.1413 -1.7030  0.8747
 8245TIP3    H248931   2.663   7.550  11.404 -0.7126  0.3293 -1.4406
 8246TIP3   OH248932   2.492   3.720  12.557  0.1313 -0.3404  0.0527
 8246TIP3    H148933   2.443   3.801  12.566 -0.1077 -0.4068 -0.5982
 8246TIP3    H248934   2.504   3.709  12.463  2.2249  0.1689  0.2097
 8247TIP3   OH248935   3.653   6.292  11.072 -0.1584 -0.5579 -0.3669
 8247TIP3    H148936   3.678   6.273  11.162  0.3286 -1.7024 -0.7272
 8247TIP3    H248937   3.728   6.262  11.019  0.1483  1.2922 -1.0818
 8248TIP3   OH248938   4.842   4.674  12.331 -0.6350  0.0145  0.0416
 8248TIP3    H148939   4.875   4.756  12.294  2.3565 -1.1522 -0.1630
 8248TIP3    H248940   4.855   4.684  12.426 -0.3043 -0.1953  0.0199
 8249TIP3   OH248941   4.413   0.151  10.699 -0.3286  0.2376  0.5286
 8249TIP3    H148942   4.429   0.243  10.681  1.8267 -0.1566  0.1448
 8249TIP3    H248943   4.440   0.106  10.619 -0.2279 -0.8194  1.1402
 8250TIP3   OH248944   1.623   0.834  10.929 -0.1058  0.2988 -0.4453
 8250TIP3    H148945   1.549   0.778  10.906  0.1484  0.6205 -2.1778
 8250TIP3    H248946   1.608   0.915  10.879 -0.6257  1.9737  2.2090
 8251TIP3   OH248947   0.632   0.073  11.371 -0.3033  0.1113  0.1978
 8251TIP3    H148948   0.665   0.130  11.301  1.4449 -0.5806  0.4114
 8251TIP3    H248949   0.706   0.063  11.431 -1.2405 -0.6883  1.2768
 8252TIP3   OH248950   3.582   6.172  12.304 -0.2574  0.3601  0.1849
 8252TIP3    H148951   3.534   6.234  12.250  0.9618  1.5032  0.3705
 8252TIP3    H248952   3.659   6.220  12.335  1.1610 -1.4572 -0.3106
 8253TIP3   OH248953   1.262   6.124  11.731 -0.3240 -0.0258 -0.4542
 8253TIP3    H148954   1.256   6.151  11.640 -0.4929  1.9370  0.0785
 8253TIP3    H248955   1.252   6.205  11.781 -1.1098 -1.1469  1.3433
 8254TIP3   OH248956   5.874   4.869  12.021  0.0639 -0.8342  0.8621
 8254TIP3    H148957   5.846   4.794  12.073 -0.4403 -0.6251  0.8918
 8254TIP3    H248958   5.811   4.938  12.041 -0.7927 -1.0764 -0.8581
 8255TIP3   OH248959   7.484   5.497  10.646  0.3980  0.4309  0.2714
 8255TIP3    H148960   7.551   5.565  10.635  1.4697 -0.8519 -1.8118
 8255TIP3    H248961   7.513   5.447  10.723  1.6590  0.1482 -0.3580
 8256TIP3   OH248962   0.836   7.346  12.935 -0.1585 -0.2591  0.1646
 8256TIP3    H148963   0.874   7.290  12.867 -1.1996 -1.5190  0.5688
 8256TIP3    H248964   0.834   7.290  13.013  0.5698  1.0033  1.1190
 8257TIP3   OH248965   7.029   7.517  11.845 -0.0593 -0.2845  0.0883
 8257TIP3    H148966   7.010   7.498  11.937  0.1142 -0.8187  0.0185
 8257TIP3    H248967   7.064   7.434  11.810  1.5928  0.4026  0.0026
 8258TIP3   OH248968   7.157   5.306  12.741  0.3278 -0.4653 -0.4724
 8258TIP3    H148969   7.132   5.263  12.823  1.3013  0.2152  0.2058
 8258TIP3    H248970   7.123   5.249  12.672  0.7264 -1.8045  0.4086
 8259TIP3   OH248971   0.589   4.952  13.378  0.3427  0.0624  0.0952
 8259TIP3    H148972   0.622   4.937  13.289  2.4931 -0.7056  0.9522
 8259TIP3    H248973   0.643   5.023  13.413  0.7493 -0.8327  1.3731
 8260TIP3   OH248974   1.681   5.963  11.614  0.5840 -0.0178 -0.4006
 8260TIP3    H148975   1.608   5.914  11.649  0.4607  0.5519  0.1616
 8260TIP3    H248976   1.642   6.045  11.582  1.1300  0.9162  1.1923
 8261TIP3   OH248977   6.779   7.452  10.621 -0.1893  0.3242  0.5788
 8261TIP3    H148978   6.745   7.537  10.593  0.3266  0.4138  0.1894
 8261TIP3    H248979   6.823   7.470  10.705 -1.9327  0.0128  1.6002
 8262TIP3   OH248980   4.796   6.166  12.473 -0.3042  0.1344 -0.3360
 8262TIP3    H148981   4.793   6.085  12.421  1.4426  0.7654 -1.5257
 8262TIP3    H248982   4.738   6.149  12.547  0.1036 -2.2515 -0.4854
 8263TIP3   OH248983   7.274   3.276  10.991  0.1279  0.0148 -0.1932
 8263TIP3    H148984   7.290   3.235  10.906  0.4649 -1.6341  0.6063
 8263TIP3    H248985   7.338   3.347  10.996  0.8416 -0.5552 -0.8952
 8264TIP3   OH248986   4.154   7.460  12.331 -0.5978 -0.4861 -0.5563
 8264TIP3    H148987   4.248   7.443  12.338 -0.4563 -0.2575 -1.7179
 8264TIP3    H248988   4.132   7.503  12.414  0.2648 -0.7539 -0.1664
 8265TIP3   OH248989   6.404   6.303  13.105  0.1193 -1.1615 -0.7438
 8265TIP3    H148990   6.487   6.258  13.117  0.2742 -0.6594  0.1096
 8265TIP3    H248991   6.400   6.367  13.176 -0.1499  0.1073 -1.8695
 8266TIP3   OH248992   5.235   0.377  12.504 -0.0345  0.2078  0.4986
 8266TIP3    H148993   5.242   0.318  12.578  0.2103 -0.7803 -0.2894
 8266TIP3    H248994   5.153   0.425  12.518  0.2020  0.3085  1.5853
 8267TIP3   OH248995   5.523   5.174  11.535 -0.4489 -0.5555  0.1729
 8267TIP3    H148996   5.445   5.226  11.516 -0.0392  0.7032  1.7517
 8267TIP3    H248997   5.490   5.085  11.549 -1.4178 -0.3065 -0.4448
 8268TIP3   OH248998   2.065   1.094  10.528 -0.6376  0.1841  0.1503
 8268TIP3    H148999   2.013   1.046  10.592 -0.4110  0.9893  0.9506
 8268TIP3    H249000   2.021   1.077  10.444 -0.6473 -1.2744  0.4282
 8269TIP3   OH249001   3.220   3.304  12.652  0.4268 -0.3112  0.2016
 8269TIP3    H149002   3.203   3.215  12.621 -0.1956 -0.0928 -0.0934
 8269TIP3    H249003   3.315   3.314  12.644  0.4461 -0.7740 -0.2361
 8270TIP3   OH249004   2.883   6.523  12.865  0.3252 -0.4646 -0.3150
 8270TIP3    H149005   2.874   6.551  12.956  2.7959 -0.5879  0.0246
 8270TIP3    H249006   2.845   6.435  12.862  0.7010 -0.6700  0.7228
 8271TIP3   OH249007   0.813   0.616  11.481 -0.4311 -0.7708  0.1665
 8271TIP3    H149008   0.867   0.585  11.408  0.0586  0.2156  0.0903
 8271TIP3    H249009   0.866   0.602  11.559 -0.1901 -0.1212  0.1283
 8272TIP3   OH249010   5.173   4.516  12.474  0.3735  0.1927  0.5444
 8272TIP3    H149011   5.083   4.487  12.487  0.1557  1.2351  1.5239
 8272TIP3    H249012   5.196   4.484  12.387 -0.9084 -0.1612  0.3152
 8273TIP3   OH249013   3.684   2.884  11.694  0.6177 -0.4627 -0.1571
 8273TIP3    H149014   3.779   2.881  11.687  0.6434  1.3168 -1.3587
 8273TIP3    H249015   3.654   2.808  11.644  1.3856 -0.1403 -1.1407
 8274TIP3   OH249016   3.887   7.138  12.809  0.2017  0.0110 -0.2318
 8274TIP3    H149017   3.873   7.230  12.784  1.4837  0.4802  0.7096
 8274TIP3    H249018   3.963   7.111  12.758  0.0756 -0.4047 -0.1974
 8275TIP3   OH249019   2.937   6.127  10.673  0.2113  0.7737  0.0650
 8275TIP3    H149020   3.009   6.121  10.736  0.1244 -1.1188  0.0330
 8275TIP3    H249021   2.863   6.085  10.716  0.0752 -0.3097 -1.1626
 8276TIP3   OH249022   5.634   5.796  10.903  0.2874  0.6894  0.1356
 8276TIP3    H149023   5.605   5.886  10.888  1.7093  1.0437 -0.7375
 8276TIP3    H249024   5.566   5.742  10.863 -0.9004  1.3181  1.2133
 8277TIP3   OH249025   2.140   4.161  11.233  0.0807 -0.4609  0.1734
 8277TIP3    H149026   2.084   4.097  11.276 -0.7259  0.6963  0.9361
 8277TIP3    H249027   2.220   4.161  11.286 -0.3188 -0.1277  0.7982
 8278TIP3   OH249028   0.177   6.766  10.695  0.1902  0.3822 -0.0079
 8278TIP3    H149029   0.124   6.723  10.628  0.0604 -0.7518  0.7885
 8278TIP3    H249030   0.235   6.697  10.728  0.7548  1.0966  0.5373
 8279TIP3   OH249031   5.676   3.735  10.720  0.2103  0.6663  0.2455
 8279TIP3    H149032   5.669   3.719  10.814 -2.4634  1.3530  0.2400
 8279TIP3    H249033   5.769   3.754  10.706  0.7243  0.3102  2.6826
 8280TIP3   OH249034   0.613   4.156  10.898 -0.1179  0.1060 -0.0533
 8280TIP3    H149035   0.581   4.084  10.952  0.8167  1.1767  2.0341
 8280TIP3    H249036   0.607   4.123  10.808 -0.5741 -2.2201  0.7648
 8281TIP3   OH249037   6.826   5.644  11.418  0.7944 -0.1946  0.5675
 8281TIP3    H149038   6.816   5.553  11.446  0.1700 -0.6171 -0.9296
 8281TIP3    H249039   6.760   5.691  11.468  1.8637 -0.3359  2.1904
 8282TIP3   OH249040   4.701   5.510  11.756 -0.3575  0.6917  0.1839
 8282TIP3    H149041   4.795   5.506  11.773 -0.3511  1.0409  0.2310
 8282TIP3    H249042   4.684   5.435  11.699  0.1572  1.3099 -0.8106
 8283TIP3   OH249043   5.047   5.167  12.101 -0.4287  0.1097 -0.0306
 8283TIP3    H149044   5.135   5.140  12.075 -0.7777  0.5334 -1.7729
 8283TIP3    H249045   4.989   5.124  12.039 -1.2676  1.7182 -0.4288
 8284TIP3   OH249046   4.254   5.070  10.806  0.2113  0.8686 -0.1255
 8284TIP3    H149047   4.236   4.980  10.833 -0.0385  0.9787  0.0736
 8284TIP3    H249048   4.232   5.072  10.712  1.8094  0.2857 -0.5401
 8285TIP3   OH249049   3.421   3.555  12.471  0.1047  0.0086 -0.5616
 8285TIP3    H149050   3.359   3.628  12.476 -1.5233 -1.2571 -1.5715
 8285TIP3    H249051   3.501   3.594  12.436  0.5007  2.0083  2.2730
 8286TIP3   OH249052   0.202   2.736  10.737 -0.1052  0.1722  0.4523
 8286TIP3    H149053   0.112   2.754  10.767 -0.2108  0.9113 -0.2725
 8286TIP3    H249054   0.246   2.821  10.742  0.7373 -0.2873  1.3403
 8287TIP3   OH249055   6.090   2.639  11.532  0.0986 -0.4498 -0.2861
 8287TIP3    H149056   6.078   2.734  11.529 -1.8673 -0.6201  0.6416
 8287TIP3    H249057   6.137   2.624  11.613 -3.4320 -0.4849  1.9648
 8288TIP3   OH249058   3.292   0.410  12.961 -0.1583  0.2760 -0.3820
 8288TIP3    H149059   3.355   0.480  12.944 -0.4968  0.9990  1.1776
 8288TIP3    H249060   3.207   0.454  12.958 -0.3810 -0.0792  0.4417
 8289TIP3   OH249061   6.623   1.241  11.407  0.4487  0.0714  0.4129
 8289TIP3    H149062   6.692   1.231  11.472 -0.0095  1.5004  1.1650
 8289TIP3    H249063   6.554   1.181  11.435 -0.3976  1.7656  2.2147
 8290TIP3   OH249064   6.472   1.203  10.978  0.0045  0.4980  0.1534
 8290TIP3    H149065   6.464   1.287  11.023  0.7908  1.0319 -0.6659
 8290TIP3    H249066   6.409   1.208  10.906  0.1816  0.4718 -0.0058
 8291TIP3   OH249067   4.150   3.861  10.876  0.3098  0.5237  0.5312
 8291TIP3    H149068   4.065   3.831  10.844  2.1786 -2.6563 -2.0518
 8291TIP3    H249069   4.151   3.835  10.968 -1.6199  1.0304  0.7448
 8292TIP3   OH249070   5.080   6.603  11.390  0.6358  0.6304 -0.5306
 8292TIP3    H149071   5.009   6.576  11.449  1.9350 -2.0097 -0.0253
 8292TIP3    H249072   5.125   6.673  11.437  0.0158  0.4224  0.4099
 8293TIP3   OH249073   1.195   3.419  12.528 -0.1666  0.0622 -0.2549
 8293TIP3    H149074   1.162   3.357  12.592  0.1757  1.4668  1.3395
 8293TIP3    H249075   1.210   3.366  12.449  0.7435 -1.9970  1.2245
 8294TIP3   OH249076   1.591   5.652  12.785 -0.0317 -0.1225  0.0431
 8294TIP3    H149077   1.676   5.645  12.827  0.6964 -0.4057 -1.4214
 8294TIP3    H249078   1.571   5.563  12.756 -1.0313 -0.1400  0.6966
 8295TIP3   OH249079   0.152   1.543  10.968  0.1802 -0.0474  0.2689
 8295TIP3    H149080   0.126   1.581  10.884  0.7208  1.4344  0.7401
 8295TIP3    H249081   0.152   1.617  11.029 -0.0815 -1.0748  1.5546
 8296TIP3   OH249082   3.697   1.682  11.693  0.7660  0.1542  0.2595
 8296TIP3    H149083   3.718   1.762  11.644  1.8155 -0.4760 -0.3556
 8296TIP3    H249084   3.666   1.621  11.626 -3.5529  1.0677  1.0962
 8297TIP3   OH249085   3.689   4.419  12.373  0.1213  0.1261  0.1434
 8297TIP3    H149086   3.753   4.435  12.442  1.4864 -0.5030 -0.9301
 8297TIP3    H249087   3.605   4.417  12.418  0.8321  1.1401  1.5674
 8298TIP3   OH249088   4.059   1.622  11.183  0.5878 -0.0734 -0.3812
 8298TIP3    H149089   4.065   1.716  11.164  1.3556 -0.0735 -0.1826
 8298TIP3    H249090   4.071   1.616  11.278 -1.7685 -0.1967 -0.0262
 8299TIP3   OH249091   3.879   1.725  12.603 -0.4017  0.1442  0.0294
 8299TIP3    H149092   3.848   1.636  12.586  0.4331 -0.2189  0.3707
 8299TIP3    H249093   3.838   1.749  12.686 -0.1751 -0.1450  0.2285
 8300TIP3   OH249094   1.071   4.912  12.576  0.4113 -0.2108 -0.0081
 8300TIP3    H149095   1.140   4.976  12.591 -0.4600  1.2039 -1.5822
 8300TIP3    H249096   1.006   4.930  12.644  0.2467  0.4918 -0.3410
 8301TIP3   OH249097   3.126   2.730  10.900  0.0225  0.3567  0.2444
 8301TIP3    H149098   3.150   2.696  10.986  0.7833  0.1232 -0.0520
 8301TIP3    H249099   3.186   2.687  10.840  0.0654  1.1653 -0.3034
 8302TIP3   OH249100   3.357   1.754  10.857 -0.6210  0.0617 -0.8717
 8302TIP3    H149101   3.418   1.754  10.931  1.6727 -1.3914 -2.6164
 8302TIP3    H249102   3.285   1.697  10.885 -0.7985  1.1037  0.9275
 8303TIP3   OH249103   1.013   4.627  13.269 -0.3727  0.5872  0.4127
 8303TIP3    H149104   1.055   4.545  13.294  1.7366  1.3267 -0.4606
 8303TIP3    H249105   0.964   4.654  13.347 -0.5610 -1.1338  0.9293
 8304TIP3   OH249106   4.756   1.616  11.507 -0.4720 -0.1586  0.4349
 8304TIP3    H149107   4.839   1.619  11.458 -0.5093  1.2713  0.4166
 8304TIP3    H249108   4.783   1.611  11.599 -0.4021 -2.0716  0.3567
 8305TIP3   OH249109   6.847   4.219  13.624 -0.6329  0.1960  0.3852
 8305TIP3    H149110   6.760   4.219  13.663 -0.5577 -0.7348  0.5698
 8305TIP3    H249111   6.892   4.145  13.664  0.2904  0.7244  0.3775
 8306TIP3   OH249112   5.137   4.412  12.183  0.0806  0.3571  0.5598
 8306TIP3    H149113   5.053   4.457  12.172  0.7282  1.1923 -1.5338
 8306TIP3    H249114   5.153   4.371  12.098  2.0376  0.6817  0.7419
 8307TIP3   OH249115   1.028   7.444  11.126 -0.5190 -0.3313  0.4083
 8307TIP3    H149116   1.057   7.524  11.169 -0.7354  0.2746 -0.5336
 8307TIP3    H249117   1.107   7.410  11.083 -1.0064  1.0377 -1.7194
 8308TIP3   OH249118   2.895   1.806  11.823  0.1828 -0.0406  0.2632
 8308TIP3    H149119   2.807   1.813  11.786 -0.3685  0.3823  1.5931
 8308TIP3    H249120   2.885   1.743  11.894  1.6992 -2.6278 -1.6255
 8309TIP3   OH249121   2.450   3.509  12.716  0.1622  0.1620 -0.0350
 8309TIP3    H149122   2.489   3.578  12.661  0.2266 -0.1100 -0.3322
 8309TIP3    H249123   2.504   3.432  12.699 -2.1838 -1.0902 -2.7612
 8310TIP3   OH249124   6.573   3.796  11.877  0.0112  0.6423  0.1262
 8310TIP3    H149125   6.580   3.809  11.971 -1.4687 -0.3481  0.4103
 8310TIP3    H249126   6.486   3.828  11.853 -0.8575 -1.7935 -0.3306
 8311TIP3   OH249127   0.099   1.730  12.581  0.0345 -0.2373 -0.2061
 8311TIP3    H149128   0.147   1.656  12.619 -1.3378 -0.6146  0.8334
 8311TIP3    H249129   0.010   1.722  12.614  0.0742  2.5386  0.8631
 8312TIP3   OH249130   6.264   0.264  11.983  0.0734  0.4649 -0.6570
 8312TIP3    H149131   6.323   0.256  12.058 -0.8913  0.6982  0.1505
 8312TIP3    H249132   6.178   0.278  12.022 -0.5683 -0.1559 -1.8038
 8313TIP3   OH249133   1.833   1.557  10.679  0.4835 -0.4730 -0.0662
 8313TIP3    H149134   1.873   1.470  10.672  0.9937 -0.1602 -1.1984
 8313TIP3    H249135   1.744   1.545  10.647  0.6698 -0.5076 -0.5817
 8314TIP3   OH249136   2.537   0.622  12.483 -0.0016  0.0103 -0.3933
 8314TIP3    H149137   2.517   0.545  12.430 -0.4995 -1.1076  1.3707
 8314TIP3    H249138   2.510   0.696  12.428 -1.5701 -1.1574 -1.2548
 8315TIP3   OH249139   6.027   7.224  11.991  0.4929  0.0311  0.5016
 8315TIP3    H149140   6.073   7.268  12.062 -1.3319 -0.1058  1.8380
 8315TIP3    H249141   6.027   7.287  11.919 -0.1864  1.3730  1.6406
 8316TIP3   OH249142   1.026   3.968  10.699  0.2735 -0.3241 -0.5762
 8316TIP3    H149143   1.088   4.041  10.692  1.5282 -1.3787 -0.7165
 8316TIP3    H249144   1.063   3.910  10.765 -1.4536 -0.1573  0.5894
 8317TIP3   OH249145   4.061   0.591  12.190  0.5503 -0.0311 -0.0443
 8317TIP3    H149146   4.112   0.632  12.120  0.0540 -0.0026 -0.3968
 8317TIP3    H249147   4.120   0.590  12.265  1.6716 -1.5452 -0.9003
 8318TIP3   OH249148   4.096   5.708  13.162 -0.3241  0.2499  0.1058
 8318TIP3    H149149   4.081   5.616  13.142 -0.1576  0.3057 -0.2914
 8318TIP3    H249150   4.012   5.741  13.192 -0.1201 -0.3030  1.3364
 8319TIP3   OH249151   2.184   7.036  11.143 -0.6464  0.1417  0.3558
 8319TIP3    H149152   2.259   7.089  11.116 -1.3926  0.7101 -0.6906
 8319TIP3    H249153   2.115   7.100  11.160 -1.3942 -0.4503 -0.3851
 8320TIP3   OH249154   0.803   5.720  10.928  0.2771  0.0235  0.0038
 8320TIP3    H149155   0.810   5.803  10.976 -0.7274  0.7974 -1.1090
 8320TIP3    H249156   0.892   5.699  10.902  0.4092  1.6283 -1.0457
 8321TIP3   OH249157   4.506   2.227  11.804  0.7113  0.1102  0.2204
 8321TIP3    H149158   4.494   2.267  11.890 -0.9730 -0.0646  0.0927
 8321TIP3    H249159   4.523   2.302  11.746 -0.3108  0.4431  0.3411
 8322TIP3   OH249160   4.418   0.625  12.119  0.1102  0.2322  0.4783
 8322TIP3    H149161   4.341   0.623  12.062 -2.4366 -1.1092  3.6560
 8322TIP3    H249162   4.448   0.534  12.121  0.2937  0.3045  1.0751
 8323TIP3   OH249163   2.139   6.884  11.780 -0.0611  0.0271 -0.0897
 8323TIP3    H149164   2.153   6.793  11.753  1.1546  0.6296 -1.5807
 8323TIP3    H249165   2.221   6.910  11.821 -0.5205  0.3900  0.6311
 8324TIP3   OH249166   7.008   6.111  11.625  0.8328 -0.2859  0.3927
 8324TIP3    H149167   7.073   6.097  11.694 -1.9805 -0.6306  3.2179
 8324TIP3    H249168   6.992   6.205  11.625  0.5488 -0.3292  0.5665
 8325TIP3   OH249169   1.000   6.945  12.683  0.2699  0.0095 -0.4171
 8325TIP3    H149170   1.054   6.916  12.756 -0.4622  0.0154  0.1454
 8325TIP3    H249171   1.028   6.892  12.609  1.3402  0.3241 -0.2497
 8326TIP3   OH249172   1.876   6.164  11.400  0.1151 -0.3324  0.0606
 8326TIP3    H149173   1.909   6.235  11.345  1.4186 -0.3120  0.8110
 8326TIP3    H249174   1.951   6.106  11.412 -0.7790 -1.5534 -0.0766
 8327TIP3   OH249175   4.714   3.785  11.756  0.1408 -0.5514  0.4862
 8327TIP3    H149176   4.805   3.775  11.783  0.3363 -2.0599 -0.6280
 8327TIP3    H249177   4.669   3.816  11.834  2.0598  3.2132  0.3593
 8328TIP3   OH249178   2.409   7.450  12.517  0.8202 -0.0812 -0.3559
 8328TIP3    H149179   2.368   7.530  12.483 -2.2227 -0.9616  0.9211
 8328TIP3    H249180   2.385   7.382  12.454  1.7956 -0.3474 -0.4567
 8329TIP3   OH249181   7.428   2.078  11.473 -0.4677  0.3211 -0.2849
 8329TIP3    H149182   7.363   2.055  11.406 -1.6208 -0.2872  0.9992
 8329TIP3    H249183   7.378   2.088  11.553  0.8487  1.3392  0.4574
 8330TIP3   OH249184   4.618   1.757  13.159  0.2634  0.5389 -0.7858
 8330TIP3    H149185   4.635   1.852  13.158  0.7529  0.5150  1.1504
 8330TIP3    H249186   4.696   1.720  13.200 -0.7061 -0.5001  0.1799
 8331TIP3   OH249187   1.964   7.173  11.158 -0.5114  0.1786  0.1965
 8331TIP3    H149188   1.879   7.130  11.171 -0.4019  0.5497  2.7563
 8331TIP3    H249189   1.942   7.266  11.147 -0.5347 -0.0172 -1.7407
 8332TIP3   OH249190   6.827   1.891  11.822  0.4078 -1.1508 -0.0424
 8332TIP3    H149191   6.752   1.907  11.880  1.4256 -0.9113  1.2497
 8332TIP3    H249192   6.860   1.806  11.850  1.4107 -0.6568  0.3097
 8333TIP3   OH249193   2.018   0.057  13.025  0.5050  0.1403 -0.5742
 8333TIP3    H149194   2.080   0.131  13.021  0.3821  0.2051 -1.6014
 8333TIP3    H249195   2.072  -0.020  13.011  0.5673  0.0561  0.0706
 8334TIP3   OH249196   5.364   0.555  12.785  0.3144 -0.3334 -1.1332
 8334TIP3    H149197   5.329   0.633  12.827  0.8400  0.2995 -1.8426
 8334TIP3    H249198   5.441   0.586  12.737  1.3241 -1.5229 -0.3355
 8335TIP3   OH249199   0.716   7.042  12.868  0.0467 -0.0951  0.1257
 8335TIP3    H149200   0.799   7.073  12.832 -0.3389  0.0268 -0.6754
 8335TIP3    H249201   0.652   7.108  12.841 -0.1720  0.3074  1.5371
 8336TIP3   OH249202   6.276   1.572  19.050 -0.2119 -0.3613 -0.0262
 8336TIP3    H149203   6.331   1.533  18.983  2.4281  0.3475  1.5771
 8336TIP3    H249204   6.316   1.658  19.068 -1.5291 -0.0133  1.5832
 8337TIP3   OH249205   3.353   0.858  11.687  0.6704  0.3399  0.0446
 8337TIP3    H149206   3.354   0.924  11.618  2.6295 -0.8703 -1.1565
 8337TIP3    H249207   3.311   0.782  11.647  1.1777 -0.1406  0.4174
 8338TIP3   OH249208   4.850   7.263  11.040  0.2152 -0.0536  0.0816
 8338TIP3    H149209   4.919   7.239  10.978 -0.6456 -1.3292 -0.4455
 8338TIP3    H249210   4.830   7.354  11.021 -0.5313 -0.6072 -2.0868
 8339TIP3   OH249211   1.064   6.474  11.680  0.3009 -0.1966  0.2909
 8339TIP3    H149212   1.000   6.403  11.692 -1.0064  0.4200 -2.3745
 8339TIP3    H249213   1.011   6.551  11.660  1.8289  0.4100 -1.7199
 8340TIP3   OH249214   2.026   0.224  11.369  0.5992 -0.3957 -0.0474
 8340TIP3    H149215   2.014   0.279  11.446 -0.7743 -0.5876 -0.0960
 8340TIP3    H249216   1.988   0.139  11.395  0.0083 -0.4244 -0.9561
 8341TIP3   OH249217   6.709   2.271  11.739  0.3670  0.3397  0.1770
 8341TIP3    H149218   6.708   2.362  11.770  2.0521  0.6968 -0.7291
 8341TIP3    H249219   6.774   2.270  11.669  1.5240 -1.8875  1.1742
 8342TIP3   OH249220   1.799   0.392  13.476 -0.5175  0.7859  0.4084
 8342TIP3    H149221   1.796   0.415  13.569 -1.5339  1.9090  0.1179
 8342TIP3    H249222   1.711   0.361  13.457 -0.0498 -0.3703  0.0186
 8343TIP3   OH249223   6.688   2.919  10.794 -0.2148  0.6240  0.1514
 8343TIP3    H149224   6.747   2.973  10.741  1.3093  1.0752  2.1749
 8343TIP3    H249225   6.672   2.970  10.873 -0.0219 -1.1811  1.4265
 8344TIP3   OH249226   4.628   3.243  12.062  0.2114  0.2902  0.0793
 8344TIP3    H149227   4.685   3.316  12.038  1.5968 -1.0052 -0.6864
 8344TIP3    H249228   4.653   3.172  12.004 -0.9337 -0.8978  0.9755
 8345TIP3   OH249229   0.687   6.790  11.093  0.4054  0.2581 -0.3310
 8345TIP3    H149230   0.735   6.710  11.114 -0.6390 -0.5514 -0.9053
 8345TIP3    H249231   0.753   6.859  11.092  1.4846 -0.7659 -0.8198
 8346TIP3   OH249232   5.628   6.394  10.411  0.1905 -0.2026  0.4052
 8346TIP3    H149233   5.577   6.475  10.412  1.6900  0.7840  1.6172
 8346TIP3    H249234   5.564   6.325  10.426 -0.9876  0.8479  0.3319
 8347TIP3   OH249235   5.289   6.936  12.177 -0.0605  0.1075  0.0525
 8347TIP3    H149236   5.196   6.929  12.156 -0.1579  0.2370  0.4366
 8347TIP3    H249237   5.302   6.875  12.249 -0.5467  2.4105  2.2069
 8348TIP3   OH249238   3.712   4.635  18.907 -0.2858  0.2699  0.0249
 8348TIP3    H149239   3.746   4.673  18.826  0.5128 -0.5333 -0.0272
 8348TIP3    H249240   3.722   4.705  18.971  0.8202  0.3077 -0.1567
 8349TIP3   OH249241   5.232   3.743  11.243 -0.5781 -0.2281  0.2462
 8349TIP3    H149242   5.190   3.819  11.284  1.9438  0.4116  1.9150
 8349TIP3    H249243   5.242   3.680  11.313  0.2182 -0.7996 -0.3591
 8350TIP3   OH249244   7.160   0.642  13.396  0.1960  0.5806  0.6102
 8350TIP3    H149245   7.081   0.689  13.422 -0.6234 -0.7426  0.6487
 8350TIP3    H249246   7.208   0.629  13.477 -0.8835 -0.9209  1.0508
 8351TIP3   OH249247   3.423   1.268  11.338  0.0824  0.1928  0.1011
 8351TIP3    H149248   3.479   1.280  11.261  0.4966  0.4674  0.4393
 8351TIP3    H249249   3.373   1.350  11.344  1.7174  1.1380  1.4531
 8352TIP3   OH249250   4.904   0.445  12.064 -0.1630 -0.0878 -0.1213
 8352TIP3    H149251   4.879   0.379  11.998  0.5424 -0.8545  0.3635
 8352TIP3    H249252   4.935   0.394  12.138 -1.7850  0.7268  1.1882
 8353TIP3   OH249253   2.122   5.635  12.989  0.0816 -0.3038  0.4023
 8353TIP3    H149254   2.160   5.567  13.046  2.2077  0.2500 -0.2596
 8353TIP3    H249255   2.155   5.717  13.026 -1.3834  0.3041  0.4033
 8354TIP3   OH249256   6.573   5.134  12.463 -0.4482  0.1308  0.4275
 8354TIP3    H149257   6.570   5.095  12.551 -0.5210  0.0238  0.3784
 8354TIP3    H249258   6.567   5.228  12.478 -1.2027  0.0746  0.4957
 8355TIP3   OH249259   5.469   6.883  12.808 -0.0361  0.4297  0.3455
 8355TIP3    H149260   5.395   6.884  12.747 -1.0200  0.3878  1.5028
 8355TIP3    H249261   5.457   6.803  12.859 -0.3689  1.4388  1.9219
 8356TIP3   OH249262   2.490   5.548  11.715  0.2171 -0.2439 -0.3081
 8356TIP3    H149263   2.416   5.502  11.755 -0.4268  0.3356 -0.8122
 8356TIP3    H249264   2.476   5.540  11.621  1.8685 -1.8189 -0.4787
 8357TIP3   OH249265   4.176   6.718  10.829  0.0944  0.0915  0.4695
 8357TIP3    H149266   4.240   6.701  10.759  0.1393 -1.4983  0.8561
 8357TIP3    H249267   4.227   6.760  10.898  0.0466  1.6966 -0.4136
 8358TIP3   OH249268   5.106   1.537  11.884  0.4053 -0.3731 -0.3841
 8358TIP3    H149269   5.072   1.498  11.804 -1.3147  0.5758 -0.1711
 8358TIP3    H249270   5.029   1.552  11.938  1.4977 -0.7162  1.3454
 8359TIP3   OH249271   3.087   0.643  12.551  0.1667  0.0374 -0.2935
 8359TIP3    H149272   3.154   0.647  12.619 -0.4231 -0.1088  0.2959
 8359TIP3    H249273   3.027   0.714  12.572  0.0483  0.0770 -0.7423
 8360TIP3   OH249274   7.235   0.758  12.790  0.2492  0.2375  0.6649
 8360TIP3    H149275   7.184   0.793  12.863 -1.2148 -0.3128 -0.0628
 8360TIP3    H249276   7.213   0.814  12.716 -0.4307 -0.8783  0.0067
 8361TIP3   OH249277   5.839   0.795  12.734 -0.2775 -0.2229 -0.5319
 8361TIP3    H149278   5.852   0.854  12.808 -0.4875  0.5769 -1.1195
 8361TIP3    H249279   5.836   0.708  12.773  1.3999  0.0231  0.2080
 8362TIP3   OH249280   7.291   6.769  10.652 -0.1203  0.2845  0.5582
 8362TIP3    H149281   7.284   6.736  10.562 -0.9194 -1.4361  1.1985
 8362TIP3    H249282   7.204   6.757  10.688  0.8270 -1.8306  2.4164
 8363TIP3   OH249283   5.362   1.134  12.152 -0.8207  0.7560  0.2434
 8363TIP3    H149284   5.340   1.146  12.244  0.3740 -2.4494  1.0657
 8363TIP3    H249285   5.340   1.043  12.134 -1.4296  1.3931 -2.8232
 8364TIP3   OH249286   2.222   3.792  11.101  0.2184  0.6571  0.6429
 8364TIP3    H149287   2.173   3.777  11.182  1.0673  1.5783  1.3534
 8364TIP3    H249288   2.297   3.845  11.128  0.1837  1.5172 -0.8513
 8365TIP3   OH249289   1.256   3.679  12.556  0.0171  0.3062 -0.8419
 8365TIP3    H149290   1.225   3.590  12.540  1.4244 -0.3702 -0.0343
 8365TIP3    H249291   1.216   3.704  12.640  0.6091 -0.0759 -0.4343
 8366TIP3   OH249292   2.076   1.741  11.848 -0.0615  0.0911 -0.1064
 8366TIP3    H149293   2.129   1.670  11.885 -0.7589  0.2517  1.2464
 8366TIP3    H249294   1.991   1.702  11.832 -0.7543  0.8114  1.5617
 8367TIP3   OH249295   7.621   2.655  12.512 -0.1388  0.3617 -0.5151
 8367TIP3    H149296   7.622   2.589  12.443 -0.1464 -1.1284  0.8564
 8367TIP3    H249297   7.564   2.618  12.580  2.3029  0.3075  1.6565
 8368TIP3   OH249298   1.851   7.675  12.537 -0.0518 -0.7453  0.4858
 8368TIP3    H149299   1.799   7.638  12.608 -1.7903 -1.4878 -1.0973
 8368TIP3    H249300   1.821   7.765  12.530  1.9629  0.1487  2.2982
 8369TIP3   OH249301   7.239   6.324  11.644  0.0413 -0.1414  0.3495
 8369TIP3    H149302   7.296   6.308  11.720  0.1202 -0.2421  0.2687
 8369TIP3    H249303   7.280   6.397  11.598  0.3637 -0.5210  0.0314
 8370TIP3   OH249304   2.225   4.090  10.962 -0.1763 -0.8613  0.1738
 8370TIP3    H149305   2.203   4.111  11.053  3.4584  0.4822  0.8995
 8370TIP3    H249306   2.226   4.175  10.918 -0.6705 -1.3752 -0.8647
 8371TIP3   OH249307   7.048   2.979  11.634 -0.1890 -0.1390  0.2653
 8371TIP3    H149308   7.105   3.056  11.632  1.0635 -0.9174  2.4182
 8371TIP3    H249309   7.103   2.908  11.667 -1.6814 -1.6415 -0.2775
 8372TIP3   OH249310   4.168   6.548  11.448 -0.0768 -0.3267 -0.0209
 8372TIP3    H149311   4.163   6.548  11.352  0.3962  0.5438 -0.0518
 8372TIP3    H249312   4.127   6.465  11.474 -1.0253 -0.1684 -0.9333
 8373TIP3   OH249313   3.150   6.355  12.470  0.8263 -0.0484  0.3175
 8373TIP3    H149314   3.224   6.294  12.464  0.9474  0.0968  0.2960
 8373TIP3    H249315   3.077   6.302  12.503  0.4049 -0.6455 -1.5035
 8374TIP3   OH249316   4.360   3.250  11.908 -0.0291 -0.4281 -0.0077
 8374TIP3    H149317   4.429   3.220  11.967  0.0925  0.3094  0.2343
 8374TIP3    H249318   4.278   3.235  11.957  0.0543 -0.0492  0.2520
 8375TIP3   OH249319   1.874   3.746  11.951 -0.0404  0.0668 -0.1511
 8375TIP3    H149320   1.939   3.815  11.952 -0.1228  0.1560 -0.5722
 8375TIP3    H249321   1.792   3.789  11.976  0.4461 -0.4840  2.6543
 8376TIP3   OH249322   1.939   6.286  12.534  0.1764  0.4173  0.3108
 8376TIP3    H149323   2.008   6.351  12.541  0.0126  0.5748  0.4684
 8376TIP3    H249324   1.872   6.326  12.479  0.4866  0.0213 -0.3673
 8377TIP3   OH249325   1.199   5.467  12.485 -0.7748 -0.3486 -0.0768
 8377TIP3    H149326   1.153   5.534  12.536 -0.3101 -2.0002  2.7710
 8377TIP3    H249327   1.291   5.492  12.490 -0.6182 -1.0339  0.8513
 8378TIP3   OH249328   5.593   3.582  10.964 -0.5696  0.2522  0.1335
 8378TIP3    H149329   5.686   3.578  10.943 -1.0870 -0.1094 -2.3187
 8378TIP3    H249330   5.591   3.578  11.060  1.9546  1.1489  0.3037
 8379TIP3   OH249331   5.683   1.453  11.717 -0.4889  0.0791  0.6926
 8379TIP3    H149332   5.661   1.537  11.757  0.7496  0.9353 -0.3586
 8379TIP3    H249333   5.721   1.476  11.632  0.3778 -1.5288  0.6138
 8380TIP3   OH249334   6.737   6.882  11.719 -0.5956 -0.4995 -0.2040
 8380TIP3    H149335   6.766   6.792  11.707  2.6350  0.3324  0.4361
 8380TIP3    H249336   6.738   6.920  11.631  1.2615 -0.2811 -0.1264
 8381TIP3   OH249337   1.213   6.838  10.891  0.0369  0.1009  0.2699
 8381TIP3    H149338   1.289   6.894  10.905  2.1008 -2.5472  0.5218
 8381TIP3    H249339   1.245   6.769  10.833 -1.9725 -1.5288  0.9708
 8382TIP3   OH249340   0.571   3.389  11.905  0.2372  0.2898 -0.3303
 8382TIP3    H149341   0.516   3.310  11.898 -1.8713  1.2662  2.6689
 8382TIP3    H249342   0.508   3.459  11.923  2.2084  2.3298 -1.0284
 8383TIP3   OH249343   0.541   5.947  11.924 -0.3092 -0.2122  0.1923
 8383TIP3    H149344   0.527   6.042  11.917  1.3592  0.0166 -0.5883
 8383TIP3    H249345   0.494   5.922  12.003 -3.1732  0.7279 -1.0781
 8384TIP3   OH249346   6.829   7.627  12.472 -0.2344 -0.5025 -0.1577
 8384TIP3    H149347   6.903   7.588  12.426 -1.1717 -0.0114 -2.1881
 8384TIP3    H249348   6.754   7.611  12.415 -0.8941  3.2003 -0.6219
 8385TIP3   OH249349   6.527   2.730  11.720 -0.3580  0.6290 -0.1910
 8385TIP3    H149350   6.454   2.791  11.714 -0.0244  0.9257 -2.0395
 8385TIP3    H249351   6.604   2.785  11.731 -0.1426  0.5155 -1.0351
 8386TIP3   OH249352   1.415   2.243  13.324 -0.2680 -0.6954  0.5314
 8386TIP3    H149353   1.328   2.220  13.355 -0.8468 -0.1818 -0.6470
 8386TIP3    H249354   1.403   2.326  13.278  0.5150 -1.4728 -1.1511
 8387TIP3   OH249355   0.300   3.350  12.481  0.1332  0.1099  0.5548
 8387TIP3    H149356   0.209   3.336  12.457  0.0038  0.2425  0.9643
 8387TIP3    H249357   0.350   3.314  12.408 -0.2310 -0.6735  0.6856
 8388TIP3   OH249358   0.060   1.295  11.306 -0.2528 -0.7280 -0.3598
 8388TIP3    H149359   0.021   1.340  11.231  1.0267  0.8656 -0.1377
 8388TIP3    H249360   0.151   1.279  11.278  0.1175 -0.4943  0.6846
 8389TIP3   OH249361   7.590   7.155  11.519  0.1246 -0.1160  0.1179
 8389TIP3    H149362   7.644   7.097  11.465 -0.7660  0.4523 -1.4641
 8389TIP3    H249363   7.526   7.192  11.458 -1.1726  0.3078  1.6517
 8390TIP3   OH249364   0.877   0.384  12.600 -0.6915  0.0658  0.4519
 8390TIP3    H149365   0.788   0.382  12.635 -2.4243  1.0223 -3.3096
 8390TIP3    H249366   0.883   0.307  12.543 -0.1157  1.3512 -1.3177
 8391TIP3   OH249367   3.397   7.231  13.379 -0.3631  0.7279  0.0894
 8391TIP3    H149368   3.425   7.236  13.471  0.7989 -0.3479 -0.1733
 8391TIP3    H249369   3.471   7.190  13.334 -1.4142  0.0657 -1.0967
 8392TIP3   OH249370   3.785   3.182  13.051  0.5553 -0.5887 -0.0058
 8392TIP3    H149371   3.843   3.151  13.121  1.7623  0.0350 -0.7045
 8392TIP3    H249372   3.769   3.274  13.073 -1.0417 -0.9912  0.7298
 8393TIP3   OH249373   3.723   2.256  13.288  0.0035  0.0421  0.3392
 8393TIP3    H149374   3.720   2.342  13.247  0.8636  0.4832  1.1670
 8393TIP3    H249375   3.655   2.259  13.355 -1.1325 -0.5413 -0.7455
 8394TIP3   OH249376   2.749   5.754  10.911  0.4574  0.6054  0.3252
 8394TIP3    H149377   2.836   5.770  10.876 -0.5278  1.9989 -1.7412
 8394TIP3    H249378   2.757   5.772  11.005  2.2633  1.2053  0.0907
 8395TIP3   OH249379   4.144   7.300  12.923  0.0234  0.2230  0.3105
 8395TIP3    H149380   4.065   7.352  12.939 -0.3187 -0.9794  3.0570
 8395TIP3    H249381   4.215   7.364  12.927 -0.6696  1.0722 -0.5352
 8396TIP3   OH249382   3.478   0.805  10.726  0.1793 -0.8130 -0.2921
 8396TIP3    H149383   3.395   0.848  10.704 -0.8809 -1.6065  1.8388
 8396TIP3    H249384   3.466   0.714  10.698 -0.4093 -1.3480  1.5629
 8397TIP3   OH249385   2.031   5.708  11.575 -0.4488  0.0063  0.2312
 8397TIP3    H149386   2.100   5.665  11.524  1.2605  1.2910  1.3551
 8397TIP3    H249387   1.966   5.640  11.590 -0.3312 -0.7900 -2.3858
 8398TIP3   OH249388   7.376   2.781  11.098 -0.1287  0.0694  0.1418
 8398TIP3    H149389   7.337   2.694  11.091 -0.3371  0.3159 -2.5401
 8398TIP3    H249390   7.470   2.766  11.096 -0.1676 -0.0684 -1.1939
 8399TIP3   OH249391   4.337   5.781  13.264  0.1953 -0.1677  0.2919
 8399TIP3    H149392   4.389   5.784  13.184 -1.2174  3.0219 -0.7021
 8399TIP3    H249393   4.253   5.743  13.238 -0.6554  1.8416 -0.1401
 8400TIP3   OH249394   5.036   5.595  10.876  0.2478  0.5557 -0.2522
 8400TIP3    H149395   5.087   5.560  10.803 -1.2584  1.3989 -1.7824
 8400TIP3    H249396   4.990   5.519  10.911  0.8328  0.1741 -0.3010
 8401TIP3   OH249397   6.222   3.366  10.726  0.2356 -0.0666 -0.2382
 8401TIP3    H149398   6.237   3.419  10.804 -1.6176  2.7625 -1.6344
 8401TIP3    H249399   6.290   3.393  10.664 -1.0628  1.2851 -1.1624
 8402TIP3   OH249400   5.302   7.336  10.790  0.2795  0.5399  0.5122
 8402TIP3    H149401   5.323   7.368  10.702  2.5130 -1.3165  0.2814
 8402TIP3    H249402   5.263   7.250  10.776 -0.0932  0.5656  1.3319
 8403TIP3   OH249403   0.599   1.057  12.857  0.0154 -0.0116 -0.7892
 8403TIP3    H149404   0.633   1.089  12.940 -2.7866 -2.6433  1.6841
 8403TIP3    H249405   0.652   0.979  12.838  0.2678  0.2439 -1.1282
 8404TIP3   OH249406   0.594   7.470  12.843 -0.4590 -0.3290  0.3505
 8404TIP3    H149407   0.688   7.469  12.857 -0.2954  1.3067 -0.3909
 8404TIP3    H249408   0.560   7.530  12.909 -0.9232 -0.5125  0.2853
 8405TIP3   OH249409   3.652   7.184  11.619  0.4295  0.3427  0.0751
 8405TIP3    H149410   3.559   7.186  11.598  0.6139  0.7648 -0.7449
 8405TIP3    H249411   3.657   7.209  11.711 -0.1098  2.5174 -0.4340
 8406TIP3   OH249412   5.434   6.083  11.557  0.4791 -0.2823 -0.3246
 8406TIP3    H149413   5.370   6.052  11.494 -0.7392 -1.1760  1.2865
 8406TIP3    H249414   5.433   6.018  11.627  0.9306  1.2335  1.1695
 8407TIP3   OH249415   6.921   2.707  11.829 -0.7564  0.0602 -0.2088
 8407TIP3    H149416   6.954   2.732  11.915  0.5442  0.7703 -0.8786
 8407TIP3    H249417   6.857   2.775  11.807 -1.0082 -0.0619  0.1344
 8408TIP3   OH249418   7.423   3.034  12.812  0.1420 -0.9204  0.0127
 8408TIP3    H149419   7.369   3.087  12.754  2.1534  0.2095 -0.9221
 8408TIP3    H249420   7.378   2.949  12.814 -1.2299 -0.2899 -1.3222
 8409TIP3   OH249421   3.233   2.396  11.863  0.0687 -0.3447  0.1429
 8409TIP3    H149422   3.185   2.433  11.788  0.5174  1.3464  0.6387
 8409TIP3    H249423   3.317   2.369  11.827  1.5981  3.4162  0.4751
 8410TIP3   OH249424   6.364   3.759  11.139  0.4251 -0.0179  0.2218
 8410TIP3    H149425   6.298   3.732  11.203  0.1896 -0.2126 -0.0977
 8410TIP3    H249426   6.445   3.717  11.168  0.7200  1.2889  1.3637
 8411TIP3   OH249427   6.207   4.081  12.549  0.3956  0.7076  0.1818
 8411TIP3    H149428   6.132   4.047  12.598  0.0557 -0.6881 -1.2354
 8411TIP3    H249429   6.191   4.175  12.543 -1.2093  0.4563  0.0042
 8412TIP3   OH249430   7.200   1.013  12.987 -0.2555 -0.6060 -0.0856
 8412TIP3    H149431   7.152   0.953  13.046 -0.9964  2.4060  2.6680
 8412TIP3    H249432   7.138   1.085  12.972  1.8373  1.2703 -0.1251
 8413TIP3   OH249433   5.457   2.618  11.718 -0.1689 -0.3720 -0.4795
 8413TIP3    H149434   5.483   2.709  11.710 -1.7356  0.0890 -0.6509
 8413TIP3    H249435   5.538   2.568  11.705  0.4247  0.9246 -2.0237
 8414TIP3   OH249436   4.111   3.306  13.187 -0.0058 -0.0139 -0.3930
 8414TIP3    H149437   4.147   3.269  13.268  1.3297 -0.0668 -0.9775
 8414TIP3    H249438   4.152   3.255  13.117  0.1184  1.0631 -1.1415
 8415TIP3   OH249439   6.482   0.032  12.465 -0.1774  0.0559 -0.0466
 8415TIP3    H149440   6.390   0.013  12.447 -0.2486 -0.9548  1.2067
 8415TIP3    H249441   6.529   0.001  12.388 -0.8983  0.8979 -0.8472
 8416TIP3   OH249442   6.283   2.894  11.273  0.0313 -0.1789 -0.2819
 8416TIP3    H149443   6.274   2.933  11.187  0.8577 -1.2166 -0.8595
 8416TIP3    H249444   6.264   2.801  11.259 -1.2707 -0.1322  0.9356
 8417TIP3   OH249445   7.235   1.149  11.654 -0.5996  0.1484 -0.4119
 8417TIP3    H149446   7.170   1.079  11.645 -0.6400  0.4314 -3.0015
 8417TIP3    H249447   7.198   1.223  11.605  0.7808  0.9732 -0.2649
 8418TIP3   OH249448   5.465   2.608  10.497  0.5448 -0.7935  0.2253
 8418TIP3    H149449   5.396   2.663  10.461  0.8825 -0.5445 -0.0568
 8418TIP3    H249450   5.504   2.564  10.421  0.6138 -1.0275  0.3927
 8419TIP3   OH249451   6.644   5.929  11.083  0.0815  0.2689 -0.5653
 8419TIP3    H149452   6.577   5.915  11.016  0.2008  0.6795 -0.7763
 8419TIP3    H249453   6.685   5.843  11.094  0.3800  0.3047 -1.3671
 8420TIP3   OH249454   2.234   5.127  11.220  0.1624  0.1639 -0.1291
 8420TIP3    H149455   2.139   5.124  11.224  0.1899 -2.2609  0.8520
 8420TIP3    H249456   2.255   5.106  11.128 -0.2488 -0.0099 -0.1845
 8421TIP3   OH249457   5.738   0.209  10.726 -0.2658 -0.1259  0.1384
 8421TIP3    H149458   5.667   0.180  10.783 -0.5239 -0.3010 -0.2718
 8421TIP3    H249459   5.717   0.300  10.706 -2.2869 -1.0829 -2.7894
 8422TIP3   OH249460   7.427   7.680  12.894 -0.2366  0.0859  0.1282
 8422TIP3    H149461   7.423   7.763  12.847 -1.0756  0.2356  0.4479
 8422TIP3    H249462   7.520   7.669  12.916 -0.1248  0.9706  0.1451
 8423TIP3   OH249463   1.956   6.593  11.057 -0.2917  0.1811  0.0286
 8423TIP3    H149464   2.043   6.630  11.071 -0.3684  0.9697 -1.4276
 8423TIP3    H249465   1.925   6.571  11.145  2.8755 -3.7397  0.4709
 8424TIP3   OH249466   0.772   1.872  11.729  0.3269  0.6072 -0.1214
 8424TIP3    H149467   0.854   1.908  11.697  0.0340  1.3924 -0.0164
 8424TIP3    H249468   0.718   1.949  11.750 -0.1003  0.1144  0.6672
 8425TIP3   OH249469   5.847   1.761  12.065  0.8258 -0.2688 -0.2637
 8425TIP3    H149470   5.801   1.846  12.061  1.2205 -0.0824 -1.4497
 8425TIP3    H249471   5.885   1.751  11.977  1.5149 -1.2767  0.1359
 8426TIP3   OH249472   2.337   1.159  10.572  0.1331  0.2723  0.0619
 8426TIP3    H149473   2.317   1.252  10.563 -0.1063  0.3481  1.1850
 8426TIP3    H249474   2.252   1.115  10.561  0.3915  0.0916 -1.4233
 8427TIP3   OH249475   3.020   4.673  12.360  0.2761 -0.0681  0.1446
 8427TIP3    H149476   3.078   4.739  12.321 -1.4702  0.3288 -1.9495
 8427TIP3    H249477   2.988   4.623  12.285  0.0936 -2.1217  1.5306
 8428TIP3   OH249478   3.413   3.743  11.075 -0.1956 -0.2362  0.3280
 8428TIP3    H149479   3.432   3.682  11.004  1.8381  0.4818  0.1857
 8428TIP3    H249480   3.407   3.688  11.153 -0.2153 -0.7958 -0.0578
 8429TIP3   OH249481   1.924   4.794  12.114  0.5908 -0.9926  0.6477
 8429TIP3    H149482   1.849   4.852  12.126 -0.6612 -1.8732 -2.0377
 8429TIP3    H249483   1.959   4.819  12.028  2.8417 -1.2226  1.4437
 8430TIP3   OH249484   0.441   4.633  13.238  0.5787 -0.2885  0.3007
 8430TIP3    H149485   0.529   4.669  13.225  0.6977 -0.1679  1.3729
 8430TIP3    H249486   0.394   4.700  13.287  0.0621 -0.5944  0.2322
 8431TIP3   OH249487   7.333   6.251  12.543 -0.1565  0.0560  0.5011
 8431TIP3    H149488   7.288   6.192  12.482  1.6879  0.3288 -1.2107
 8431TIP3    H249489   7.298   6.227  12.629  0.5584 -3.5951 -0.0785
 8432TIP3   OH249490   5.004   5.932  11.454 -0.0291  0.4950 -0.1501
 8432TIP3    H149491   4.927   5.888  11.418  0.0916  0.2121 -0.0696
 8432TIP3    H249492   4.989   6.025  11.437  0.0175  0.3714 -0.9105
 8433TIP3   OH249493   5.105   6.360  10.381 -0.3029  0.2997 -0.5759
 8433TIP3    H149494   5.069   6.427  10.324 -0.4027  1.8632  1.2422
 8433TIP3    H249495   5.196   6.350  10.353 -0.5619  0.4460 -1.4994
 8434TIP3   OH249496   3.417   7.577  11.878  0.9238  0.1660 -0.0775
 8434TIP3    H149497   3.433   7.585  11.784 -0.5824 -0.3074 -0.3919
 8434TIP3    H249498   3.409   7.667  11.909  0.5583  0.3039 -0.5641
 8435TIP3   OH249499   3.179   0.169  13.347 -0.1988 -0.6660  0.4567
 8435TIP3    H149500   3.185   0.073  13.340  1.9021 -0.5990  0.5322
 8435TIP3    H249501   3.256   0.193  13.399 -0.2591  1.1334 -0.2378
 8436TIP3   OH249502   3.297   2.444  13.268  0.0048 -0.4042  0.1351
 8436TIP3    H149503   3.334   2.422  13.353  0.4745 -1.4323 -0.3157
 8436TIP3    H249504   3.317   2.369  13.213 -0.1632  0.3059 -0.9282
 8437TIP3   OH249505   0.133   5.916  11.037  0.2741 -0.0832 -0.1218
 8437TIP3    H149506   0.191   5.881  11.104  0.8502 -1.1290 -1.1297
 8437TIP3    H249507   0.190   5.934  10.962 -0.4962  0.1180 -0.6809
 8438TIP3   OH249508   3.696   4.194  12.209 -0.2683  0.2485 -0.1728
 8438TIP3    H149509   3.710   4.273  12.260  0.2647 -0.5152  0.8935
 8438TIP3    H249510   3.759   4.200  12.137  0.6914  0.1725  0.6443
 8439TIP3   OH249511   0.807   6.772  12.815  0.2611  0.0381  0.9242
 8439TIP3    H149512   0.887   6.808  12.853  0.0457 -0.1201  1.5311
 8439TIP3    H249513   0.758   6.849  12.785  0.0915  0.2230  1.6524
 8440TIP3   OH249514   0.479   6.837  11.388  0.8200 -0.1655  0.2984
 8440TIP3    H149515   0.398   6.800  11.354 -0.0611  1.0462  0.9935
 8440TIP3    H249516   0.530   6.761  11.417  0.5915 -1.0516 -1.4792
 8441TIP3   OH249517   7.200   7.640  11.142 -0.3496 -0.3240 -0.1384
 8441TIP3    H149518   7.266   7.589  11.095  0.7544 -0.7477  1.8116
 8441TIP3    H249519   7.225   7.635  11.234 -2.4818  0.4287  0.5515
 8442TIP3   OH249520   7.060   5.911  11.018  0.5102 -0.2002 -0.0321
 8442TIP3    H149521   7.073   5.828  10.972  0.2881 -0.6427  0.6880
 8442TIP3    H249522   7.004   5.963  10.960 -0.9982 -1.3150  0.3760
 8443TIP3   OH249523   6.506   5.102  12.750  0.3931  0.2629 -0.4352
 8443TIP3    H149524   6.584   5.137  12.792  1.0582 -0.4983 -0.9999
 8443TIP3    H249525   6.433   5.135  12.802  0.9901  2.2706 -0.7985
 8444TIP3   OH249526   1.964   1.818  12.567  0.2245 -0.1882 -0.0476
 8444TIP3    H149527   2.023   1.893  12.578  1.1465 -1.0629  1.2092
 8444TIP3    H249528   2.020   1.747  12.538 -0.5619 -0.5465 -0.7395
 8445TIP3   OH249529   6.197   6.716  10.361  0.5330 -0.0263  0.0924
 8445TIP3    H149530   6.137   6.643  10.346 -1.6361  1.5560  0.4733
 8445TIP3    H249531   6.210   6.717  10.456 -2.3122  2.0428  0.5975
 8446TIP3   OH249532   2.304   4.683  12.370 -0.4782 -0.7188 -0.1535
 8446TIP3    H149533   2.306   4.667  12.464 -0.4867  0.8453  0.1330
 8446TIP3    H249534   2.227   4.634  12.339 -1.3215 -0.1104  0.8916
 8447TIP3   OH249535   2.838   2.787  12.253  0.1825 -0.7119 -0.1987
 8447TIP3    H149536   2.894   2.723  12.209 -0.1615  0.7592 -2.9721
 8447TIP3    H249537   2.749   2.754  12.239  0.1539 -1.8353  2.1996
 8448TIP3   OH249538   2.482   0.769  10.393  0.5617 -0.5144  0.4511
 8448TIP3    H149539   2.527   0.732  10.317 -0.3788 -0.4531 -0.1655
 8448TIP3    H249540   2.455   0.693  10.444  3.8328 -0.5240  2.3973
 8449TIP3   OH249541   6.445   3.897  10.484  0.3968  0.3146  0.3137
 8449TIP3    H149542   6.493   3.918  10.564  0.9156 -0.1458  0.1304
 8449TIP3    H249543   6.355   3.924  10.502  0.2689 -0.7966  1.4740
 8450TIP3   OH249544   5.055   7.224  12.202 -0.2309  0.1945  0.0483
 8450TIP3    H149545   5.022   7.258  12.119  0.9759 -1.4592 -1.1721
 8450TIP3    H249546   5.150   7.233  12.197 -0.1699  1.0083  1.7200
 8451TIP3   OH249547   3.800   6.270  11.619 -0.0408 -0.3540  0.2913
 8451TIP3    H149548   3.745   6.215  11.675 -0.1765  0.0135  0.5169
 8451TIP3    H249549   3.783   6.359  11.649  0.2887 -0.2004  0.0174
 8452TIP3   OH249550   5.365   3.775  10.921 -0.4336  0.5802  0.1255
 8452TIP3    H149551   5.342   3.697  10.972  0.4045  1.2651  1.6100
 8452TIP3    H249552   5.429   3.744  10.857  1.8801  0.4395  2.3598
 8453TIP3   OH249553   2.010   7.034  12.438  0.4320  0.4711 -0.1121
 8453TIP3    H149554   2.089   6.988  12.411 -0.7122 -1.0345 -1.0511
 8453TIP3    H249555   1.961   7.048  12.357 -2.1579 -2.3773  0.7725
 8454TIP3   OH249556   2.912   1.450  10.660  0.7465  0.0751  0.2165
 8454TIP3    H149557   2.985   1.444  10.723  0.5338  1.3424  0.6015
 8454TIP3    H249558   2.951   1.489  10.582  1.1318 -1.9691 -0.6899
 8455TIP3   OH249559   1.905   5.294  12.190 -0.3036  0.0866 -0.1908
 8455TIP3    H149560   1.947   5.316  12.273 -0.6518  0.0829 -0.0139
 8455TIP3    H249561   1.957   5.221  12.156  0.7123  1.0022 -0.6655
 8456TIP3   OH249562   4.661   2.967  11.584 -0.1578 -0.0458 -0.0038
 8456TIP3    H149563   4.594   3.020  11.542 -1.2726  1.0072  2.8283
 8456TIP3    H249564   4.743   3.014  11.569 -1.0845  2.5083  2.1821
 8457TIP3   OH249565   3.081   3.531  12.300 -0.1069 -0.4769 -0.2862
 8457TIP3    H149566   3.162   3.578  12.279  0.1056 -0.6772  0.0645
 8457TIP3    H249567   3.082   3.523  12.395 -0.7334 -0.1486 -0.2508
 8458TIP3   OH249568   2.260   2.537  12.216  0.6073 -0.2451  0.5714
 8458TIP3    H149569   2.332   2.593  12.245 -0.0592  2.3236 -2.2453
 8458TIP3    H249570   2.277   2.523  12.123 -0.5602 -2.8386  0.6705
 8459TIP3   OH249571   3.628   7.497  10.543  0.5251  0.0981 -0.7056
 8459TIP3    H149572   3.611   7.495  10.637  2.6974 -0.2471 -0.2669
 8459TIP3    H249573   3.707   7.550  10.534 -1.4480  2.9812 -2.7172
 8460TIP3   OH249574   2.641   4.877  11.941 -0.0411  0.3164 -0.2312
 8460TIP3    H149575   2.577   4.862  12.010  1.5638  0.9377  1.4992
 8460TIP3    H249576   2.640   4.796  11.889 -1.6535  0.0339  0.1973
 8461TIP3   OH249577   3.037   0.158  10.984  0.1310 -0.4557 -0.0527
 8461TIP3    H149578   3.062   0.187  10.896  3.1212  2.8989  1.5936
 8461TIP3    H249579   3.063   0.066  10.988  0.4294 -0.5356 -2.4787
 8462TIP3   OH249580   5.636   2.045  10.811  0.6902 -0.1564 -0.0686
 8462TIP3    H149581   5.575   1.992  10.758  0.6963  1.1168 -1.4216
 8462TIP3    H249582   5.617   2.020  10.901 -0.4043 -1.3022 -0.5790
 8463TIP3   OH249583   3.966   7.351  10.691 -0.1258  0.1376  0.0811
 8463TIP3    H149584   3.936   7.439  10.715 -1.3481 -0.2819  0.1780
 8463TIP3    H249585   3.940   7.341  10.600  0.0666 -0.1063  0.0509
 8464TIP3   OH249586   4.190   4.191  11.094 -0.1684 -0.2939  0.1202
 8464TIP3    H149587   4.099   4.162  11.094 -0.2287 -0.3222 -2.5100
 8464TIP3    H249588   4.222   4.172  11.005  1.9214  1.1699  0.4716
 8465TIP3   OH249589   4.895   2.015  10.712 -0.2492 -0.0893 -0.6465
 8465TIP3    H149590   4.936   1.940  10.669  0.9585 -1.0806  1.9600
 8465TIP3    H249591   4.835   1.976  10.776 -0.6353  1.2006 -0.1787
 8466TIP3   OH249592   4.229   0.818  13.104 -0.0612 -0.0645  0.0930
 8466TIP3    H149593   4.293   0.754  13.072  0.2969  1.4109 -2.4101
 8466TIP3    H249594   4.279   0.900  13.111 -1.1342  0.5782  0.5305
 8467TIP3   OH249595   1.166   4.520  11.973  0.7003 -0.2249  0.1703
 8467TIP3    H149596   1.227   4.456  12.009 -0.1253 -0.9064  0.3760
 8467TIP3    H249597   1.094   4.523  12.037 -0.8830 -1.5851 -1.4481
 8468TIP3   OH249598   4.712   4.931  12.412  0.2108  0.2996  0.2562
 8468TIP3    H149599   4.804   4.926  12.437  0.1786  0.8702  0.4970
 8468TIP3    H249600   4.692   4.845  12.375  0.5739 -0.1553  1.0992
 8469TIP3   OH249601   6.839   6.862  10.944  0.1934 -0.8958  0.1788
 8469TIP3    H149602   6.866   6.952  10.928 -1.6346 -0.2426  0.5095
 8469TIP3    H249603   6.850   6.850  11.038  1.1457 -1.2863  0.0274
 8470TIP3   OH249604   6.160   4.651  10.666 -0.6154  0.5661  0.4113
 8470TIP3    H149605   6.164   4.584  10.598  2.2632 -1.1105  2.0217
 8470TIP3    H249606   6.090   4.621  10.724 -1.4334  0.6730 -0.5038
 8471TIP3   OH249607   6.345   2.803  12.886 -0.1392  0.6685 -0.7634
 8471TIP3    H149608   6.403   2.748  12.835  2.1678  2.2276  0.0258
 8471TIP3    H249609   6.257   2.784  12.852  0.5144 -3.1648 -0.7474
 8472TIP3   OH249610   5.976   7.084  11.720 -0.2290  0.0768  0.0502
 8472TIP3    H149611   5.985   7.030  11.641 -0.2051  0.1776 -0.0166
 8472TIP3    H249612   6.053   7.141  11.719 -0.1238 -0.0610  0.2568
 8473TIP3   OH249613   0.699   0.363  12.282 -0.1791 -0.3181  0.6563
 8473TIP3    H149614   0.706   0.440  12.339 -0.2559  1.3677 -1.4668
 8473TIP3    H249615   0.609   0.366  12.249  0.4959  0.0590 -1.2396
 8474TIP3   OH249616   1.865   5.551  12.149  0.0359 -0.0587 -0.4638
 8474TIP3    H149617   1.861   5.455  12.148  0.5410 -0.1601  1.8575
 8474TIP3    H249618   1.955   5.570  12.175 -0.7760  0.9530  1.8270
 8475TIP3   OH249619   2.477   3.937  12.395 -0.0264  0.7322  0.1644
 8475TIP3    H149620   2.539   3.879  12.350 -1.1237  0.5175 -1.1543
 8475TIP3    H249621   2.514   4.024  12.386 -0.6940  0.8367 -2.1189
 8476TIP3   OH249622   3.104   1.715  11.335  0.2893  0.0809  0.0962
 8476TIP3    H149623   3.114   1.651  11.405 -0.4052  0.0605  0.1917
 8476TIP3    H249624   3.077   1.795  11.380  1.6450  0.5948  0.0310
 8477TIP3   OH249625   1.730   2.720  11.223 -0.1602  0.0838 -0.5738
 8477TIP3    H149626   1.770   2.762  11.298 -0.1884 -1.7615  0.5340
 8477TIP3    H249627   1.749   2.778  11.149  3.5476 -0.0834  0.0899
 8478TIP3   OH249628   6.533   6.909  12.841 -0.0292  0.1218 -0.7484
 8478TIP3    H149629   6.543   6.972  12.912  0.3728 -2.1937  1.3995
 8478TIP3    H249630   6.510   6.827  12.885 -1.1683 -1.1104 -3.4373
 8479TIP3   OH249631   0.926   2.687  11.606 -0.0350  0.2371 -0.6406
 8479TIP3    H149632   0.992   2.755  11.607  1.0361 -0.7297 -1.9206
 8479TIP3    H249633   0.842   2.734  11.604  0.6757  1.5397 -1.9660
 8480TIP3   OH249634   1.749   7.226  12.643  0.2285  0.7468  0.4449
 8480TIP3    H149635   1.672   7.221  12.699  1.3536  2.6972  2.3125
 8480TIP3    H249636   1.821   7.198  12.699  1.3018  2.0349 -0.2327
 8481TIP3   OH249637   1.217   5.331  10.446 -0.3852  0.4206  0.3157
 8481TIP3    H149638   1.143   5.315  10.386 -0.5831  1.4068  0.2819
 8481TIP3    H249639   1.254   5.414  10.416  1.1487 -0.3667 -0.0539
 8482TIP3   OH249640   6.038   3.778  11.021  0.5050  0.1425 -0.2921
 8482TIP3    H149641   5.982   3.806  11.094  0.4488  1.0426 -0.6600
 8482TIP3    H249642   6.103   3.720  11.061 -1.2041 -1.6616  0.0005
 8483TIP3   OH249643   3.517   5.513  10.668  0.3692  0.1641 -0.1299
 8483TIP3    H149644   3.444   5.473  10.622  0.5970 -0.4969  0.0675
 8483TIP3    H249645   3.537   5.593  10.618  1.2399 -1.0185 -1.7678
 8484TIP3   OH249646   6.383   6.439  12.838  0.3257 -0.2257 -0.3080
 8484TIP3    H149647   6.348   6.452  12.926 -0.3720  0.1249 -0.6263
 8484TIP3    H249648   6.421   6.523  12.815  0.8238 -0.4213 -0.2103
 8485TIP3   OH249649   2.678   1.378  12.887  0.2452  0.1621  0.0784
 8485TIP3    H149650   2.601   1.358  12.834  0.6440 -0.1561 -0.3859
 8485TIP3    H249651   2.695   1.471  12.871 -0.1727  0.2894  0.3587
 8486TIP3   OH249652   6.967   1.660  12.973  0.0349  0.3300  0.3609
 8486TIP3    H149653   7.040   1.600  12.958  0.9268  1.5797 -0.5169
 8486TIP3    H249654   6.893   1.620  12.928  0.8523  0.3423 -1.0401
 8487TIP3   OH249655   7.374   0.969  10.772 -0.4596  0.2849  0.4669
 8487TIP3    H149656   7.431   1.038  10.806  0.2402 -0.3534  0.6168
 8487TIP3    H249657   7.359   0.911  10.847 -1.7178  0.7036  0.5572
 8488TIP3   OH249658   7.556   7.264  10.659  0.1217 -0.2185  0.2016
 8488TIP3    H149659   7.583   7.315  10.735  0.5428  1.0243 -0.7499
 8488TIP3    H249660   7.594   7.310  10.584 -4.0240  1.3769 -1.2333
 8489TIP3   OH249661   1.526   5.707  11.073  0.2583  0.8620 -0.6735
 8489TIP3    H149662   1.456   5.654  11.036  0.3297 -1.8478  2.5863
 8489TIP3    H249663   1.482   5.785  11.106 -0.6589  0.6995 -1.4747
 8490TIP3   OH249664   3.645   6.554  13.102  0.1645 -0.3183 -0.5319
 8490TIP3    H149665   3.655   6.523  13.012  1.1265  0.6376 -0.7736
 8490TIP3    H249666   3.697   6.634  13.106 -0.9842  0.4112  0.5154
 8491TIP3   OH249667   6.988   1.347  10.992 -1.3530  0.7747 -0.1258
 8491TIP3    H149668   6.939   1.369  11.072  0.2375  0.1012  1.1042
 8491TIP3    H249669   6.988   1.252  10.990 -0.0040  0.7451  0.0137
 8492TIP3   OH249670   6.242   4.664  11.903  0.4828  0.0738  0.2268
 8492TIP3    H149671   6.336   4.675  11.913  0.4880  1.9345 -1.4068
 8492TIP3    H249672   6.204   4.726  11.965  0.3318  0.2954 -0.0920
 8493TIP3   OH249673   4.991   6.971  12.178 -0.0192  0.1212  0.3348
 8493TIP3    H149674   4.901   6.950  12.203 -0.3846 -0.9552 -1.7052
 8493TIP3    H249675   4.999   7.065  12.194 -2.0648  0.5719 -0.9888
 8494TIP3   OH249676   1.454   4.502  11.373 -0.4687 -0.1116 -0.2476
 8494TIP3    H149677   1.443   4.517  11.279  1.7444  1.1702 -0.3669
 8494TIP3    H249678   1.490   4.413  11.379 -1.2826 -0.4657 -0.5513
 8495TIP3   OH249679   5.595   4.293  11.933 -0.0492  0.4168  0.4059
 8495TIP3    H149680   5.555   4.207  11.918  0.3116  0.2845  0.2007
 8495TIP3    H249681   5.543   4.331  12.004 -0.0500 -0.0804  0.6793
 8496TIP3   OH249682   7.196   3.734  11.653 -0.0306 -0.0464 -0.0928
 8496TIP3    H149683   7.245   3.813  11.630  0.2240  0.3185  1.5987
 8496TIP3    H249684   7.122   3.734  11.592  1.0307  0.3897 -1.4485
 8497TIP3   OH249685   0.300   7.136  11.917 -0.2611  0.0775 -0.0711
 8497TIP3    H149686   0.227   7.126  11.856  0.0997  2.3498 -0.9676
 8497TIP3    H249687   0.258   7.161  12.000 -0.5232  1.1840 -0.5275
 8498TIP3   OH249688   7.010   0.761  11.297 -0.5220  0.0561  0.5438
 8498TIP3    H149689   7.089   0.814  11.295  0.0619 -0.8132  0.3921
 8498TIP3    H249690   7.040   0.671  11.284 -1.3510 -0.4816  2.0452
 8499TIP3   OH249691   3.247   7.013  11.856 -0.1554 -0.2254  0.4291
 8499TIP3    H149692   3.220   6.983  11.943  1.8038  0.6556  1.4002
 8499TIP3    H249693   3.342   7.003  11.855  0.0908  1.6635 -0.8733
 8500TIP3   OH249694   3.696   7.282  10.405  0.4149  0.1609 -0.0314
 8500TIP3    H149695   3.661   7.361  10.447  1.2790 -0.2796  1.5649
 8500TIP3    H249696   3.618   7.229  10.387  0.0822 -0.2061  2.2243
 8501TIP3   OH249697   1.076   1.315  12.825 -0.3463 -0.4174  0.0078
 8501TIP3    H149698   1.086   1.237  12.879 -1.8304 -0.0912  0.8158
 8501TIP3    H249699   1.079   1.388  12.888 -2.3285 -0.0419 -0.2719
 8502TIP3   OH249700   1.388   5.415  11.286  0.7821  0.1162  0.0449
 8502TIP3    H149701   1.444   5.487  11.318 -1.4626  1.2555  1.6873
 8502TIP3    H249702   1.305   5.457  11.265 -0.4161 -1.9132  0.4743
 8503TIP3   OH249703   5.240   7.091  10.724 -0.1384  0.5382  0.2452
 8503TIP3    H149704   5.308   7.095  10.656 -0.6855 -0.4002 -0.3676
 8503TIP3    H249705   5.266   7.017  10.780 -1.5743 -1.0064 -1.0338
 8504TIP3   OH249706   6.694   3.228  12.754 -0.0348  0.5281  0.6393
 8504TIP3    H149707   6.622   3.272  12.709 -0.5691 -2.4899 -1.7804
 8504TIP3    H249708   6.768   3.289  12.746 -0.1809  0.4675 -4.1785
 8505TIP3   OH249709   7.277   1.954  12.594 -1.0216 -0.0878  0.1824
 8505TIP3    H149710   7.233   2.031  12.630  0.6368  0.7372  0.5482
 8505TIP3    H249711   7.213   1.883  12.604 -1.7266  0.7392  2.0016
 8506TIP3   OH249712   5.324   7.532  10.096 -0.4956 -0.4829 -0.4961
 8506TIP3    H149713   5.265   7.599  10.129 -1.3345 -0.5632 -1.7714
 8506TIP3    H249714   5.290   7.450  10.132 -0.3418 -0.3940 -0.1374
 8507TIP3   OH249715   2.259   4.648  11.701 -0.3036 -0.1461 -0.0503
 8507TIP3    H149716   2.205   4.600  11.763 -0.2134 -0.1016  0.0631
 8507TIP3    H249717   2.307   4.711  11.754  1.6964 -1.7971  0.2039
 8508TIP3   OH249718   7.200   4.788  13.023 -0.2548  0.1936 -0.0601
 8508TIP3    H149719   7.186   4.705  12.976 -2.5336  0.4107  0.1374
 8508TIP3    H249720   7.229   4.761  13.110  1.0236 -0.2981 -0.6079
 8509TIP3   OH249721   5.297   0.323  10.429 -0.3697 -0.2956  0.2765
 8509TIP3    H149722   5.220   0.368  10.396 -0.7834 -1.0975  0.1067
 8509TIP3    H249723   5.370   0.362  10.383 -0.6979  0.3277  0.2797
 8510TIP3   OH249724   4.056   6.175  12.644 -0.4885  0.2542 -0.0222
 8510TIP3    H149725   4.030   6.083  12.638  1.6497 -0.3338 -1.0367
 8510TIP3    H249726   4.146   6.173  12.678 -0.5808  2.0157  0.4652
 8511TIP3   OH249727   6.181   4.880  10.487  0.2377  0.1520  0.1823
 8511TIP3    H149728   6.100   4.897  10.440 -0.2036  0.0780  0.9006
 8511TIP3    H249729   6.153   4.842  10.570  1.0380 -0.4683  0.1802
 8512TIP3   OH249730   6.833   0.014  11.707  0.3368  0.2749 -0.0700
 8512TIP3    H149731   6.846  -0.014  11.617 -2.1249  1.0020 -0.7274
 8512TIP3    H249732   6.877  -0.053  11.760  4.0571  1.1264 -1.7466
 8513TIP3   OH249733   6.359   2.059  11.057 -0.1933  0.0927 -0.3116
 8513TIP3    H149734   6.289   2.060  10.992 -1.0995  2.1410  0.5942
 8513TIP3    H249735   6.418   2.129  11.028 -0.2197  0.5210  0.6533
 8514TIP3   OH249736   4.398   2.130  11.526  0.0397  0.3772 -0.0712
 8514TIP3    H149737   4.390   2.035  11.519  0.4751  0.2006  1.5252
 8514TIP3    H249738   4.420   2.159  11.437  1.3036 -1.1598 -0.2944
 8515TIP3   OH249739   6.433   3.058  11.944 -0.1505  0.5440  0.3476
 8515TIP3    H149740   6.479   3.014  12.016  0.7366  1.4379  0.3552
 8515TIP3    H249741   6.377   2.990  11.907 -0.1439 -0.1100  1.4688
 8516TIP3   OH249742   6.783   6.970  13.051  0.1934 -0.0183 -0.1240
 8516TIP3    H149743   6.838   7.014  13.117 -0.3670  0.6190 -0.0680
 8516TIP3    H249744   6.710   7.031  13.037 -0.8434 -1.1321  0.2824
 8517TIP3   OH249745   3.551   7.175  10.776 -0.4393 -0.4046  0.4444
 8517TIP3    H149746   3.612   7.138  10.840  2.2755  2.9151  0.0602
 8517TIP3    H249747   3.559   7.118  10.700  3.3268  0.5885 -0.0528
 8518TIP3   OH249748   3.295   1.352  11.733  0.7353 -0.4931  0.0573
 8518TIP3    H149749   3.213   1.304  11.720  0.6344  0.0005 -1.2988
 8518TIP3    H249750   3.329   1.366  11.644  0.9988  1.5515  0.4339
 8519TIP3   OH249751   6.815   6.074  10.907  0.1163  0.1471  0.4960
 8519TIP3    H149752   6.757   6.097  10.835 -0.1466  0.0898  0.6861
 8519TIP3    H249753   6.757   6.037  10.974  0.2634  0.7774  0.9870
 8520TIP3   OH249754   2.509   2.841  12.135 -0.3606 -0.4694 -0.4171
 8520TIP3    H149755   2.535   2.932  12.129 -1.4231 -0.1132  0.0483
 8520TIP3    H249756   2.416   2.844  12.157 -0.0383 -1.6340  1.3642
 8521TIP3   OH249757   0.306   1.283  11.040  0.0968 -0.4563  0.0566
 8521TIP3    H149758   0.372   1.322  10.983  0.4851 -1.2079 -0.0238
 8521TIP3    H249759   0.243   1.353  11.055  1.1347  0.4068  0.4909
 8522TIP3   OH249760   0.391   7.257  10.772  0.5138  0.1469 -0.3422
 8522TIP3    H149761   0.456   7.269  10.841  0.0149  0.5357  0.0634
 8522TIP3    H249762   0.407   7.168  10.741  1.9781  0.6083 -1.0308
 8523TIP3   OH249763   1.993   3.920  13.332 -0.6944 -0.1061 -0.6814
 8523TIP3    H149764   1.946   3.945  13.253  0.3395  1.5677 -0.8260
 8523TIP3    H249765   2.026   3.832  13.314 -1.6490 -0.2955 -1.5400
 8524TIP3   OH249766   3.743   3.519  12.633  0.5263  0.3894  0.4744
 8524TIP3    H149767   3.717   3.511  12.725  1.7021 -0.3907  0.7709
 8524TIP3    H249768   3.700   3.598  12.602  0.5585  0.9745  1.8570
 8525TIP3   OH249769   6.154   4.831  12.087  0.3212 -0.1592 -0.2453
 8525TIP3    H149770   6.176   4.788  12.169 -0.9221 -1.5386 -0.5854
 8525TIP3    H249771   6.059   4.846  12.092  0.6326  2.1964 -0.3411
 8526TIP3   OH249772   3.903   0.058  11.755  0.0074 -0.4914 -0.3583
 8526TIP3    H149773   3.846   0.011  11.816 -0.6243  1.7023  0.8587
 8526TIP3    H249774   3.842   0.099  11.693  0.1043  1.9348  0.9941
 8527TIP3   OH249775   0.976   1.842  12.859 -0.1376  0.9913 -0.3435
 8527TIP3    H149776   0.895   1.851  12.908  0.4156 -0.0635  0.8015
 8527TIP3    H249777   0.973   1.753  12.825 -0.4370  1.6404 -2.1562
 8528TIP3   OH249778   4.052   1.988  11.446 -0.2402 -0.4137  0.8075
 8528TIP3    H149779   4.142   1.985  11.479  0.0019 -0.5575  0.1390
 8528TIP3    H249780   4.030   2.081  11.443  0.1783 -0.3294  0.1999
 8529TIP3   OH249781   0.619   4.595  11.415  0.5830  0.0327  0.7740
 8529TIP3    H149782   0.548   4.554  11.367 -0.1500  2.0024  0.0962
 8529TIP3    H249783   0.620   4.549  11.500 -0.4174 -1.0966  0.2005
 8530TIP3   OH249784   6.478   4.947  11.232 -0.6080  0.3830 -0.3036
 8530TIP3    H149785   6.402   4.910  11.187 -0.0878  1.0726 -1.8438
 8530TIP3    H249786   6.553   4.911  11.185  0.0880 -0.9866  1.7587
 8531TIP3   OH249787   7.556   1.624  11.401 -0.3244 -0.7235 -0.1824
 8531TIP3    H149788   7.463   1.648  11.401  0.2770  2.2534 -2.9666
 8531TIP3    H249789   7.569   1.579  11.318  0.9773  0.3935 -0.6211
 8532TIP3   OH249790   6.750   7.046  11.475  0.1843 -0.6824  0.3080
 8532TIP3    H149791   6.717   7.094  11.398 -0.8441 -1.9540 -0.0883
 8532TIP3    H249792   6.826   7.097  11.504 -0.1990  0.5643 -0.7407
 8533TIP3   OH249793   5.091   0.454  13.106 -0.6821 -0.3489  0.1802
 8533TIP3    H149794   5.175   0.416  13.134  0.2425  1.1430 -0.4075
 8533TIP3    H249795   5.025   0.407  13.156  0.5678 -1.0600  1.2253
 8534TIP3   OH249796   4.894   2.328  10.926 -0.2703 -0.0217 -0.1104
 8534TIP3    H149797   4.926   2.299  10.840 -1.1815 -4.0400  0.7164
 8534TIP3    H249798   4.972   2.333  10.981  0.4927  3.6681 -1.2167
 8535TIP3   OH249799   3.585   4.689  12.245 -0.3551  0.1928 -0.0290
 8535TIP3    H149800   3.540   4.644  12.316  0.8419  0.5635  1.0028
 8535TIP3    H249801   3.562   4.640  12.167 -0.2873 -1.3084  0.8570
 8536TIP3   OH249802   6.263   4.062  10.171 -0.1603 -0.1373  0.3748
 8536TIP3    H149803   6.230   3.998  10.235  1.7927 -2.1260 -0.4685
 8536TIP3    H249804   6.270   4.013  10.090  0.8643  1.3260 -0.4746
 8537TIP3   OH249805   1.113   5.997  11.981  0.3174  0.4497 -0.1889
 8537TIP3    H149806   1.145   6.020  11.893 -0.5447  1.1644 -0.3335
 8537TIP3    H249807   1.168   6.047  12.041 -0.5692  1.7905 -0.4416
 8538TIP3   OH249808   0.277   3.962  11.648 -0.4404 -0.4162  0.1041
 8538TIP3    H149809   0.230   3.878  11.656  2.1632 -1.8926  1.3092
 8538TIP3    H249810   0.251   4.011  11.726  0.0311 -1.2640  0.8243
 8539TIP3   OH249811   2.985   2.746  11.872  0.4816 -0.4788  0.0523
 8539TIP3    H149812   2.907   2.765  11.820  0.9107 -0.5723 -0.6298
 8539TIP3    H249813   2.998   2.826  11.923  0.3728 -0.1778 -0.3830
 8540TIP3   OH249814   3.897   7.133  13.097  0.1463 -0.1087  0.5392
 8540TIP3    H149815   3.904   7.126  13.002 -0.9279 -0.1515  0.4555
 8540TIP3    H249816   3.835   7.205  13.112 -1.2002 -1.3527  1.1614
 8541TIP3   OH249817   2.015   3.143  11.656  0.1106  0.7828  0.4573
 8541TIP3    H149818   1.973   3.203  11.594 -0.5295  1.6983  1.7425
 8541TIP3    H249819   2.096   3.117  11.612 -0.8023  0.5660 -1.2083
 8542TIP3   OH249820   6.440   6.480  11.885  0.4253  0.4983 -0.2783
 8542TIP3    H149821   6.533   6.486  11.866  0.5576  1.0629  0.4997
 8542TIP3    H249822   6.416   6.391  11.858  0.5299  1.2538 -3.1764
 8543TIP3   OH249823   0.117   6.020  11.960 -0.2070 -0.7983  0.1973
 8543TIP3    H149824   0.077   6.025  12.047 -0.4731  0.4616  0.0198
 8543TIP3    H249825   0.074   5.945  11.919 -0.7721 -0.8220  0.8117
 8544TIP3   OH249826   4.408   2.513  12.966  0.3973 -0.0423 -0.7083
 8544TIP3    H149827   4.442   2.532  12.878  1.6918 -2.9663 -0.9466
 8544TIP3    H249828   4.335   2.453  12.951 -1.7289  2.1208  0.1416
 8545TIP3   OH249829   5.760   0.664  10.645  0.2753 -0.6458  0.3649
 8545TIP3    H149830   5.801   0.626  10.567 -0.0636 -0.6136  0.1711
 8545TIP3    H249831   5.831   0.668  10.709  1.1573  1.4854 -0.6607
 8546TIP3   OH249832   1.991   5.273  10.290 -0.1334  0.2515  0.4181
 8546TIP3    H149833   1.990   5.308  10.201 -2.5588 -0.1196  0.2136
 8546TIP3    H249834   2.057   5.326  10.336  0.2219  1.3460 -1.2467
 8547TIP3   OH249835   6.127   5.645  12.038  0.1957  0.1028  0.3479
 8547TIP3    H149836   6.177   5.726  12.024  0.5354  0.1356  1.5996
 8547TIP3    H249837   6.046   5.675  12.079  0.1204 -0.1539  0.3829
 8548TIP3   OH249838   4.955   1.432  13.342  0.3232 -0.3806 -0.1409
 8548TIP3    H149839   4.898   1.442  13.418  0.9799  1.8728  0.1033
 8548TIP3    H249840   4.912   1.363  13.290 -1.4604 -0.2388  1.0398
 8549TIP3   OH249841   3.629   2.635  11.309  0.3670  0.8396 -0.2767
 8549TIP3    H149842   3.607   2.630  11.216  3.4428  1.6984 -1.1879
 8549TIP3    H249843   3.619   2.728  11.331  0.8846  0.8593 -0.1127
 8550TIP3   OH249844   2.282   3.671  18.488 -0.3222  0.0808 -0.8415
 8550TIP3    H149845   2.195   3.686  18.526 -0.8560  0.4252 -2.1382
 8550TIP3    H249846   2.316   3.759  18.470  0.4090 -0.0441 -0.1318
 8551TIP3   OH249847   0.852   0.317  11.652 -0.0688  0.0541 -0.1416
 8551TIP3    H149848   0.777   0.282  11.698 -0.4696 -0.2404 -1.0098
 8551TIP3    H249849   0.862   0.406  11.687 -0.4289 -0.1272  0.4284
 8552TIP3   OH249850   6.469   3.870  10.171 -0.1259  0.6875  0.0449
 8552TIP3    H149851   6.510   3.926  10.104  1.6255  0.3810  0.7944
 8552TIP3    H249852   6.468   3.923  10.250 -0.2254  0.3232  0.2915
 8553TIP3   OH249853   7.027   6.605  13.415  0.3496 -0.0763  0.3371
 8553TIP3    H149854   6.947   6.577  13.460 -1.2641  1.0083 -1.6760
 8553TIP3    H249855   7.072   6.524  13.392 -0.0244 -0.6948  1.7188
 8554TIP3   OH249856   3.674   1.562  10.762 -0.1257  0.1906 -0.3952
 8554TIP3    H149857   3.733   1.574  10.836  1.3814 -1.4646 -1.2661
 8554TIP3    H249858   3.699   1.631  10.700 -0.1157  0.4088 -0.1496
 8555TIP3   OH249859   2.077   0.706  13.308 -0.3760  0.2855 -0.1259
 8555TIP3    H149860   2.051   0.614  13.305  0.0724 -0.0262  2.7419
 8555TIP3    H249861   1.999   0.752  13.339 -0.2168  0.6942 -0.3236
 8556TIP3   OH249862   2.490   2.757  11.697 -0.1126  0.3462 -0.1510
 8556TIP3    H149863   2.408   2.714  11.721  0.0489 -0.7742 -1.4435
 8556TIP3    H249864   2.469   2.809  11.620  0.2598  0.5369 -0.1290
 8557TIP3   OH249865   2.093   0.343  11.613  0.7521  0.2779 -0.5769
 8557TIP3    H149866   2.049   0.425  11.637  1.4597  0.3411  0.5865
 8557TIP3    H249867   2.186   0.364  11.614  0.9182 -0.4179 -0.7749
 8558TIP3   OH249868   0.824   7.502  11.736 -0.8358 -0.1618  0.7707
 8558TIP3    H149869   0.903   7.448  11.732 -0.0365  1.0277 -1.1996
 8558TIP3    H249870   0.764   7.460  11.674 -1.0770 -0.0402  0.9216
 8559TIP3   OH249871   4.396   1.938  11.925  0.4603 -0.9933  0.4108
 8559TIP3    H149872   4.451   2.015  11.910  0.8159 -1.3485 -0.1295
 8559TIP3    H249873   4.427   1.873  11.863  0.6908 -1.8589  1.4014
 8560TIP3   OH249874   2.381   2.235  11.427 -0.3005  0.1860  0.0773
 8560TIP3    H149875   2.362   2.329  11.423 -0.2364  0.1857 -0.3072
 8560TIP3    H249876   2.295   2.193  11.420 -0.2637  0.2043 -0.5924
 8561TIP3   OH249877   4.554   2.478  11.631  0.0109  0.0578 -0.1831
 8561TIP3    H149878   4.602   2.561  11.623  1.3371 -0.7393 -0.8638
 8561TIP3    H249879   4.465   2.504  11.655  1.1501  1.5285  3.0047
 8562TIP3   OH249880   6.440   5.625  17.142  0.1914  0.0765 -0.1522
 8562TIP3    H149881   6.451   5.530  17.137 -2.1475 -0.3326  0.8365
 8562TIP3    H249882   6.383   5.646  17.068  1.6450  0.9361 -1.0660
 8563TIP3   OH249883   1.714   6.862  12.830 -0.0529 -0.1483 -0.3918
 8563TIP3    H149884   1.684   6.950  12.854  0.9941  0.0028  0.4081
 8563TIP3    H249885   1.787   6.877  12.770 -2.6929 -0.5183 -4.0188
 8564TIP3   OH249886   5.819   5.055  10.623  0.0217 -0.3334  0.0522
 8564TIP3    H149887   5.829   4.973  10.670  0.1661 -0.2592  0.1510
 8564TIP3    H249888   5.752   5.103  10.672  0.6597  0.0326  0.5844
 8565TIP3   OH249889   6.130   3.268  10.457  0.1329 -0.2949  0.4045
 8565TIP3    H149890   6.120   3.287  10.364  0.0786  0.8221  0.6332
 8565TIP3    H249891   6.211   3.313  10.482 -0.3411  0.1778  1.1008
 8566TIP3   OH249892   0.986   3.496  11.137  0.3003  0.1132  0.0360
 8566TIP3    H149893   0.929   3.504  11.214 -0.3839 -0.9702 -0.3224
 8566TIP3    H249894   0.947   3.554  11.072 -0.3692 -0.5625 -0.1795
 8567TIP3   OH249895   5.998   1.690  12.490  0.7496 -0.5493 -0.0483
 8567TIP3    H149896   6.045   1.662  12.412 -0.3719 -0.2354 -0.8660
 8567TIP3    H249897   5.935   1.619  12.506 -0.3800  0.2907 -0.6307
 8568TIP3   OH249898   2.930   5.979  11.788  0.5948 -0.3357 -0.7272
 8568TIP3    H149899   3.013   5.932  11.794 -0.1423 -1.5010  1.1696
 8568TIP3    H249900   2.863   5.911  11.789 -0.4405  0.6509 -0.3196
 8569TIP3   OH249901   7.337   0.146  11.855 -0.2811  0.0594  0.4245
 8569TIP3    H149902   7.366   0.220  11.803 -2.5498  0.5165 -0.3125
 8569TIP3    H249903   7.268   0.105  11.803  0.5826 -2.3377  1.0104
 8570TIP3   OH249904   4.157   1.673  13.008  0.4938  0.7108 -0.1732
 8570TIP3    H149905   4.178   1.644  12.919 -1.3889  0.2672 -0.5149
 8570TIP3    H249906   4.235   1.650  13.059  0.4775 -1.8457 -1.1136
 8571TIP3   OH249907   6.549   7.504  11.737  0.2956  0.4816 -0.1455
 8571TIP3    H149908   6.617   7.436  11.733  0.6300  0.8064 -0.0794
 8571TIP3    H249909   6.558   7.551  11.654 -1.1663 -0.7030 -1.0195
 8572TIP3   OH249910   0.180   2.669  12.056 -0.3702  0.1432 -0.0116
 8572TIP3    H149911   0.231   2.611  12.112 -1.6224 -0.0411  0.9929
 8572TIP3    H249912   0.094   2.673  12.097 -1.2776  0.2071 -1.8066
 8573TIP3   OH249913   6.878   4.811  11.927  0.0430 -0.1109  0.0554
 8573TIP3    H149914   6.885   4.811  11.831 -1.1564 -0.4462 -0.0587
 8573TIP3    H249915   6.837   4.895  11.948  0.5618  0.0814  0.3028
 8574TIP3   OH249916   1.117   1.545  12.589  0.6192 -0.5220  0.1761
 8574TIP3    H149917   1.060   1.497  12.529 -1.6286  0.8589  1.0761
 8574TIP3    H249918   1.071   1.543  12.673  2.0581  0.4136  1.0320
 8575TIP3   OH249919   1.156   4.494  12.446 -0.2638 -0.0640  0.2738
 8575TIP3    H149920   1.147   4.502  12.540  1.0061 -2.0706  0.6372
 8575TIP3    H249921   1.231   4.549  12.424  0.9026 -1.3718  0.8349
 8576TIP3   OH249922   5.612   1.226  11.235 -0.3259 -0.3458 -0.0859
 8576TIP3    H149923   5.624   1.148  11.180 -0.2481 -0.0068 -0.5532
 8576TIP3    H249924   5.519   1.246  11.228 -0.0593  0.5609 -1.2841
 8577TIP3   OH249925   7.089   0.477  11.312 -0.0309 -0.4235 -0.8494
 8577TIP3    H149926   7.125   0.490  11.400 -0.5174  0.5023 -0.7647
 8577TIP3    H249927   7.089   0.383  11.299 -0.0931 -0.5818  0.2124
 8578TIP3   OH249928   6.640   7.581  12.238  0.2364 -0.0088  0.2569
 8578TIP3    H149929   6.663   7.634  12.161  0.9772  0.9943  1.1267
 8578TIP3    H249930   6.672   7.493  12.217  1.5793  0.5356 -0.0958
 8579TIP3   OH249931   1.814   3.108  12.866  0.9378  0.2543 -0.2501
 8579TIP3    H149932   1.800   3.171  12.796  1.2558 -2.2646 -2.7449
 8579TIP3    H249933   1.891   3.142  12.912  0.5433  2.1381 -0.8619
 8580TIP3   OH249934   1.575   1.977  11.009 -0.7988  0.2301 -0.1972
 8580TIP3    H149935   1.529   2.048  11.054  0.5077  0.2430  1.1964
 8580TIP3    H249936   1.648   1.955  11.067  0.1773 -0.6797 -1.7020
 8581TIP3   OH249937   4.243   7.591  11.115 -0.3953 -0.1113  0.2369
 8581TIP3    H149938   4.318   7.531  11.121 -1.6475 -1.6255  2.0231
 8581TIP3    H249939   4.199   7.566  11.034  0.3143 -0.0808 -0.1676
 8582TIP3   OH249940   0.617   0.022  12.019 -0.0487  0.2211  0.0183
 8582TIP3    H149941   0.712   0.014  12.020 -0.1678 -1.8285  1.3905
 8582TIP3    H249942   0.589  -0.029  11.944 -0.1061  0.0436  0.1595
 8583TIP3   OH249943   5.720   6.119  11.742 -0.5051 -0.7700 -0.0056
 8583TIP3    H149944   5.747   6.116  11.650 -0.5152 -0.4221 -0.0233
 8583TIP3    H249945   5.697   6.029  11.763 -1.2333 -0.7207 -0.5592
 8584TIP3   OH249946   0.114   2.029  12.190 -0.0736  0.0827  0.1354
 8584TIP3    H149947   0.170   2.039  12.267  0.0217 -0.6439  0.1639
 8584TIP3    H249948   0.164   1.972  12.132 -0.4798  0.0129 -0.1457
 8585TIP3   OH249949   1.770   5.754  13.091 -0.5188  0.2140  0.4274
 8585TIP3    H149950   1.683   5.716  13.102  0.5093 -2.5265 -0.2717
 8585TIP3    H249951   1.801   5.720  13.007  0.5705  2.6121 -0.2292
 8586TIP3   OH249952   6.140   4.421  10.479 -0.0845  0.0150 -0.3471
 8586TIP3    H149953   6.201   4.388  10.412  0.8036 -1.7601  1.2225
 8586TIP3    H249954   6.053   4.408  10.441  0.3884 -1.1074 -1.1024
 8587TIP3   OH249955   3.106   0.729  10.899 -0.3257  0.3328  0.3306
 8587TIP3    H149956   3.122   0.794  10.830 -0.1726  0.3915  0.4222
 8587TIP3    H249957   3.112   0.778  10.980 -0.8616  0.3333  0.3714
 8588TIP3   OH249958   5.850   5.409  12.063 -0.0416 -1.0553  0.0943
 8588TIP3    H149959   5.900   5.327  12.061  0.8314 -0.5435  0.3768
 8588TIP3    H249960   5.840   5.432  11.971 -0.9548 -1.8624 -0.0246
 8589TIP3   OH249961   3.503   4.297  11.067 -0.0947 -0.0078  0.0700
 8589TIP3    H149962   3.544   4.217  11.100 -0.7153 -0.3725 -0.0195
 8589TIP3    H249963   3.519   4.362  11.135  0.4830 -0.1836  0.1097
 8590TIP3   OH249964   3.599   2.365  11.534 -0.1119 -0.3686  0.2470
 8590TIP3    H149965   3.570   2.349  11.624  1.7513  1.8926  1.3638
 8590TIP3    H249966   3.594   2.460  11.524  2.0714 -0.3386 -1.1723
 8591TIP3   OH249967   7.569   2.930  12.496  0.4223  0.1470 -0.2772
 8591TIP3    H149968   7.599   2.842  12.475 -1.9689 -0.7798 -0.1261
 8591TIP3    H249969   7.496   2.946  12.436 -0.2261  1.3710  0.7671
 8592TIP3   OH249970   5.977   2.795  10.484 -0.2531 -0.0594  0.6133
 8592TIP3    H149971   6.053   2.846  10.456 -0.2900  0.7730  1.9554
 8592TIP3    H249972   6.013   2.732  10.547 -0.0275 -2.4663 -1.7513
 8593TIP3   OH249973   3.477   0.414  10.910 -0.2945  0.7678 -0.4751
 8593TIP3    H149974   3.478   0.393  10.816 -1.6487 -1.1017 -0.1323
 8593TIP3    H249975   3.387   0.442  10.927 -1.1418 -2.3297  0.8515
 8594TIP3   OH249976   2.754   7.381  11.035  0.1994 -0.4773  0.2599
 8594TIP3    H149977   2.797   7.461  11.062 -0.1893 -0.0041 -0.4871
 8594TIP3    H249978   2.789   7.313  11.093 -0.1987  0.3946  1.5551
 8595TIP3   OH249979   7.103   3.095  12.904  0.1335  0.3412 -0.2962
 8595TIP3    H149980   7.050   3.016  12.898  0.5632  0.0954 -1.1532
 8595TIP3    H249981   7.161   3.080  12.979  0.0154 -0.0301 -0.2792
 8596TIP3   OH249982   1.178   4.253  10.737 -0.3699 -0.2618  0.6896
 8596TIP3    H149983   1.227   4.308  10.798 -1.4415  2.0324 -0.3789
 8596TIP3    H249984   1.087   4.261  10.767 -0.9734  1.2009 -1.2965
 8597TIP3   OH249985   3.618   6.286  13.385  0.1751  0.0073 -0.5189
 8597TIP3    H149986   3.592   6.197  13.362 -0.5601 -0.3496  1.5177
 8597TIP3    H249987   3.542   6.323  13.429  1.8508  0.1011  2.5856
 8598TIP3   OH249988   5.750   3.829  12.019 -0.4027 -0.2786  0.1646
 8598TIP3    H149989   5.701   3.747  12.019 -0.8507 -0.0575 -1.3261
 8598TIP3    H249990   5.831   3.810  12.066 -0.0201 -1.8886 -1.0798
 8599TIP3   OH249991   6.745   3.833  11.236 -0.1947 -0.0850 -0.3329
 8599TIP3    H149992   6.704   3.762  11.187 -1.2388  0.6203 -0.5063
 8599TIP3    H249993   6.754   3.798  11.325 -2.4913  0.2240  0.0660
 8600TIP3   OH249994   5.279   6.253  12.289 -0.3585  0.6656 -0.3472
 8600TIP3    H149995   5.203   6.231  12.343 -0.1769  0.2296 -0.2642
 8600TIP3    H249996   5.352   6.205  12.328 -0.0511  1.0178 -0.4727
 8601TIP3   OH249997   6.876   0.253  12.558  0.3568 -0.1038 -0.1355
 8601TIP3    H149998   6.878   0.293  12.644  0.9566  0.6438 -0.4908
 8601TIP3    H249999   6.884   0.159  12.575  1.1165  0.0862  0.5865
 8602TIP3   OH250000   0.472   3.638  12.808 -0.3225 -0.7009  0.4098
 8602TIP3    H150001   0.470   3.607  12.898 -0.2635  0.9516  1.0078
 8602TIP3    H250002   0.380   3.645  12.782 -0.4022  0.5421  0.9785
 8603TIP3   OH250003   5.828   1.387  11.955 -0.0871  0.4045  0.5201
 8603TIP3    H150004   5.832   1.454  11.887 -1.2861 -0.8735 -0.8907
 8603TIP3    H250005   5.841   1.304  11.909 -1.6850 -0.5784  1.6961
 8604TIP3   OH250006   6.575   6.541  10.955 -0.3942  0.0059 -0.3330
 8604TIP3    H150007   6.510   6.609  10.940 -1.0536  0.1393  2.5805
 8604TIP3    H250008   6.610   6.559  11.042  2.5106 -0.9519 -1.1927
 8605TIP3   OH250009   4.972   0.095  12.057  0.2914  0.3594 -0.8108
 8605TIP3    H150010   4.905   0.048  12.007 -0.5977  0.0253  0.6013
 8605TIP3    H250011   4.922   0.154  12.113  1.2192  0.5773 -0.1933
 8606TIP3   OH250012   4.138   7.121  10.431 -0.2077 -0.2919  0.3713
 8606TIP3    H150013   4.123   7.064  10.507  0.2909 -1.1421 -0.1524
 8606TIP3    H250014   4.138   7.061  10.356 -0.2477  0.4825 -0.2557
 8607TIP3   OH250015   0.851   3.729  11.724 -0.0570 -0.5360 -0.0693
 8607TIP3    H150016   0.847   3.783  11.803 -0.7234 -2.9774  1.6675
 8607TIP3    H250017   0.816   3.785  11.655  1.1221  1.8966  1.1985
 8608TIP3   OH250018   4.785   4.097  10.819  0.8192  0.4786 -0.5371
 8608TIP3    H150019   4.762   4.018  10.770 -3.8886  0.2869  1.4856
 8608TIP3    H250020   4.788   4.166  10.752  0.3600 -0.6644 -1.7816
 8609TIP3   OH250021   3.799   1.027  11.191 -0.7282  0.2073  0.2208
 8609TIP3    H150022   3.727   0.968  11.169  0.0465  0.2503 -2.9302
 8609TIP3    H250023   3.874   0.970  11.206 -1.0222  0.2374  1.9808
 8610TIP3   OH250024   6.845   3.332  10.307  0.0820  0.0311 -0.5820
 8610TIP3    H150025   6.903   3.260  10.331 -1.0923 -0.3478  1.2605
 8610TIP3    H250026   6.887   3.410  10.344  0.0368 -0.0668 -0.3263
 8611TIP3   OH250027   3.618   6.554  11.439  0.2863  0.2490 -0.0959
 8611TIP3    H150028   3.697   6.547  11.385 -1.2910 -0.9897 -2.3913
 8611TIP3    H250029   3.581   6.466  11.439 -0.6295  0.6006  1.7173
 8612TIP3   OH250030   0.380   5.769  13.199  0.1381  0.4460 -0.1172
 8612TIP3    H150031   0.335   5.845  13.162  1.7055  0.1025 -3.0134
 8612TIP3    H250032   0.370   5.700  13.134  0.3701 -1.2739  1.5793
 8613TIP3   OH250033   2.323   5.518  10.624  0.4020 -0.1615  0.3229
 8613TIP3    H150034   2.401   5.476  10.660  0.1845 -0.3398  0.5879
 8613TIP3    H250035   2.336   5.611  10.639 -0.3197 -0.3189  2.1429
 8614TIP3   OH250036   0.653   5.028  13.093 -1.0104 -0.5453 -0.1163
 8614TIP3    H150037   0.714   5.057  13.026 -0.4791  0.5273  0.8002
 8614TIP3    H250038   0.649   4.933  13.083 -0.0640 -0.5098 -0.9163
 8615TIP3   OH250039   3.979   7.360  11.134 -0.0210 -0.2588 -0.4516
 8615TIP3    H150040   4.002   7.408  11.055  0.3275 -0.7642 -0.6653
 8615TIP3    H250041   4.022   7.275  11.123  1.3613  0.2016  0.9857
 8616TIP3   OH250042   2.997   0.401  11.434  0.3850 -0.6210 -0.2420
 8616TIP3    H150043   3.015   0.486  11.396 -1.7771 -0.0604 -0.1599
 8616TIP3    H250044   2.902   0.389  11.422 -0.3873 -0.7214  4.2002
 8617TIP3   OH250045   0.038   4.016  11.187 -0.0573 -0.1824  0.0136
 8617TIP3    H150046   0.000   3.999  11.274 -1.4404  0.3668 -0.4466
 8617TIP3    H250047   0.034   3.931  11.142 -1.4476  0.0110 -0.2677
 8618TIP3   OH250048   0.624   6.621  11.458 -0.2932  0.3168 -0.1906
 8618TIP3    H150049   0.588   6.534  11.476  0.9842 -0.5734 -1.6905
 8618TIP3    H250050   0.703   6.604  11.406  0.0538  2.3765 -0.4141
 8619TIP3   OH250051   2.798   7.274  11.620  0.5218 -0.1164  0.0128
 8619TIP3    H150052   2.771   7.264  11.529  1.8498  0.9108 -0.5005
 8619TIP3    H250053   2.889   7.301  11.616  0.4068  0.6017  1.6378
 8620TIP3   OH250054   1.608   4.585  12.412 -0.4151 -0.5071  0.2924
 8620TIP3    H150055   1.626   4.523  12.342 -0.2226 -0.0417 -0.0789
 8620TIP3    H250056   1.514   4.598  12.410 -0.1483  1.6892 -1.8052
 8621TIP3   OH250057   5.189   6.176  10.892  0.3491  0.0349 -0.7441
 8621TIP3    H150058   5.125   6.119  10.849  1.1122 -0.2438 -1.5475
 8621TIP3    H250059   5.194   6.254  10.836 -1.2554  1.2798  0.7529
 8622TIP3   OH250060   3.351   5.956  11.604  0.4986  0.1531  0.0063
 8622TIP3    H150061   3.372   5.862  11.614  1.8984  0.5364  1.1040
 8622TIP3    H250062   3.359   5.972  11.510  0.8525 -0.7086 -0.1287
 8623TIP3   OH250063   4.366   6.950  13.265  0.2185 -0.2547 -0.1245
 8623TIP3    H150064   4.301   6.985  13.204  1.1531  0.6622 -0.6427
 8623TIP3    H250065   4.368   7.013  13.337  2.7286  1.5325 -1.5999
 8624TIP3   OH250066   7.121   5.389  13.143  0.2815 -0.3705  0.0710
 8624TIP3    H150067   7.055   5.365  13.078 -1.0845  1.0560  0.8543
 8624TIP3    H250068   7.145   5.479  13.119  1.1574 -0.4965  0.4483
 8625TIP3   OH250069   1.947   3.498  11.997 -0.0940  0.6721 -0.1723
 8625TIP3    H150070   1.911   3.586  11.986  1.8538  1.3783 -1.2625
 8625TIP3    H250071   1.912   3.469  12.081 -2.2814  1.7034 -0.6548
 8626TIP3   OH250072   4.776   1.105  11.335 -0.2541 -0.4767 -0.1661
 8626TIP3    H150073   4.718   1.043  11.290  0.6614 -0.4049 -1.5252
 8626TIP3    H250074   4.731   1.189  11.329 -0.1514 -0.4684 -1.0000
 8627TIP3   OH250075   4.927   5.870  11.732  0.2242  0.6946  0.1277
 8627TIP3    H150076   4.884   5.954  11.746  2.8979  2.1413  0.2362
 8627TIP3    H250077   4.969   5.878  11.647 -0.9030 -1.2378 -0.6618
 8628TIP3   OH250078   1.914   0.481  12.197  0.0847  0.0497 -0.0473
 8628TIP3    H150079   1.869   0.562  12.221 -1.0329 -0.6616  0.2993
 8628TIP3    H250080   1.986   0.475  12.260  1.0378  1.4488 -0.9209
 8629TIP3   OH250081   7.630   2.778  10.846 -0.0229 -0.1366  0.2528
 8629TIP3    H150082   7.567   2.706  10.845  0.4676 -0.5833  0.7492
 8629TIP3    H250083   7.659   2.782  10.937  1.0237 -0.2510 -0.0693
 8630TIP3   OH250084   1.974   3.607  11.109  0.3041 -0.3948 -0.1886
 8630TIP3    H150085   1.936   3.615  11.197  2.9793  0.9727  0.9459
 8630TIP3    H250086   1.924   3.670  11.057  0.1686  0.4726  0.9357
 8631TIP3   OH250087   7.644   4.796  11.708  0.0640 -0.1971  0.4771
 8631TIP3    H150088   7.588   4.873  11.723  0.6048  0.3208 -0.0730
 8631TIP3    H250089   7.685   4.779  11.792 -0.0156  0.1567  0.5895
 8632TIP3   OH250090   6.389   2.021  11.327 -0.1259 -0.6288 -0.1650
 8632TIP3    H150091   6.341   1.939  11.338  2.3565 -2.3186 -1.0327
 8632TIP3    H250092   6.372   2.047  11.237 -0.4757 -0.5056 -0.0616
 8633TIP3   OH250093   0.236   4.093  11.893 -0.0931  0.2416  0.1936
 8633TIP3    H150094   0.211   4.185  11.881 -0.8868  0.1189  0.8762
 8633TIP3    H250095   0.190   4.065  11.972  0.4415 -0.6412  0.2084
 8634TIP3   OH250096   4.804   5.166  10.975  0.1003 -0.5030 -0.0971
 8634TIP3    H150097   4.784   5.123  11.058  0.7687 -0.6614 -0.0085
 8634TIP3    H250098   4.847   5.098  10.922 -1.4706 -0.7894 -1.0820
 8635TIP3   OH250099   0.891   0.814  12.373  0.0684 -0.6579 -0.2835
 8635TIP3    H150100   0.978   0.836  12.341  0.2929 -0.3691  0.5084
 8635TIP3    H250101   0.835   0.886  12.343  0.5023  0.2340  0.9532
 8636TIP3   OH250102   7.431   4.238  11.140 -0.1305 -0.1841 -0.1188
 8636TIP3    H150103   7.503   4.300  11.126  0.4226 -1.3488 -3.2724
 8636TIP3    H250104   7.357   4.293  11.165  1.8135  1.0212  3.7453
 8637TIP3   OH250105   6.041   2.920  11.633  0.0082  0.2816 -0.2020
 8637TIP3    H150106   5.978   2.889  11.698  0.5720  0.8466  0.6324
 8637TIP3    H250107   5.988   2.943  11.557 -0.7789  0.6643  0.4554
 8638TIP3   OH250108   2.779   4.011  12.942 -0.1249 -0.3789 -0.3833
 8638TIP3    H150109   2.753   4.084  12.886  0.3387  0.2304  0.1884
 8638TIP3    H250110   2.707   3.949  12.935 -1.2639  0.8203  0.3593
 8639TIP3   OH250111   6.100   6.418  11.703 -0.1976 -0.1021 -0.0997
 8639TIP3    H150112   6.031   6.464  11.655 -1.4643 -3.0504 -1.3574
 8639TIP3    H250113   6.182   6.456  11.671 -1.1474  1.8723 -0.3065
 8640TIP3   OH250114   7.191   0.159  12.886  0.4664 -0.6500 -0.3873
 8640TIP3    H150115   7.138   0.199  12.955 -0.0951 -1.0226 -0.6011
 8640TIP3    H250116   7.216   0.074  12.921  0.0822 -0.8883 -0.6855
 8641TIP3   OH250117   3.387   3.781  12.027  0.1160  0.1847 -0.4865
 8641TIP3    H150118   3.365   3.873  12.011  0.0522  0.5134  1.2374
 8641TIP3    H250119   3.481   3.781  12.040 -0.1080  0.4044  1.5405
 8642TIP3   OH250120   4.418   5.093  10.587 -0.7261  0.0271  1.6730
 8642TIP3    H150121   4.404   5.121  10.678 -0.9444 -0.4254  1.7803
 8642TIP3    H250122   4.469   5.012  10.595 -0.7445 -0.0116  1.3914
 8643TIP3   OH250123   7.059   1.776  11.526 -0.1188  0.4508 -0.0995
 8643TIP3    H150124   6.999   1.704  11.507  0.8707 -1.3085  2.8243
 8643TIP3    H250125   7.003   1.853  11.529 -1.3699 -0.2577 -2.3771
 8644TIP3   OH250126   0.821   4.208  11.110  0.2260 -0.3621 -0.1610
 8644TIP3    H150127   0.768   4.199  11.031  0.4489  0.1119 -0.3670
 8644TIP3    H250128   0.910   4.219  11.078  0.5001 -1.4806  0.1924
 8645TIP3   OH250129   2.166   4.954  11.836  0.4589  0.0968 -0.9309
 8645TIP3    H150130   2.225   4.991  11.771 -0.6637 -0.1042 -2.0986
 8645TIP3    H250131   2.097   4.912  11.785 -1.1837  1.0927  0.3661
 8646TIP3   OH250132   5.563   3.030  12.677 -0.0952  0.2988 -0.0154
 8646TIP3    H150133   5.598   3.111  12.716  1.8633 -0.9873  1.0594
 8646TIP3    H250134   5.481   3.015  12.724  0.7641  0.3698  1.5801
 8647TIP3   OH250135   5.561   2.332  10.873  0.2280  0.8400 -0.2684
 8647TIP3    H150136   5.599   2.269  10.811  2.1323  1.0779  0.5706
 8647TIP3    H250137   5.467   2.314  10.871  0.5421 -1.0152 -1.1675
 8648TIP3   OH250138   5.095   2.084  10.937  0.1792  0.5369 -0.1317
 8648TIP3    H150139   5.133   2.016  10.993  0.4107  1.2615  0.6043
 8648TIP3    H250140   5.018   2.042  10.899 -0.3374  0.2032  1.2146
 8649TIP3   OH250141   5.720   6.985  11.466  0.1150  0.2247 -0.2828
 8649TIP3    H150142   5.647   6.950  11.517  0.2638 -0.9226 -0.8312
 8649TIP3    H250143   5.797   6.939  11.500  0.4675  0.7920 -0.3029
 8650TIP3   OH250144   2.741   4.483  12.257 -0.4245  0.5633  0.0816
 8650TIP3    H150145   2.651   4.486  12.224 -0.6374 -0.0405  0.5954
 8650TIP3    H250146   2.749   4.563  12.311 -1.3187 -0.3639  1.6808
 8651TIP3   OH250147   2.879   0.069  11.987 -0.1772 -0.2666  0.4431
 8651TIP3    H150148   2.968   0.100  11.971 -0.6665  1.2916  0.5669
 8651TIP3    H250149   2.889  -0.024  12.005  1.3442 -0.2630 -0.2263
 8652TIP3   OH250150   6.174   7.008  10.410 -0.2233 -0.5418  0.6679
 8652TIP3    H150151   6.169   6.949  10.334 -1.5304 -0.6365  0.7911
 8652TIP3    H250152   6.254   6.983  10.455 -0.6494 -2.1272  0.6164
 8653TIP3   OH250153   7.474   2.977  11.884 -0.1574  0.2605  0.3689
 8653TIP3    H150154   7.431   2.894  11.908  1.8233 -0.9490 -0.0182
 8653TIP3    H250155   7.438   2.999  11.798 -1.2840  0.2333  0.8265
 8654TIP3   OH250156   3.259   5.161  11.445  0.0239  0.1031  0.5101
 8654TIP3    H150157   3.231   5.190  11.532 -0.3252 -0.2841  0.5332
 8654TIP3    H250158   3.342   5.117  11.461  0.7173  1.3433  0.4291
 8655TIP3   OH250159   4.074   6.944  10.628  0.0616  0.2373 -0.0462
 8655TIP3    H150160   4.042   7.018  10.678  2.0026  0.7171  0.5822
 8655TIP3    H250161   4.124   6.892  10.691  0.0060 -0.7904 -0.8207
 8656TIP3   OH250162   3.073   0.041  12.470 -0.2301  0.4441  0.1989
 8656TIP3    H150163   3.079   0.117  12.412  0.5445  0.0869 -0.1957
 8656TIP3    H250164   2.985   0.007  12.455 -0.6084  1.3033  0.4314
 8657TIP3   OH250165   1.970   6.281  11.929 -0.1636  0.2908  0.2132
 8657TIP3    H150166   1.931   6.238  11.853 -1.6057  3.5892 -1.1127
 8657TIP3    H250167   1.907   6.265  12.000 -0.5742  0.0625 -0.1953
 8658TIP3   OH250168   6.749   2.972  12.069  0.5106  0.1016  0.2381
 8658TIP3    H150169   6.730   3.063  12.043 -0.8989 -0.2874 -0.1941
 8658TIP3    H250170   6.718   2.966  12.159  0.1715 -0.0659  0.1125
 8659TIP3   OH250171   0.163   5.332  11.956 -0.3694  0.3736 -0.5259
 8659TIP3    H150172   0.149   5.414  12.004  0.0985 -0.6054  1.3649
 8659TIP3    H250173   0.257   5.316  11.963 -0.6178 -0.8815  0.0957
 8660TIP3   OH250174   4.584   6.895  12.892  0.4366  0.2666  0.9310
 8660TIP3    H150175   4.650   6.872  12.958  0.0801 -0.8321  0.9293
 8660TIP3    H250176   4.535   6.813  12.878 -1.2520  1.1635  1.3098
 8661TIP3   OH250177   4.866   5.465  10.269  0.4054  0.6425 -0.6736
 8661TIP3    H150178   4.794   5.489  10.326  0.1427  0.7543 -1.0470
 8661TIP3    H250179   4.857   5.523  10.193  0.7194  0.4649 -0.8512
 8662TIP3   OH250180   3.138   0.067  10.524  0.2766  0.1897  0.0823
 8662TIP3    H150181   3.114  -0.007  10.468  0.4455  0.3474 -0.1968
 8662TIP3    H250182   3.233   0.063  10.529  0.2507  0.0454  0.5390
 8663TIP3   OH250183   1.068   4.816  11.889 -0.0182 -0.2633 -0.0181
 8663TIP3    H150184   1.137   4.765  11.847  0.0352 -1.3735  1.3314
 8663TIP3    H250185   1.076   4.903  11.851  1.9439 -0.4310 -0.0931
 8664TIP3   OH250186   3.324   6.311  11.379  0.8412 -0.2923  0.3720
 8664TIP3    H150187   3.233   6.313  11.350  1.3575 -0.2825 -1.3368
 8664TIP3    H250188   3.365   6.387  11.337  1.8276 -0.7818  0.4183
 8665TIP3   OH250189   3.085   1.337  11.148 -0.1435 -0.8802 -0.6893
 8665TIP3    H150190   3.055   1.296  11.229 -1.9483  1.1113 -0.2612
 8665TIP3    H250191   3.169   1.377  11.170 -1.1474  0.6140  0.5746
 8666TIP3   OH250192   0.513   1.442  11.846  0.2449  0.6164 -0.5268
 8666TIP3    H150193   0.595   1.491  11.849  1.6400 -1.6201  0.7430
 8666TIP3    H250194   0.523   1.384  11.770  0.2757 -0.3250  0.1848
 8667TIP3   OH250195   6.889   3.480  12.113 -0.2528  0.2747  0.2088
 8667TIP3    H150196   6.882   3.534  12.192 -1.0465 -0.8542  0.9389
 8667TIP3    H250197   6.841   3.529  12.046 -2.4086 -0.2808  1.2917
 8668TIP3   OH250198   3.549   6.629  10.798  0.0146 -0.1130 -0.2010
 8668TIP3    H150199   3.498   6.665  10.725 -0.3541  1.3707  0.7269
 8668TIP3    H250200   3.639   6.655  10.780 -0.4436  3.0913  1.3238
 8669TIP3   OH250201   2.284   4.033  13.326  0.1931  0.1856  0.5151
 8669TIP3    H150202   2.272   4.100  13.393  1.1390  1.7686 -0.8465
 8669TIP3    H250203   2.198   3.990  13.319 -0.2040  0.6924  1.9570
 8670TIP3   OH250204   3.358   5.409  11.036  0.5280  0.3893 -0.2894
 8670TIP3    H150205   3.400   5.366  10.962  0.4823 -0.0868 -0.0383
 8670TIP3    H250206   3.307   5.480  10.996  1.0470  0.5666 -0.6539
 8671TIP3   OH250207   3.024   7.300  11.266 -0.2206  0.6446 -0.2395
 8671TIP3    H150208   2.955   7.348  11.312 -0.9335 -0.2738 -0.3215
 8671TIP3    H250209   3.094   7.365  11.254 -1.7546  2.1511 -1.7689
 8672TIP3   OH250210   2.496   6.051  10.601 -0.2410 -0.0682 -0.4461
 8672TIP3    H150211   2.539   6.012  10.676 -0.7453 -0.9758 -0.6135
 8672TIP3    H250212   2.549   6.128  10.580 -0.2337  0.3370  0.9721
 8673TIP3   OH250213   0.469   4.410  12.787  0.8289 -0.1155  0.1242
 8673TIP3    H150214   0.562   4.410  12.809  1.0644 -0.1435 -0.8289
 8673TIP3    H250215   0.426   4.440  12.867  1.5366 -1.4071  1.0381
 8674TIP3   OH250216   3.333   6.333  13.472  0.3398 -0.1229  0.0011
 8674TIP3    H150217   3.313   6.359  13.562  1.1834  0.2239  0.1076
 8674TIP3    H250218   3.284   6.252  13.458  0.1758 -0.1632  0.7625
 8675TIP3   OH250219   3.937   2.964  12.420  0.2649  0.4461 -0.0614
 8675TIP3    H150220   3.955   3.009  12.338 -0.9794  1.1601  0.0239
 8675TIP3    H250221   3.855   3.003  12.451  0.9856  0.6084  1.8097
 8676TIP3   OH250222   6.569   1.545  12.331  0.3354 -0.1810  0.6258
 8676TIP3    H150223   6.627   1.484  12.377  0.0795 -2.2504 -1.6285
 8676TIP3    H250224   6.481   1.514  12.350  0.1711 -0.0461  0.1080
 8677TIP3   OH250225   3.406   3.144  11.436  0.1449  0.2714 -0.2100
 8677TIP3    H150226   3.410   3.175  11.346 -0.0300  0.2057 -0.2414
 8677TIP3    H250227   3.319   3.171  11.467 -0.0270 -0.2209 -0.2521
 8678TIP3   OH250228   3.525   1.275  12.811  0.3285 -0.1752  0.7515
 8678TIP3    H150229   3.457   1.251  12.873  1.0011  1.8117  2.3908
 8678TIP3    H250230   3.596   1.213  12.827 -0.3859 -1.1276  0.3004
 8679TIP3   OH250231   0.935   6.231  12.731  0.1333 -0.5150  0.1709
 8679TIP3    H150232   0.975   6.290  12.796 -0.2801  0.2763 -0.2718
 8679TIP3    H250233   0.996   6.158  12.725  1.0590  0.2253  0.1921
 8680TIP3   OH250234   0.708   6.237  11.922  0.0676  0.2207 -0.2293
 8680TIP3    H150235   0.751   6.320  11.900 -0.5060  0.4553 -0.4870
 8680TIP3    H250236   0.750   6.173  11.866  0.2951  0.3929 -0.2587
 8681TIP3   OH250237   5.116   2.922  11.934  0.4167 -0.1313  0.7187
 8681TIP3    H150238   5.138   2.881  11.850 -1.3527  0.8235 -0.2672
 8681TIP3    H250239   5.042   2.872  11.967 -0.2487  0.8023  0.6633
 8682TIP3   OH250240   6.248   6.123  11.703 -0.0713 -0.2614 -0.2216
 8682TIP3    H150241   6.332   6.126  11.748 -0.7708  1.5359  1.0681
 8682TIP3    H250242   6.240   6.208  11.659  0.6268 -1.9305 -4.0345
 8683TIP3   OH250243   5.064   2.184  12.573  0.1435 -0.6332  0.2189
 8683TIP3    H150244   5.149   2.202  12.614 -0.5307  0.0291  1.3660
 8683TIP3    H250245   5.045   2.262  12.522 -0.4193 -0.1802  1.1019
 8684TIP3   OH250246   0.928   1.721  13.418  0.2655 -1.1889  0.0694
 8684TIP3    H150247   0.836   1.746  13.426  0.3550 -1.2915  2.0846
 8684TIP3    H250248   0.931   1.630  13.447  0.8849 -1.4392 -0.7606
 8685TIP3   OH250249   2.909   4.686  10.486  0.0627 -0.0971  0.9594
 8685TIP3    H150250   2.836   4.625  10.476  0.8691 -0.8620 -0.3748
 8685TIP3    H250251   2.874   4.770  10.455 -1.1864  0.3229  3.2013
 8686TIP3   OH250252   3.413   6.306  11.640 -0.1841  0.1110  0.2719
 8686TIP3    H150253   3.372   6.302  11.553  0.1361 -0.7972  0.1505
 8686TIP3    H250254   3.484   6.241  11.635 -1.8792 -2.0294  2.1126
 8687TIP3   OH250255   4.315   6.623  13.487 -0.0059 -0.1870 -0.0684
 8687TIP3    H150256   4.309   6.565  13.563  0.6474  1.8113  1.5769
 8687TIP3    H250257   4.227   6.622  13.449 -1.2731  1.1656  2.5836
 8688TIP3   OH250258   3.551   5.488  12.510 -0.0369  0.7032  0.6849
 8688TIP3    H150259   3.565   5.405  12.463  0.0741  0.9492  0.2771
 8688TIP3    H250260   3.459   5.509  12.493 -0.5452 -0.1688  2.1546
 8689TIP3   OH250261   4.144   4.666  12.892 -0.3272  0.1904  0.0113
 8689TIP3    H150262   4.150   4.594  12.954 -0.6210 -0.1436 -0.3419
 8689TIP3    H250263   4.227   4.712  12.901  0.3938 -0.9327 -0.6620
 8690TIP3   OH250264   1.528   5.441  10.527  0.1960 -0.0443  0.1720
 8690TIP3    H150265   1.618   5.471  10.536 -0.0546  0.1454  2.5896
 8690TIP3    H250266   1.528   5.352  10.562 -0.7629  0.3867  1.3326
 8691TIP3   OH250267   6.068   6.835  10.871  0.2147  0.4817  0.0411
 8691TIP3    H150268   6.012   6.853  10.946  1.3999  1.1450  0.7819
 8691TIP3    H250269   6.057   6.911  10.814 -0.1576  0.2949 -0.1388
 8692TIP3   OH250270   6.428   2.321  10.582 -0.5416  0.0524  0.1317
 8692TIP3    H150271   6.338   2.318  10.612 -0.2171  2.8697  1.7107
 8692TIP3    H250272   6.424   2.363  10.496 -0.8119 -1.2344 -0.5119
 8693TIP3   OH250273   1.760   4.303  12.382 -0.3745 -0.3892  0.1760
 8693TIP3    H150274   1.728   4.243  12.450  0.5428 -1.2211 -0.1138
 8693TIP3    H250275   1.854   4.309  12.398 -0.1103 -0.7935 -1.1882
 8694TIP3   OH250276   6.972   5.166  11.952  0.3142  0.0121 -0.2361
 8694TIP3    H150277   6.908   5.203  12.013  0.6191  0.7779 -0.3801
 8694TIP3    H250278   7.044   5.228  11.952  0.0053  0.4011 -1.9366
 8695TIP3   OH250279   2.538   5.147  11.252  0.1727  0.0246  0.4529
 8695TIP3    H150280   2.448   5.117  11.262  0.4492 -0.6452  1.0803
 8695TIP3    H250281   2.576   5.138  11.339  0.9305  0.0026  0.1298
 8696TIP3   OH250282   2.096   3.162  13.240 -0.0236 -0.0209  0.1590
 8696TIP3    H150283   2.111   3.130  13.329  1.6010  1.5349  0.5060
 8696TIP3    H250284   2.172   3.131  13.191  0.4304  1.3182 -0.0253
 8697TIP3   OH250285   5.608   2.403  11.644 -0.4690 -0.1467  0.0432
 8697TIP3    H150286   5.608   2.376  11.552 -0.2532 -0.2821  0.0805
 8697TIP3    H250287   5.690   2.367  11.679 -1.9475 -2.7666  1.0806
 8698TIP3   OH250288   1.740   4.404  11.588 -0.4143 -0.3750  0.1275
 8698TIP3    H150289   1.695   4.419  11.505  1.2855 -1.3300 -1.0181
 8698TIP3    H250290   1.741   4.309  11.599 -0.6202 -0.2699  1.2786
 8699TIP3   OH250291   0.344   4.285  12.554  0.1228 -0.3128  0.7080
 8699TIP3    H150292   0.391   4.313  12.633  1.3335 -1.5390  0.4541
 8699TIP3    H250293   0.409   4.237  12.503 -0.6336  0.4663 -1.0711
 8700TIP3   OH250294   3.525   2.371  12.136  0.5313 -0.2429 -0.0432
 8700TIP3    H150295   3.603   2.384  12.082 -0.2118  0.1716 -1.0471
 8700TIP3    H250296   3.559   2.361  12.225  1.7561 -0.5455 -0.5230
 8701TIP3   OH250297   4.754   5.121  11.234  0.1405 -0.3595  0.3959
 8701TIP3    H150298   4.829   5.102  11.291  0.1024 -0.8960  0.2685
 8701TIP3    H250299   4.691   5.051  11.253 -0.2636 -0.0036  0.3823
 8702TIP3   OH250300   4.209   0.607  11.594 -0.1834  0.0200  0.7298
 8702TIP3    H150301   4.129   0.632  11.548 -0.2369  0.6101  1.1403
 8702TIP3    H250302   4.179   0.544  11.660 -0.3125  0.2671  0.9066
 8703TIP3   OH250303   1.195   2.632  10.471 -0.1101 -0.1116 -0.4264
 8703TIP3    H150304   1.179   2.575  10.397  0.1786 -1.8514  0.7929
 8703TIP3    H250305   1.280   2.605  10.506 -0.7471 -0.1500  1.2138
 8704TIP3   OH250306   6.368   6.729  12.027  0.0686 -0.9217 -0.0457
 8704TIP3    H150307   6.415   6.799  11.980  3.0844 -2.1825  0.8188
 8704TIP3    H250308   6.388   6.650  11.978 -2.2319 -1.4119 -0.2804
 8705TIP3   OH250309   7.081   0.811  10.878  0.7724 -0.5267 -0.0384
 8705TIP3    H150310   7.014   0.865  10.836  2.1863  0.8812 -0.5777
 8705TIP3    H250311   7.033   0.761  10.944 -0.6086  1.5071  0.6121
 8706TIP3   OH250312   7.508   3.686  11.860  0.7862 -0.2945  0.0033
 8706TIP3    H150313   7.446   3.615  11.879  1.2806 -1.1516 -1.4793
 8706TIP3    H250314   7.486   3.754  11.924 -0.0396 -1.5622  1.1214
 8707TIP3   OH250315   4.149   2.911  12.154  0.1771 -0.5947  0.0325
 8707TIP3    H150316   4.200   2.845  12.107  0.8227 -1.2082  1.5278
 8707TIP3    H250317   4.137   2.982  12.091 -0.6863 -2.1904 -1.6699
 8708TIP3   OH250318   4.565   6.842  10.270 -0.4184 -0.4587 -0.2489
 8708TIP3    H150319   4.648   6.821  10.229 -0.4971 -0.8191 -0.2348
 8708TIP3    H250320   4.583   6.918  10.325 -0.8863  1.7512 -2.9229
 8709TIP3   OH250321   3.106   5.435  11.919 -0.7822  0.5758  0.1065
 8709TIP3    H150322   3.169   5.430  11.991 -1.0274  0.1708  0.2901
 8709TIP3    H250323   3.075   5.346  11.907 -0.4798  0.5712 -0.7423
 8710TIP3   OH250324   1.777   7.143  11.923 -0.6352 -0.0327  0.5027
 8710TIP3    H150325   1.847   7.088  11.960  1.0725  1.3925 -0.4578
 8710TIP3    H250326   1.743   7.092  11.849  0.6291 -0.0348 -0.1073
 8711TIP3   OH250327   7.599   3.420  11.344 -0.2907  0.0319  0.1143
 8711TIP3    H150328   7.579   3.327  11.332 -0.2014  0.0891 -0.5119
 8711TIP3    H250329   7.641   3.424  11.430 -1.6590 -0.2837  0.8168
 8712TIP3   OH250330   2.295   4.972  10.979 -0.3338 -0.4102 -0.2147
 8712TIP3    H150331   2.224   4.919  10.943  0.1614 -0.5308 -1.0546
 8712TIP3    H250332   2.359   4.908  11.010  0.4181 -0.3375 -1.5424
 8713TIP3   OH250333   1.981   7.379  10.842 -0.6121  0.0315  0.2366
 8713TIP3    H150334   1.933   7.452  10.880 -0.1841  1.4408 -1.7766
 8713TIP3    H250335   2.060   7.419  10.806 -0.6638 -1.3109 -1.4763
 8714TIP3   OH250336   5.939   2.147  12.300  0.5752 -0.2367 -0.8160
 8714TIP3    H150337   5.950   2.068  12.247  1.6716 -0.1847 -0.6894
 8714TIP3    H250338   5.868   2.195  12.257 -1.8776 -2.4105  0.5121
 8715TIP3   OH250339   4.003   7.405  11.927 -0.2788 -0.5327  0.5381
 8715TIP3    H150340   3.985   7.494  11.959 -0.2147 -0.4933  0.4656
 8715TIP3    H250341   4.008   7.352  12.007 -0.0121 -0.4152  0.6025
 8716TIP3   OH250342   1.310   3.109  12.590  0.3541  0.4863  0.0112
 8716TIP3    H150343   1.326   3.160  12.510  0.0914  0.1153 -0.2820
 8716TIP3    H250344   1.221   3.133  12.616  0.5341  0.7986  0.3351
 8717TIP3   OH250345   1.433   4.542  11.117 -0.0734  0.4311  0.1938
 8717TIP3    H150346   1.498   4.602  11.082  0.3549 -0.8918 -1.4335
 8717TIP3    H250347   1.351   4.568  11.075  0.5203 -1.4532 -2.4642
 8718TIP3   OH250348   2.654   0.375  11.534 -0.2183 -0.3747  1.1433
 8718TIP3    H150349   2.651   0.411  11.445  0.2087  0.2739  1.3803
 8718TIP3    H250350   2.683   0.449  11.588  2.4177 -1.4937  1.4113
 8719TIP3   OH250351   6.746   3.844  12.779  0.5493  0.4010 -0.3411
 8719TIP3    H150352   6.766   3.911  12.844  1.8223  0.7272 -1.0172
 8719TIP3    H250353   6.739   3.762  12.829  2.0341  0.5530  0.1760
 8720TIP3   OH250354   1.310   7.019  12.774  0.1364  0.3096 -0.4752
 8720TIP3    H150355   1.307   6.971  12.856  0.0215 -0.8667 -1.1437
 8720TIP3    H250356   1.357   6.962  12.714 -0.7203  0.6655 -1.5260
 8721TIP3   OH250357   5.485   7.488  10.937 -0.0171  0.4336 -0.0505
 8721TIP3    H150358   5.575   7.482  10.907  0.2678 -2.3744  1.0553
 8721TIP3    H250359   5.436   7.434  10.875 -0.2169 -1.3582  1.5827
 8722TIP3   OH250360   2.920   1.824  12.891  0.4638 -0.0322  0.3339
 8722TIP3    H150361   2.876   1.907  12.871  1.9765  0.6469 -0.2688
 8722TIP3    H250362   2.909   1.813  12.986 -0.9055  0.1467  0.2208
 8723TIP3   OH250363   0.501   0.311  11.472 -0.3160  0.6060  0.5304
 8723TIP3    H150364   0.472   0.397  11.504  0.3921  1.2104 -0.4253
 8723TIP3    H250365   0.589   0.327  11.437 -0.3476 -0.4303 -0.0334
 8724TIP3   OH250366   0.291   2.148  11.930  0.3633 -0.0753 -0.1061
 8724TIP3    H150367   0.277   2.063  11.971  0.9040  0.4529  1.2276
 8724TIP3    H250368   0.212   2.199  11.952  0.0389 -0.2147 -0.9034
 8725TIP3   OH250369   4.587   5.546  11.244  0.3270 -0.0091  0.3249
 8725TIP3    H150370   4.607   5.595  11.164  0.5214 -0.0603  0.3393
 8725TIP3    H250371   4.501   5.507  11.229 -1.0759  2.4801  1.3270
 8726TIP3   OH250372   1.386   1.213  11.287  0.7983  0.2106  0.1068
 8726TIP3    H150373   1.342   1.186  11.206 -0.5641 -2.2460  1.5724
 8726TIP3    H250374   1.368   1.307  11.293 -0.6600  0.0928 -1.4914
 8727TIP3   OH250375   6.586   4.536  11.199 -0.1798 -0.0186  0.2794
 8727TIP3    H150376   6.609   4.468  11.135  0.2380 -0.2631  0.6862
 8727TIP3    H250377   6.657   4.534  11.262  0.9739  2.2428 -0.8370
 8728TIP3   OH250378   4.469   7.444  11.074 -0.1404 -0.2154 -0.0133
 8728TIP3    H150379   4.504   7.380  11.013 -0.5227 -1.4993  1.0685
 8728TIP3    H250380   4.544   7.473  11.125  0.4678  1.9830 -1.9847
 8729TIP3   OH250381   3.430   6.776  12.884  0.1811  0.1749  0.1679
 8729TIP3    H150382   3.355   6.833  12.864 -0.9956 -0.4765  2.2941
 8729TIP3    H250383   3.495   6.835  12.921 -0.8241  0.2956  1.8657
 8730TIP3   OH250384   6.705   5.329  11.967 -0.0322 -0.3045  0.5654
 8730TIP3    H150385   6.630   5.280  11.932 -0.9928  1.1592  0.4320
 8730TIP3    H250386   6.693   5.418  11.931  1.0967  0.2598  1.5316
 8731TIP3   OH250387   7.580   5.910  12.834 -0.0654 -0.5914 -0.0165
 8731TIP3    H150388   7.621   5.888  12.918 -1.2827  0.0904  0.7847
 8731TIP3    H250389   7.648   5.956  12.786 -0.1173  1.3626  1.6574
 8732TIP3   OH250390   6.140   0.213  13.289  0.1923  0.2096 -0.0063
 8732TIP3    H150391   6.060   0.162  13.298  0.4246 -0.1291  0.1570
 8732TIP3    H250392   6.114   0.291  13.240 -0.9408  1.6609  2.6888
 8733TIP3   OH250393   6.024   1.910  10.637 -0.2771 -0.6245  0.1817
 8733TIP3    H150394   6.027   1.922  10.542 -1.4515 -0.2733  0.1734
 8733TIP3    H250395   5.969   1.981  10.668  0.8041 -0.2205  1.2389
 8734TIP3   OH250396   7.227   4.846  10.722  0.3800 -1.2778 -0.5116
 8734TIP3    H150397   7.310   4.866  10.679  0.4011 -0.2454 -0.0216
 8734TIP3    H250398   7.211   4.921  10.779  0.8583 -3.0211  2.0786
 8735TIP3   OH250399   1.453   4.474  10.442  0.4262  0.0586  0.4204
 8735TIP3    H150400   1.412   4.473  10.355  0.6141  0.0248  0.3320
 8735TIP3    H250401   1.511   4.549  10.441  0.7157 -0.1632  0.3824
 8736TIP3   OH250402   4.683   0.360  10.657  0.3762  0.0366 -0.5939
 8736TIP3    H150403   4.702   0.266  10.655 -0.6531 -0.1933 -0.3416
 8736TIP3    H250404   4.694   0.385  10.749  1.5121  0.3676 -0.8046
 8737TIP3   OH250405   4.075   3.904  11.557 -0.6000  0.5447 -0.2746
 8737TIP3    H150406   3.998   3.959  11.570  0.3286  1.6693  0.7177
 8737TIP3    H250407   4.079   3.849  11.636 -1.5467 -1.0357 -1.2753
 8738TIP3   OH250408   5.396   0.763  11.132 -0.1435 -0.1954  0.2314
 8738TIP3    H150409   5.308   0.801  11.128  0.4198  1.0538 -1.7186
 8738TIP3    H250410   5.381   0.669  11.132 -1.5027 -0.0301 -1.2818
 8739TIP3   OH250411   7.256   7.643  13.114 -0.0324 -0.1324 -0.6596
 8739TIP3    H150412   7.269   7.672  13.204 -0.8521 -1.4407 -0.0968
 8739TIP3    H250413   7.344   7.638  13.078  0.3508 -0.1781  0.2502
 8740TIP3   OH250414   4.069   6.714  12.545 -0.9033  0.1628 -0.0548
 8740TIP3    H150415   4.151   6.696  12.591 -0.3057  0.2095 -1.0730
 8740TIP3    H250416   4.005   6.731  12.615 -1.1391 -4.0097  1.0322
 8741TIP3   OH250417   1.621   6.215  11.501  0.4715 -0.5624 -0.6587
 8741TIP3    H150418   1.716   6.224  11.497  0.3551  0.6318 -1.4506
 8741TIP3    H250419   1.593   6.277  11.568  0.2775 -1.2448 -0.0972
 8742TIP3   OH250420   0.822   3.055  11.560 -0.5710  0.0023 -0.5286
 8742TIP3    H150421   0.799   2.962  11.569 -1.2338  0.1666 -0.4812
 8742TIP3    H250422   0.789   3.096  11.639 -0.0085  0.2383 -0.4081
 8743TIP3   OH250423   1.829   0.109  11.802  0.3662  0.4495  0.3710
 8743TIP3    H150424   1.816   0.022  11.765 -0.0672  0.8179 -0.3455
 8743TIP3    H250425   1.906   0.143  11.756 -0.4570  1.0962 -0.5599
 8744TIP3   OH250426   6.580   0.317  11.720  0.0130 -0.2450  0.5764
 8744TIP3    H150427   6.549   0.323  11.629 -1.8188 -0.9085  1.1213
 8744TIP3    H250428   6.561   0.227  11.746 -2.4802  0.7734  2.6134
 8745TIP3   OH250429   0.093   5.602  10.701  0.1891  0.1258  0.4069
 8745TIP3    H150430   0.157   5.532  10.712  0.0705 -0.1854 -0.7699
 8745TIP3    H250431   0.136   5.664  10.641 -0.2863  0.3180  0.2623
 8746TIP3   OH250432   4.438   4.346  11.121 -0.1008  0.1749 -0.8600
 8746TIP3    H150433   4.362   4.291  11.103  1.4170 -1.9565 -1.1429
 8746TIP3    H250434   4.488   4.344  11.039  0.2339  1.6764 -0.7269
 8747TIP3   OH250435   1.383   5.655  10.743  0.1337  0.0630  0.0287
 8747TIP3    H150436   1.326   5.622  10.673  1.7567  0.4493 -1.5545
 8747TIP3    H250437   1.371   5.593  10.815 -0.2853 -1.3805 -1.2222
 8748TIP3   OH250438   6.330   7.106  12.374  0.0716 -0.3769  0.0578
 8748TIP3    H150439   6.285   7.038  12.325 -0.7993 -0.5069  0.9881
 8748TIP3    H250440   6.395   7.060  12.426  0.9746 -0.2422 -0.9244
 8749TIP3   OH250441   5.242   4.999  10.332 -0.0540 -0.1253 -0.2251
 8749TIP3    H150442   5.297   4.979  10.408 -0.8505  0.0164  0.4118
 8749TIP3    H250443   5.193   5.077  10.358 -1.5898 -1.0566 -0.1995
 8750TIP3   OH250444   2.588   6.788  11.312  0.3612  0.1721  0.2755
 8750TIP3    H150445   2.589   6.756  11.222  0.3952  0.1607  0.2796
 8750TIP3    H250446   2.590   6.709  11.366  0.9483  0.1879  0.2842
 8751TIP3   OH250447   7.229   2.121  11.648  0.4496  0.2090  0.1067
 8751TIP3    H150448   7.194   2.081  11.568  1.7459  0.1002 -0.4169
 8751TIP3    H250449   7.207   2.214  11.640 -0.9334 -0.0554  0.4598
 8752TIP3   OH250450   0.307   3.348  12.058 -0.2134  0.2225 -0.0451
 8752TIP3    H150451   0.328   3.286  11.987 -1.7663 -0.6365  0.2018
 8752TIP3    H250452   0.344   3.307  12.136 -0.1950  0.2071 -0.0613
 8753TIP3   OH250453   3.641   4.057  11.123 -0.1514  0.5419 -0.5074
 8753TIP3    H150454   3.701   3.983  11.108 -1.0479 -0.2458 -0.2918
 8753TIP3    H250455   3.561   4.032  11.077 -1.4353  0.0948  1.8218
 8754TIP3   OH250456   0.710   2.317  10.929 -0.1539 -0.2795 -0.1511
 8754TIP3    H150457   0.729   2.374  10.854 -0.5685  0.6044  0.3972
 8754TIP3    H250458   0.795   2.305  10.972  0.0601 -0.6790 -0.6854
 8755TIP3   OH250459   7.350   4.736  10.390 -0.1092  0.1826 -0.9460
 8755TIP3    H150460   7.272   4.767  10.344 -2.0746 -1.5471  1.0510
 8755TIP3    H250461   7.397   4.816  10.414 -2.1155  1.3593 -0.7685
 8756TIP3   OH250462   6.535   6.581  13.549 -0.3121 -0.3281 -0.7006
 8756TIP3    H150463   6.512   6.644  13.481 -1.3758 -0.6894 -0.7048
 8756TIP3    H250464   6.501   6.497  13.517  0.0290 -0.6808 -0.1626
 8757TIP3   OH250465   3.969   7.334  10.408  0.0181 -0.0977 -0.2255
 8757TIP3    H150466   4.017   7.252  10.421 -0.2329 -0.1824  0.1898
 8757TIP3    H250467   3.889   7.308  10.363 -0.4274 -0.1938  0.6077
 8758TIP3   OH250468   1.760   1.949  13.572 -0.1658  0.6016 -0.4233
 8758TIP3    H150469   1.706   2.027  13.582  0.0301  0.7636 -0.6067
 8758TIP3    H250470   1.713   1.880  13.618 -0.3235  0.8370 -0.2353
 8759TIP3   OH250471   6.845   6.674  11.996 -0.2127 -0.1197 -0.4555
 8759TIP3    H150472   6.803   6.611  11.937 -1.0779  0.4723 -0.5031
 8759TIP3    H250473   6.837   6.634  12.083 -0.8823 -0.0296 -0.4662
 8760TIP3   OH250474   5.213   2.652  12.064  0.5081  0.3900  0.3305
 8760TIP3    H150475   5.236   2.654  11.971  0.3235 -1.5141  0.2052
 8760TIP3    H250476   5.146   2.583  12.070 -0.4665  1.4185  1.6769
 8761TIP3   OH250477   0.808   5.185  12.319 -0.1261  0.2234  0.3041
 8761TIP3    H150478   0.899   5.214  12.310  0.3440 -1.1124  0.5889
 8761TIP3    H250479   0.804   5.143  12.405 -1.0610  0.4381  0.3722
 8762TIP3   OH250480   6.816   6.231  11.850 -0.2244 -0.2304  0.0145
 8762TIP3    H150481   6.792   6.144  11.818 -0.5411 -0.5366  1.0285
 8762TIP3    H250482   6.874   6.214  11.925 -1.4719  0.3522  1.1695
 8763TIP3   OH250483   7.651   0.206  12.493  0.6166 -0.1335 -0.2029
 8763TIP3    H150484   7.730   0.175  12.448 -1.1186  0.7232 -4.2209
 8763TIP3    H250485   7.664   0.300  12.503  1.3567 -0.4262  2.1226
 8764TIP3   OH250486   4.610   3.855  19.087  0.6418 -0.5691 -0.3940
 8764TIP3    H150487   4.669   3.884  19.156  0.5871  0.4799 -0.7706
 8764TIP3    H250488   4.663   3.858  19.008  0.8096 -2.1197 -0.3617
 8765TIP3   OH250489   6.007   3.793  12.135  0.0951 -0.1082  0.4998
 8765TIP3    H150490   6.068   3.782  12.208 -1.5039 -0.3233  1.8756
 8765TIP3    H250491   6.058   3.771  12.057  2.0002  0.6135  1.4920
 8766TIP3   OH250492   7.498   2.444  12.099 -0.2840 -0.5355  0.2504
 8766TIP3    H150493   7.425   2.385  12.081 -0.5434  0.0535 -0.6960
 8766TIP3    H250494   7.494   2.509  12.029 -0.4282  1.0300  1.6592
 8767TIP3   OH250495   0.561   6.031  10.946 -0.1727  0.5991 -0.1028
 8767TIP3    H150496   0.552   5.937  10.926 -1.7632  0.8579 -0.7937
 8767TIP3    H250497   0.472   6.065  10.936  0.4066  2.2038  0.0661
 8768TIP3   OH250498   1.117   3.280  12.797  0.2934  0.1826 -0.2564
 8768TIP3    H150499   1.096   3.190  12.821  0.6864  0.1527 -0.0161
 8768TIP3    H250500   1.206   3.294  12.831  0.3125  0.5927 -0.4693
 8769TIP3   OH250501   6.114   1.642  12.245  0.0895 -0.6486  0.0874
 8769TIP3    H150502   6.207   1.626  12.228 -0.0078 -0.4418 -0.7073
 8769TIP3    H250503   6.075   1.555  12.253  0.3011 -0.7410  0.1000
 8770TIP3   OH250504   1.477   5.661  12.500  0.0506  0.5821 -0.2247
 8770TIP3    H150505   1.515   5.669  12.587 -0.5180 -0.7351  0.1616
 8770TIP3    H250506   1.548   5.631  12.444  0.4432  1.5313 -0.2590
 8771TIP3   OH250507   4.179   1.288  12.281  0.3570 -0.7657  0.3458
 8771TIP3    H150508   4.166   1.309  12.374  0.4216  0.4447  0.0944
 8771TIP3    H250509   4.119   1.346  12.234 -1.0908 -2.6671 -0.3275
 8772TIP3   OH250510   6.898   1.244  12.659  0.1556 -0.3066  0.2826
 8772TIP3    H150511   6.849   1.209  12.584 -0.5091  1.5049 -0.1773
 8772TIP3    H250512   6.836   1.303  12.703  1.3698  0.6979  0.7047
 8773TIP3   OH250513   6.706   3.566  12.943 -0.4397  0.1756 -0.0357
 8773TIP3    H150514   6.762   3.601  13.012 -0.0013 -0.5654 -0.0095
 8773TIP3    H250515   6.621   3.554  12.985 -0.5673  1.0723 -0.0123
 8774TIP3   OH250516   0.569   4.710  10.561  0.7406 -0.0511 -0.6593
 8774TIP3    H150517   0.577   4.674  10.649  0.0642 -1.5788 -1.1699
 8774TIP3    H250518   0.659   4.710  10.527  0.9573  0.2234 -0.1005
 8775TIP3   OH250519   4.542   3.926  11.362  0.1543  0.0004 -0.1539
 8775TIP3    H150520   4.635   3.947  11.368 -0.1097  1.0921  0.3661
 8775TIP3    H250521   4.527   3.908  11.269  0.6749  0.8584 -0.4115
 8776TIP3   OH250522   0.505   5.432  18.300  0.3096  0.6116 -0.1977
 8776TIP3    H150523   0.522   5.499  18.233  0.4077 -0.3269 -1.1252
 8776TIP3    H250524   0.470   5.358  18.251  0.4701 -0.1300  0.7935
 8777TIP3   OH250525   6.839   4.330  12.041  0.0713 -0.2979 -0.7331
 8777TIP3    H150526   6.837   4.378  12.123  2.5901 -0.6998 -0.3480
 8777TIP3    H250527   6.776   4.259  12.054 -0.5232  0.3944  0.3434
 8778TIP3   OH250528   2.853   2.460  12.298 -0.5236 -0.4165  0.6861
 8778TIP3    H150529   2.917   2.497  12.236 -0.6724 -1.1869  0.0619
 8778TIP3    H250530   2.773   2.509  12.281 -0.2910  0.0865  0.9984
 8779TIP3   OH250531   1.631   1.854  11.735 -0.2607  0.5910 -0.4424
 8779TIP3    H150532   1.616   1.945  11.761 -0.6545  0.1592  0.9139
 8779TIP3    H250533   1.718   1.834  11.769 -0.7001  0.0798  0.4062
 8780TIP3   OH250534   4.107   6.272  12.397  0.0521  0.6667 -0.2020
 8780TIP3    H150535   4.086   6.241  12.485  1.1632 -1.7823 -0.7274
 8780TIP3    H250536   4.044   6.342  12.381 -2.9712 -1.5949  0.9398
 8781TIP3   OH250537   4.349   2.448  12.529  0.1754  0.1299  0.4065
 8781TIP3    H150538   4.279   2.433  12.466  2.3236  0.6440 -2.3312
 8781TIP3    H250539   4.348   2.542  12.545  1.5159  0.5339 -1.4568
 8782TIP3   OH250540   5.730   3.763  10.178 -1.0601  0.2043  0.1226
 8782TIP3    H150541   5.685   3.804  10.251  0.4376  1.0744  0.5866
 8782TIP3    H250542   5.677   3.785  10.101 -2.3880 -0.3343  0.8500
 8783TIP3   OH250543   5.255   6.490  12.961  0.0934 -0.4158  0.3168
 8783TIP3    H150544   5.274   6.425  13.029  1.4916 -0.2724  0.0950
 8783TIP3    H250545   5.341   6.519  12.930 -0.5094  0.3866 -0.7006
 8784TIP3   OH250546   4.617   0.601  11.320  0.0861  0.1627  0.1008
 8784TIP3    H150547   4.639   0.544  11.393  0.5524 -1.0933 -0.9852
 8784TIP3    H250548   4.523   0.591  11.309  0.4377 -2.1917 -1.4611
 8785TIP3   OH250549   6.496   0.240  10.717  0.2901 -0.4371 -0.1355
 8785TIP3    H150550   6.409   0.263  10.747  0.5353 -0.0516  0.2904
 8785TIP3    H250551   6.555   0.270  10.786  0.8939  0.7497 -1.1182
 8786TIP3   OH250552   4.598   2.609  12.328 -0.0696 -0.2067 -0.3466
 8786TIP3    H150553   4.549   2.688  12.348 -1.8783 -0.6037 -2.6279
 8786TIP3    H250554   4.557   2.541  12.382  0.1634  0.0569  0.1626
 8787TIP3   OH250555   7.035   3.832  11.441  0.1821 -0.0845  0.1542
 8787TIP3    H150556   7.119   3.878  11.439 -0.4348  1.1946 -3.3097
 8787TIP3    H250557   7.027   3.794  11.354 -2.4104 -1.0207  0.7262
 8788TIP3   OH250558   3.870   2.049  12.560 -0.2808 -0.3829  0.6466
 8788TIP3    H150559   3.781   2.037  12.526 -0.9774 -0.5527  2.4401
 8788TIP3    H250560   3.926   2.031  12.484 -1.6398 -3.4210  0.1947
 8789TIP3   OH250561   0.003   5.181  12.650 -0.0799  0.6773 -0.0251
 8789TIP3    H150562  -0.035   5.094  12.668 -0.3163  1.2664  2.8581
 8789TIP3    H250563  -0.042   5.211  12.571 -0.8792 -1.3118 -0.3837
 8790TIP3   OH250564   3.466   6.325  10.699 -0.1262  0.4469  0.0046
 8790TIP3    H150565   3.496   6.412  10.727  1.4549  0.3035 -1.1199
 8790TIP3    H250566   3.412   6.342  10.623 -1.0167  0.5318  0.6429
 8791TIP3   OH250567   3.804   0.619  11.302  0.1428 -0.1796  0.6010
 8791TIP3    H150568   3.829   0.648  11.214  0.3734 -1.0653  0.3718
 8791TIP3    H250569   3.714   0.591  11.293 -0.4858  1.5493  1.0894
 8792TIP3   OH250570   2.688   5.070  11.574 -0.0124  0.0117 -0.1983
 8792TIP3    H150571   2.755   5.092  11.638 -0.5413  0.9269  0.0654
 8792TIP3    H250572   2.644   5.153  11.555 -0.8303 -0.4980 -0.6423
 8793TIP3   OH250573   3.456   5.088  12.789 -0.0858  0.1750 -0.0433
 8793TIP3    H150574   3.382   5.127  12.836 -0.8316 -1.5833  0.2982
 8793TIP3    H250575   3.523   5.075  12.856  0.5173  1.5913 -0.3188
 8794TIP3   OH250576   4.476   0.957  11.442 -0.3907 -0.5262 -0.0336
 8794TIP3    H150577   4.540   0.980  11.510 -0.3045 -0.2168 -0.2176
 8794TIP3    H250578   4.456   0.865  11.458 -0.5219 -0.4013  0.5391
 8795TIP3   OH250579   4.590   2.920  10.411  0.5590 -0.7254 -0.3604
 8795TIP3    H150580   4.662   2.860  10.389  0.7927 -0.2745 -0.8522
 8795TIP3    H250581   4.511   2.869  10.394  0.7554 -1.1335 -0.0825
 8796TIP3   OH250582   5.299   0.481  10.711 -0.5469 -0.2830 -0.2163
 8796TIP3    H150583   5.288   0.389  10.689 -0.5941 -0.2495 -0.3326
 8796TIP3    H250584   5.211   0.511  10.736 -0.7285 -0.0147 -1.1487
 8797TIP3   OH250585   1.382   0.746  10.818  0.6796  0.4461 -1.0850
 8797TIP3    H150586   1.305   0.798  10.794  1.3294  1.7440 -0.4894
 8797TIP3    H250587   1.353   0.655  10.811 -0.6099  0.8846 -1.8208
 8798TIP3   OH250588   0.797   6.417  11.696  0.3966  0.0925 -0.1321
 8798TIP3    H150589   0.720   6.471  11.714 -0.2762 -0.5948 -0.8935
 8798TIP3    H250590   0.814   6.428  11.602  1.7139  0.8489  0.1622
 8799TIP3   OH250591   5.940   6.760  11.768  0.3172  0.1399 -0.3145
 8799TIP3    H150592   5.982   6.701  11.830 -0.6613 -0.1669  0.0658
 8799TIP3    H250593   6.000   6.835  11.761  0.3643  0.2532  1.1212
 8800TIP3   OH250594   4.629   4.202  11.953  0.2549 -0.5984 -0.4538
 8800TIP3    H150595   4.682   4.266  12.001 -0.6888  0.3053 -0.5895
 8800TIP3    H250596   4.647   4.219  11.861 -0.1961 -0.3429 -0.4990
 8801TIP3   OH250597   5.947   6.960  13.241  0.4078 -0.3183  0.4117
 8801TIP3    H150598   6.019   6.902  13.218  0.4676  0.2581 -0.9520
 8801TIP3    H250599   5.973   6.998  13.325  1.2952 -0.7457  0.3437
 8802TIP3   OH250600   2.096   0.320  12.686  0.5986 -0.1527  0.1140
 8802TIP3    H150601   2.115   0.386  12.619  1.0608 -1.6900 -1.3442
 8802TIP3    H250602   2.179   0.274  12.699 -0.1663 -1.7996 -0.4812
 8803TIP3   OH250603   3.310   4.452  11.776 -0.0346 -0.2810  0.2182
 8803TIP3    H150604   3.282   4.375  11.826 -0.5943 -0.5250 -0.4547
 8803TIP3    H250605   3.272   4.526  11.823 -0.3638 -0.4945  0.2936
 8804TIP3   OH250606   3.118   5.678  11.281 -0.8510  0.3245 -0.2899
 8804TIP3    H150607   3.194   5.716  11.236 -1.2251  0.4608 -0.8101
 8804TIP3    H250608   3.141   5.684  11.374  0.5379 -1.2520 -0.4781
 8805TIP3   OH250609   3.880   2.799  11.988 -0.4077  0.1428  0.3126
 8805TIP3    H150610   3.913   2.877  12.032  2.1618 -0.5614 -0.2059
 8805TIP3    H250611   3.954   2.766  11.938 -2.2015 -1.0763 -1.7480
 8806TIP3   OH250612   1.495   4.787  12.238 -0.3747 -0.4234  0.0296
 8806TIP3    H150613   1.436   4.811  12.166  0.0513 -2.3843 -1.0403
 8806TIP3    H250614   1.576   4.834  12.218 -0.9681  0.8457  0.5139
 8807TIP3   OH250615   2.783   0.150  11.547 -0.5202  0.5822  0.0866
 8807TIP3    H150616   2.710   0.211  11.557  0.0069  1.1642  0.4560
 8807TIP3    H250617   2.746   0.076  11.499 -1.7505  0.1701  1.5863
 8808TIP3   OH250618   4.099   4.270  12.344 -0.1518 -0.2819  0.4449
 8808TIP3    H150619   4.191   4.293  12.328 -0.5566  0.5610 -0.7805
 8808TIP3    H250620   4.093   4.263  12.440  1.1640 -0.2690  0.5452
 8809TIP3   OH250621   4.401   4.714  12.565  0.0048  0.3748  0.3677
 8809TIP3    H150622   4.330   4.772  12.594  1.1617  1.0785  1.9715
 8809TIP3    H250623   4.377   4.628  12.599 -0.5131  0.4187  0.1210
 8810TIP3   OH250624   2.562   0.985  10.562 -0.3832  0.0293 -0.6297
 8810TIP3    H150625   2.538   0.922  10.493 -0.4272  0.2964 -0.8599
 8810TIP3    H250626   2.483   1.036  10.577  0.1024  1.1387 -1.6306
 8811TIP3   OH250627   5.631   5.649  11.539 -0.1131 -0.0878  0.2222
 8811TIP3    H150628   5.565   5.664  11.471 -0.7411 -0.4887  0.7421
 8811TIP3    H250629   5.714   5.663  11.494 -0.5549  0.8154 -0.3423
 8812TIP3   OH250630   4.054   5.987  12.437 -0.3672  0.2195  0.3488
 8812TIP3    H150631   4.119   6.056  12.427 -0.5654  0.4140  0.3982
 8812TIP3    H250632   4.040   5.953  12.348 -1.2864  1.1737  0.1055
 8813TIP3   OH250633   1.858   4.032  11.729 -0.1348 -0.0121  0.2057
 8813TIP3    H150634   1.826   3.993  11.810  0.3349 -0.1532  0.3239
 8813TIP3    H250635   1.872   3.957  11.671  2.2735 -0.2255  0.9464
 8814TIP3   OH250636   7.409   5.025  11.597  0.7482  0.0210  0.0284
 8814TIP3    H150637   7.378   5.041  11.508  1.5507  0.0645 -0.2482
 8814TIP3    H250638   7.353   5.079  11.653  0.5651  0.3678 -0.4949
 8815TIP3   OH250639   6.081   3.338  11.104  0.0970 -0.1116 -0.5210
 8815TIP3    H150640   6.053   3.400  11.037 -1.1789 -0.0906  0.0023
 8815TIP3    H250641   6.111   3.393  11.176 -2.8692  0.0651  0.7466
 8816TIP3   OH250642   1.007   6.771  11.075  0.3116  0.1435 -0.3621
 8816TIP3    H150643   0.965   6.857  11.072  1.1212  0.6617  1.5243
 8816TIP3    H250644   1.083   6.779  11.017  0.3149  0.6762 -0.2918
 8817TIP3   OH250645   4.194   0.718  11.949  0.3090  0.2533 -0.3800
 8817TIP3    H150646   4.255   0.682  11.884 -0.6994  0.3654 -1.4125
 8817TIP3    H250647   4.137   0.776  11.900  0.1342  1.1140  0.7925
 8818TIP3   OH250648   1.158   0.981  11.344 -0.1521 -0.1071 -0.1992
 8818TIP3    H150649   1.214   0.944  11.275 -0.2889 -0.2642 -0.2284
 8818TIP3    H250650   1.080   1.010  11.297 -0.0934  0.1155 -0.1603
 8819TIP3   OH250651   7.222   4.311  10.903  0.0912  0.3747  0.4778
 8819TIP3    H150652   7.206   4.363  10.981  2.6823  1.1787  0.5772
 8819TIP3    H250653   7.213   4.372  10.830  3.2765  1.1915  0.6038
 8820TIP3   OH250654   2.850   7.601  12.668 -0.0057 -0.5380 -0.3381
 8820TIP3    H150655   2.821   7.538  12.602 -0.0769 -0.7547 -0.1029
 8820TIP3    H250656   2.788   7.673  12.661  1.6697  0.8241 -2.5295
 8821TIP3   OH250657   0.785   1.899  13.105 -0.4248 -0.4033 -0.7295
 8821TIP3    H150658   0.798   1.971  13.166  1.9677  0.4140 -2.0510
 8821TIP3    H250659   0.702   1.859  13.131 -0.0392  0.5374  2.3260
 8822TIP3   OH250660   3.037   5.000  10.728  0.2138 -0.4588 -0.4279
 8822TIP3    H150661   2.971   5.050  10.777  2.2796  0.7291  1.3666
 8822TIP3    H250662   3.046   4.918  10.777 -0.3928 -0.9085 -1.0636
 8823TIP3   OH250663   0.898   7.019  10.576 -0.5377  0.4026  0.5288
 8823TIP3    H150664   0.809   7.007  10.543 -0.1338 -2.3050  0.2510
 8823TIP3    H250665   0.939   6.933  10.568  2.0889  1.5363  0.7840
 8824TIP3   OH250666   6.023   7.578  12.998  0.1400  0.2778 -0.1449
 8824TIP3    H150667   6.094   7.520  12.971  0.5871  0.3747  0.7836
 8824TIP3    H250668   5.964   7.522  13.049  0.3119  0.5222  0.3254
 8825TIP3   OH250669   1.712   4.988  12.112 -0.4231  0.1769  0.1454
 8825TIP3    H150670   1.723   5.029  12.198  1.1978  0.7937 -0.3223
 8825TIP3    H250671   1.696   5.062  12.053  0.8425 -0.0033 -0.4434
 8826TIP3   OH250672   1.111   1.532  12.997  0.3683 -0.8705 -0.2073
 8826TIP3    H150673   1.053   1.600  13.032  0.4619  0.0181 -1.6862
 8826TIP3    H250674   1.198   1.573  12.996  0.8406 -1.7900  0.9013
 8827TIP3   OH250675   4.943   1.598  12.121 -0.1064 -0.4677  0.6328
 8827TIP3    H150676   4.878   1.642  12.066  2.1173  1.0935 -0.9138
 8827TIP3    H250677   4.920   1.623  12.210 -1.3610  0.4001  0.0924
 8828TIP3   OH250678   7.555   4.055  10.618 -0.4842 -0.3217  0.3860
 8828TIP3    H150679   7.542   4.084  10.709 -0.2592 -0.0959  0.3491
 8828TIP3    H250680   7.504   4.117  10.566  0.9278  0.7593  0.2216
 8829TIP3   OH250681   6.894   2.002  11.549  0.0294 -0.0671  0.2955
 8829TIP3    H150682   6.808   2.002  11.506 -0.3927 -2.7536  0.9181
 8829TIP3    H250683   6.877   1.961  11.634  2.1795 -2.4923 -0.3103
 8830TIP3   OH250684   1.595   1.586  11.261 -0.3108 -0.0900  0.0752
 8830TIP3    H150685   1.588   1.678  11.289 -2.5131 -0.0084 -0.5750
 8830TIP3    H250686   1.532   1.578  11.189  0.6505 -1.8560 -0.6194
 8831TIP3   OH250687   2.063   5.008  10.691 -0.1880 -0.5038 -0.1247
 8831TIP3    H150688   2.012   5.033  10.613 -1.4960 -0.2045  0.7902
 8831TIP3    H250689   2.125   5.080  10.703 -1.1324  0.2941  0.0832
 8832TIP3   OH250690   2.097   5.103  12.114  0.0147  0.3676  0.6288
 8832TIP3    H150691   2.186   5.116  12.146 -0.1620  2.7401  0.2718
 8832TIP3    H250692   2.107   5.041  12.041  0.8599 -2.1766  2.7294
 8833TIP3   OH250693   4.422   4.630  10.584  0.2242  0.4571  0.1882
 8833TIP3    H150694   4.385   4.542  10.584 -1.5006  1.0903 -2.4464
 8833TIP3    H250695   4.350   4.686  10.613  0.1188  1.3459 -1.6812
 8834TIP3   OH250696   0.041   5.283  11.025  0.2930 -0.3683 -0.2248
 8834TIP3    H150697  -0.008   5.261  11.105 -1.1156 -0.5425 -1.0963
 8834TIP3    H250698  -0.014   5.348  10.982  0.5952 -0.9379 -1.4924
 8835TIP3   OH250699   6.245   0.309  10.777 -0.0742 -0.7769  0.0873
 8835TIP3    H150700   6.230   0.327  10.684  1.4255  2.7760  0.3801
 8835TIP3    H250701   6.157   0.297  10.813 -0.9515  0.8748 -1.3136
 8836TIP3   OH250702   6.926   1.260  11.536 -0.6441 -0.1217 -0.2380
 8836TIP3    H150703   6.960   1.192  11.477  0.5637 -0.7444  1.1287
 8836TIP3    H250704   6.956   1.342  11.497 -0.1264 -0.5014 -0.6608
 8837TIP3   OH250705   7.449   4.378  11.844 -0.1325 -0.4363  0.0196
 8837TIP3    H150706   7.372   4.431  11.825  0.5406  0.8380  0.7351
 8837TIP3    H250707   7.518   4.415  11.788  0.5821  0.0824  1.2060
 8838TIP3   OH250708   7.195   2.073  11.318 -0.4231 -0.0838 -0.3407
 8838TIP3    H150709   7.110   2.059  11.276  0.1111  0.2770 -1.5599
 8838TIP3    H250710   7.231   2.151  11.276  0.8185 -0.6314 -0.3303
 8839TIP3   OH250711   0.841   2.691  10.939 -0.1687  0.2785 -0.1148
 8839TIP3    H150712   0.841   2.762  10.876  2.2950 -1.9377 -2.8823
 8839TIP3    H250713   0.751   2.656  10.937 -0.5183  1.1939 -1.2683
 8840TIP3   OH250714   4.267   2.143  12.324  0.2141 -0.1842  0.4586
 8840TIP3    H150715   4.200   2.076  12.326 -0.2958  0.2573 -0.6452
 8840TIP3    H250716   4.219   2.226  12.320  0.7532  0.0871 -1.7534
 8841TIP3   OH250717   1.836   0.803  13.387  0.2196 -1.0348 -0.2242
 8841TIP3    H150718   1.860   0.793  13.479  1.0856 -0.5692 -0.3905
 8841TIP3    H250719   1.763   0.743  13.375  1.5528 -2.8384  0.2027
 8842TIP3   OH250720   7.625   2.749  12.176  0.0465 -0.3260 -0.2664
 8842TIP3    H150721   7.606   2.842  12.160  0.4853 -0.2304 -0.2323
 8842TIP3    H250722   7.544   2.714  12.212 -0.4849 -0.2061 -1.2982
 8843TIP3   OH250723   3.971   4.835  12.770  0.2664  0.1788 -0.1460
 8843TIP3    H150724   3.919   4.890  12.829  1.6971 -0.0146  1.3706
 8843TIP3    H250725   4.017   4.774  12.828  1.7909  0.0305 -1.4308
 8844TIP3   OH250726   6.650   0.739  11.138 -0.1350  0.2572 -0.4064
 8844TIP3    H150727   6.594   0.692  11.200 -0.3084  0.9003 -0.0655
 8844TIP3    H250728   6.589   0.786  11.082  0.0529  0.5055 -0.4003
 8845TIP3   OH250729   7.242   5.264  11.625  0.3689 -0.1332  0.1072
 8845TIP3    H150730   7.279   5.349  11.604  0.7415 -0.4741 -0.6581
 8845TIP3    H250731   7.205   5.233  11.542  0.1471 -0.6666  0.4017
 8846TIP3   OH250732   1.205   1.415  11.763 -0.3303  0.0971  0.3808
 8846TIP3    H150733   1.252   1.392  11.683 -2.3157  0.5881 -0.9881
 8846TIP3    H250734   1.113   1.398  11.743 -0.9760  1.1064  2.2478
 8847TIP3   OH250735   3.078   0.850  13.046  0.5171  0.0375 -0.2039
 8847TIP3    H150736   3.153   0.836  12.989 -1.0788  0.4681 -2.5273
 8847TIP3    H250737   3.075   0.945  13.059  0.5685 -0.0126  0.2016
 8848TIP3   OH250738   0.119   6.750  11.557  0.5504 -0.1940 -0.3808
 8848TIP3    H150739   0.185   6.769  11.491  0.1314  0.3828 -0.6352
 8848TIP3    H250740   0.105   6.833  11.602 -2.9538  0.8305 -2.9671
 8849TIP3   OH250741   3.616   3.714  12.391 -0.0035  0.2289  0.3511
 8849TIP3    H150742   3.595   3.807  12.380 -1.2912 -0.1202 -0.2493
 8849TIP3    H250743   3.700   3.704  12.347 -0.7935  0.7250 -1.3345
 8850TIP3   OH250744   7.253   2.783  11.931  0.4404  0.7274 -0.2209
 8850TIP3    H150745   7.174   2.803  11.880 -0.5664 -1.7569  0.2489
 8850TIP3    H250746   7.220   2.765  12.019  1.6725  0.5965  0.2266
 8851TIP3   OH250747   0.154   0.424  12.563  0.0433 -0.1048 -0.1921
 8851TIP3    H150748   0.240   0.458  12.586 -0.5946  1.0720  0.5695
 8851TIP3    H250749   0.104   0.501  12.537 -0.8293 -0.7477 -0.4743
 8852TIP3   OH250750   4.211   7.359  10.233 -0.1239 -0.0261 -0.6222
 8852TIP3    H150751   4.149   7.345  10.305 -0.2220 -0.8086 -0.8601
 8852TIP3    H250752   4.286   7.303  10.254 -0.2526 -0.4339 -1.2544
 8853TIP3   OH250753   5.078   7.569  11.785 -0.6546 -0.2033  0.0044
 8853TIP3    H150754   5.147   7.612  11.734 -0.5959 -2.0212 -1.5782
 8853TIP3    H250755   5.123   7.497  11.830 -1.0415  0.3008  1.2338
 8854TIP3   OH250756   0.741   7.413  10.771  0.5547  0.0999  0.2706
 8854TIP3    H150757   0.659   7.367  10.792  0.6751 -0.5645 -0.6506
 8854TIP3    H250758   0.722   7.504  10.792 -0.4882 -0.0158 -0.0842
 8855TIP3   OH250759   2.341   3.140  12.512  0.2679 -0.5502 -0.1245
 8855TIP3    H150760   2.254   3.171  12.534  0.7790  1.1995 -0.3568
 8855TIP3    H250761   2.368   3.197  12.439  1.6821 -0.8739  0.1185
 8856TIP3   OH250762   0.664   4.189  11.397 -0.1742 -0.8482  0.1477
 8856TIP3    H150763   0.669   4.209  11.491  2.7226 -2.0030  0.3505
 8856TIP3    H250764   0.672   4.094  11.392 -0.9238 -0.8607 -1.2733
 8857TIP3   OH250765   7.165   1.737  10.912 -0.0638 -0.0137  0.2194
 8857TIP3    H150766   7.088   1.789  10.889 -0.2383  0.3693  1.5874
 8857TIP3    H250767   7.196   1.775  10.994  1.1241 -0.6624  0.0849
 8858TIP3   OH250768   2.241   6.207  11.961  0.8014  0.3556 -0.2387
 8858TIP3    H150769   2.298   6.230  11.888  0.3060  2.2281 -0.0846
 8858TIP3    H250770   2.161   6.258  11.947 -0.4447 -1.3790  0.1238
 8859TIP3   OH250771   4.175   6.411  11.004 -0.4840  0.3054  0.0980
 8859TIP3    H150772   4.136   6.350  11.067  1.9529 -0.2140  1.2035
 8859TIP3    H250773   4.188   6.491  11.053  4.2642 -1.0042  1.4352
 8860TIP3   OH250774   5.808   3.201  10.768  0.3966 -0.0200 -0.1852
 8860TIP3    H150775   5.817   3.195  10.673 -0.4013  1.6716 -0.4135
 8860TIP3    H250776   5.825   3.293  10.788  1.2066 -0.4761  1.4109
 8861TIP3   OH250777   2.953   6.035  12.344  0.3190  0.0487  0.7335
 8861TIP3    H150778   3.007   6.112  12.359 -0.7555  0.6058  1.9357
 8861TIP3    H250779   2.872   6.053  12.391 -0.6518 -1.0605 -0.4234
 8862TIP3   OH250780   6.588   3.221  10.475 -0.4044 -0.0984 -0.7539
 8862TIP3    H150781   6.600   3.235  10.569 -0.7522 -0.0060 -0.7245
 8862TIP3    H250782   6.656   3.274  10.434 -0.8758  0.6393 -0.5925
 8863TIP3   OH250783   3.369   0.133  11.076 -0.0740  0.0480 -0.2720
 8863TIP3    H150784   3.455   0.174  11.077  0.0265 -0.1733  0.0452
 8863TIP3    H250785   3.311   0.198  11.117 -0.0170  0.1013 -0.2768
 8864TIP3   OH250786   1.975   7.647  11.360 -0.6967 -0.0718 -0.0287
 8864TIP3    H150787   1.945   7.600  11.438  1.1492 -0.8713  0.2354
 8864TIP3    H250788   1.953   7.589  11.287 -2.1212  0.5295 -0.1192
 8865TIP3   OH250789   3.653   7.015  12.823 -0.2255 -0.5665 -0.2313
 8865TIP3    H150790   3.695   7.097  12.798 -3.7653  1.4027 -0.3900
 8865TIP3    H250791   3.641   7.022  12.918 -0.2180 -1.0871 -0.1859
 8866TIP3   OH250792   6.510   0.464  12.947  0.4847 -0.1696 -0.2740
 8866TIP3    H150793   6.424   0.423  12.937 -0.4989  1.8060 -0.3750
 8866TIP3    H250794   6.505   0.509  13.032  0.8099  1.2906 -1.0086
 8867TIP3   OH250795   0.139   2.767  11.610  0.3318  0.4618 -0.2474
 8867TIP3    H150796   0.134   2.844  11.666 -1.9905  0.5315 -0.4529
 8867TIP3    H250797   0.220   2.723  11.637  1.3756  2.5840  0.3203
 8868TIP3   OH250798   3.610   5.156  13.044 -0.4361 -0.0596 -0.1886
 8868TIP3    H150799   3.646   5.237  13.008 -0.3586 -0.9975 -2.3501
 8868TIP3    H250800   3.531   5.184  13.091  0.5483  1.4563  0.6360
 8869TIP3   OH250801   3.583   2.072  11.013 -0.4909  0.5639 -0.1903
 8869TIP3    H150802   3.618   2.037  10.931 -0.1253 -2.5247  1.1573
 8869TIP3    H250803   3.488   2.061  11.004 -0.4434  0.1027 -0.1520
 8870TIP3   OH250804   0.739   1.744  12.547 -0.8411 -0.5512  0.1352
 8870TIP3    H150805   0.811   1.682  12.556 -1.5732 -1.8010 -1.8472
 8870TIP3    H250806   0.660   1.691  12.560 -1.4438  0.5890  1.2824
 8871TIP3   OH250807   2.306   4.334  13.375 -0.2294  0.0972 -0.2602
 8871TIP3    H150808   2.263   4.412  13.340  0.4349  0.7249  0.3190
 8871TIP3    H250809   2.249   4.306  13.447  0.0036  0.5572  0.0998
 8872TIP3   OH250810   1.358   4.683  10.865  0.3023  0.1031  0.5082
 8872TIP3    H150811   1.403   4.753  10.819 -2.0952 -0.2029 -2.6718
 8872TIP3    H250812   1.377   4.605  10.813 -0.6079 -0.7619  1.4361
 8873TIP3   OH250813   6.007   0.141  12.439  0.3091 -0.2032 -0.3025
 8873TIP3    H150814   5.956   0.213  12.476  0.3678 -0.3073 -0.0204
 8873TIP3    H250815   6.098   0.164  12.459  0.1997 -1.8684  2.5494
 8874TIP3   OH250816   4.552   2.744  13.314  0.0828 -0.8375 -0.0620
 8874TIP3    H150817   4.605   2.707  13.243 -0.8999 -0.9635 -0.7580
 8874TIP3    H250818   4.513   2.668  13.357 -0.5400 -0.7014 -0.3722
 8875TIP3   OH250819   4.693   7.500  10.265 -0.8841 -0.3322 -0.2162
 8875TIP3    H150820   4.749   7.422  10.270  0.0919  0.3185 -0.7098
 8875TIP3    H250821   4.715   7.540  10.181 -0.4876  1.1255  0.5511
 8876TIP3   OH250822   5.762   2.316  12.187  0.3938  0.1593  0.0046
 8876TIP3    H150823   5.695   2.248  12.180  0.9482 -0.3766 -0.1807
 8876TIP3    H250824   5.724   2.392  12.142  1.1245 -1.1036 -2.9782
 8877TIP3   OH250825   5.579   5.522  12.963 -0.3820  0.6200 -0.0493
 8877TIP3    H150826   5.670   5.507  12.989 -0.5556  0.6443  0.6102
 8877TIP3    H250827   5.533   5.442  12.990 -0.6122  0.7352 -0.0949
 8878TIP3   OH250828   6.542   5.397  12.206 -0.1363 -0.1542  0.4629
 8878TIP3    H150829   6.587   5.418  12.288 -0.5162 -0.2547  0.7026
 8878TIP3    H250830   6.538   5.301  12.205 -1.7082 -0.1377  1.2181
 8879TIP3   OH250831   7.136   0.554  10.759  0.0938  0.6983  0.2789
 8879TIP3    H150832   7.115   0.641  10.726 -0.1701 -0.1646 -2.0010
 8879TIP3    H250833   7.227   0.540  10.732 -0.2721 -0.2120 -0.5229
 8880TIP3   OH250834   5.290   6.432  12.624  0.6998 -0.1721 -0.2332
 8880TIP3    H150835   5.236   6.355  12.609  0.4236  0.2495 -1.5870
 8880TIP3    H250836   5.378   6.398  12.634  0.3143 -0.8110  1.2462
 8881TIP3   OH250837   0.628   5.170  11.654  0.4208  0.6175 -0.0807
 8881TIP3    H150838   0.684   5.165  11.576  0.2209  0.0692 -0.1925
 8881TIP3    H250839   0.543   5.199  11.620  0.2626  0.1317 -0.1079
 8882TIP3   OH250840   1.082   7.418  11.765  0.3457  0.3461  0.3202
 8882TIP3    H150841   1.162   7.366  11.774  1.8610  2.5475  0.1334
 8882TIP3    H250842   1.106   7.505  11.795 -2.3238  0.8247  1.3567
 8883TIP3   OH250843   4.668   6.873  12.562 -0.3587 -0.3869  0.7471
 8883TIP3    H150844   4.585   6.843  12.598 -0.5859 -0.6788 -0.0011
 8883TIP3    H250845   4.654   6.966  12.544 -0.0798 -0.1107  1.8418
 8884TIP3   OH250846   6.927   1.711  12.025  0.1010 -0.0599  0.3716
 8884TIP3    H150847   7.020   1.731  12.032  0.3642 -1.2606  0.6708
 8884TIP3    H250848   6.900   1.694  12.115 -1.0487  2.7639  0.6466
 8885TIP3   OH250849   6.455   3.355  12.693  0.2241 -0.4739  0.0037
 8885TIP3    H150850   6.399   3.278  12.707  0.8884 -1.4968 -2.5104
 8885TIP3    H250851   6.424   3.394  12.611  0.2238  1.7146  0.9653
 8886TIP3   OH250852   3.342   4.114  12.241 -0.4047  0.3580 -0.0011
 8886TIP3    H150853   3.295   4.195  12.221 -1.3388  0.0142  0.7528
 8886TIP3    H250854   3.349   4.113  12.337  1.8794  0.7973 -0.0981
 8887TIP3   OH250855   6.139   1.689  10.736 -0.2536 -0.3411  0.4669
 8887TIP3    H150856   6.109   1.768  10.691 -1.6080 -1.6933 -1.1188
 8887TIP3    H250857   6.093   1.618  10.693  0.8934 -2.0229  1.8868
 8888TIP3   OH250858   2.685   1.737  12.537  0.0463  0.8330  0.0012
 8888TIP3    H150859   2.713   1.823  12.506  0.1944  1.1802  1.0418
 8888TIP3    H250860   2.709   1.676  12.466 -0.4936  1.7007 -0.9464
 8889TIP3   OH250861   6.563   6.828  10.867  0.3024  0.0229  0.3959
 8889TIP3    H150862   6.652   6.825  10.904 -0.1808 -0.5898  1.5410
 8889TIP3    H250863   6.573   6.788  10.781  1.2449  0.4722  0.2760
 8890TIP3   OH250864   5.071   6.155  10.587  0.0071  0.0871 -0.1144
 8890TIP3    H150865   4.984   6.122  10.610 -0.2182  0.8500  0.1731
 8890TIP3    H250866   5.054   6.227  10.526  0.4795 -0.2708 -0.6731
 8891TIP3   OH250867   1.789   7.613  12.264 -0.3358  0.3436  0.4516
 8891TIP3    H150868   1.735   7.683  12.302 -1.8270 -1.1594  1.2049
 8891TIP3    H250869   1.850   7.589  12.334 -1.2007 -0.4918  0.9373
 8892TIP3   OH250870   2.807   7.127  12.310  0.2868 -0.3933 -0.0194
 8892TIP3    H150871   2.796   7.199  12.248  0.3482 -1.2677 -1.0865
 8892TIP3    H250872   2.830   7.169  12.392  1.0155  0.7753 -0.7873
 8893TIP3   OH250873   3.963   5.995  13.354 -0.0463 -0.2339 -0.1992
 8893TIP3    H150874   3.971   6.006  13.449  1.7222 -1.8050 -0.0894
 8893TIP3    H250875   4.006   6.072  13.317 -1.5231  0.8237  0.2380
 8894TIP3   OH250876   6.264   6.199  11.971 -0.5057 -0.0088 -0.1656
 8894TIP3    H150877   6.270   6.215  12.065 -2.1278 -1.6785  0.2750
 8894TIP3    H250878   6.190   6.251  11.942  0.2063  0.7787 -0.6183
 8895TIP3   OH250879   3.815   3.668  13.275 -0.0879 -0.6737  0.2957
 8895TIP3    H150880   3.864   3.592  13.307 -1.3934 -2.0903 -0.9371
 8895TIP3    H250881   3.748   3.631  13.218 -1.0612  1.3905  0.0250
 8896TIP3   OH250882   3.901   5.025  13.248 -0.1795 -0.5219  0.1760
 8896TIP3    H150883   3.888   5.114  13.215  0.2809  1.0848  3.9404
 8896TIP3    H250884   3.813   4.986  13.246 -0.5635  0.3334 -0.5525
 8897TIP3   OH250885   1.549   3.999  10.755 -0.2314  0.6689  0.5778
 8897TIP3    H150886   1.640   3.999  10.785  0.1446 -0.9748 -0.3921
 8897TIP3    H250887   1.553   4.035  10.666 -0.4865  0.4485  0.4729
 8898TIP3   OH250888   5.186   1.585  10.808 -0.1945 -0.2171  0.0308
 8898TIP3    H150889   5.101   1.550  10.782 -0.1278  0.1155 -0.6642
 8898TIP3    H250890   5.214   1.531  10.882 -1.5980  0.4878  1.1209
 8899TIP3   OH250891   5.297   6.108  11.128  0.1295  0.0836 -0.4340
 8899TIP3    H150892   5.232   6.114  11.057 -0.6406 -1.3710  0.0899
 8899TIP3    H250893   5.294   6.193  11.171 -2.5090 -0.3445  0.4446
 8900TIP3   OH250894   3.060   0.650  12.273  0.3420  0.0150  0.1527
 8900TIP3    H150895   3.080   0.635  12.366 -0.8532  0.7280  0.5453
 8900TIP3    H250896   3.015   0.734  12.272 -0.5852 -0.4778 -0.9591
 8901TIP3   OH250897   2.441   1.734  11.796 -0.3452 -0.6443 -0.1203
 8901TIP3    H150898   2.366   1.677  11.810  0.9432 -1.8020  2.7311
 8901TIP3    H250899   2.425   1.809  11.853 -0.3695  0.2170 -1.2202
 8902TIP3   OH250900   2.238   5.728  12.098 -0.2438  0.3252 -0.1284
 8902TIP3    H150901   2.242   5.824  12.097 -1.1775  0.3686 -0.6921
 8902TIP3    H250902   2.280   5.703  12.180 -1.5438  1.3122  0.8778
 8903TIP3   OH250903   5.252   0.309  12.802 -0.0628  0.3331  0.6305
 8903TIP3    H150904   5.304   0.390  12.805  0.5091 -0.0538  1.2803
 8903TIP3    H250905   5.297   0.249  12.860 -1.6847  0.2509  1.9034
 8904TIP3   OH250906   6.580   3.617  10.363  0.5542  0.4060 -0.1382
 8904TIP3    H150907   6.565   3.710  10.351 -0.7886 -0.1352 -4.1818
 8904TIP3    H250908   6.673   3.605  10.343  0.6382  0.7870  0.0096
 8905TIP3   OH250909   6.410   7.236  12.134  0.3297 -0.2787  0.2160
 8905TIP3    H150910   6.484   7.198  12.182  0.1969  1.1135  1.6404
 8905TIP3    H250911   6.333   7.199  12.176  0.2203 -0.1344  0.1446
 8906TIP3   OH250912   5.435   1.891  10.691 -0.0348  0.1157 -0.4827
 8906TIP3    H150913   5.420   1.870  10.599  1.0065 -3.8810  0.0874
 8906TIP3    H250914   5.397   1.818  10.739  3.8783 -0.6522  1.9168
 8907TIP3   OH250915   5.725   4.334  11.667 -0.0744  0.1928 -0.4819
 8907TIP3    H150916   5.727   4.336  11.762 -0.3018  3.5634 -0.4326
 8907TIP3    H250917   5.655   4.272  11.645 -1.1332  0.5824  1.5828
 8908TIP3   OH250918   2.030   0.663  12.597  0.3348 -0.6881 -0.3274
 8908TIP3    H150919   2.062   0.640  12.684  0.8294 -2.6948 -1.0115
 8908TIP3    H250920   1.944   0.622  12.591  0.0495 -0.0761 -0.6046
 8909TIP3   OH250921   2.080   2.868  11.027  0.1309 -0.1328  0.2787
 8909TIP3    H150922   2.097   2.776  11.043  2.3008 -0.1191 -1.4495
 8909TIP3    H250923   1.990   2.881  11.056 -0.6352 -3.0555 -0.4372
 8910TIP3   OH250924   5.785   6.697  10.660 -0.4311 -0.5293  0.0801
 8910TIP3    H150925   5.760   6.710  10.751  3.3520 -1.1293  1.3972
 8910TIP3    H250926   5.801   6.785  10.627 -1.7012 -0.3161 -0.0122
 8911TIP3   OH250927   0.278   6.604  12.874 -0.2413 -0.1562  0.2318
 8911TIP3    H150928   0.252   6.586  12.784 -0.6651 -1.4079  0.5743
 8911TIP3    H250929   0.365   6.643  12.867  0.0602 -0.9430 -0.6932
 8912TIP3   OH250930   1.044   5.361  12.293 -0.6024 -0.3322 -0.0365
 8912TIP3    H150931   1.052   5.429  12.226 -1.6136 -0.7463 -0.5900
 8912TIP3    H250932   1.085   5.399  12.371 -1.8322  1.2148 -0.1143
 8913TIP3   OH250933   3.218   2.930  12.004 -0.2937  0.0380 -0.1995
 8913TIP3    H150934   3.277   2.895  11.938  1.0996  2.4635 -0.3946
 8913TIP3    H250935   3.254   2.898  12.087  0.5251  0.4053 -0.3999
 8914TIP3   OH250936   5.235   4.847  12.747 -0.2768 -0.9400  0.4905
 8914TIP3    H150937   5.199   4.890  12.824 -0.6133  0.8661 -0.6165
 8914TIP3    H250938   5.328   4.837  12.766 -0.2990 -0.2247  1.0133
 8915TIP3   OH250939   0.367   5.667  12.104  0.1056 -0.6965 -0.4138
 8915TIP3    H150940   0.352   5.761  12.110 -0.2295 -0.7482 -0.4154
 8915TIP3    H250941   0.279   5.629  12.100  0.1561 -1.1485  1.6169
 8916TIP3   OH250942   4.925   5.997  12.886 -0.0515  0.0059 -0.0858
 8916TIP3    H150943   4.960   5.911  12.863  3.7501  1.6443 -1.4038
 8916TIP3    H250944   4.869   6.021  12.812 -1.1060 -1.2761  0.2781
 8917TIP3   OH250945   1.312   4.754  11.330  0.5039 -0.3058  0.1907
 8917TIP3    H150946   1.356   4.691  11.387  0.5609  0.2158  0.7231
 8917TIP3    H250947   1.328   4.839  11.370 -2.8502 -0.2349  1.6460
 8918TIP3   OH250948   3.956   1.672  11.512  0.0848  0.1707 -0.3200
 8918TIP3    H150949   3.922   1.753  11.551 -0.5094  0.1148 -0.7153
 8918TIP3    H250950   4.043   1.662  11.551  0.7661  1.7622 -1.3331
 8919TIP3   OH250951   1.562   5.617  11.403 -0.7353 -0.4764  0.1951
 8919TIP3    H150952   1.649   5.608  11.365 -0.4124  1.9031  0.1728
 8919TIP3    H250953   1.578   5.628  11.497 -0.8610  0.9833  0.0790
 8920TIP3   OH250954   4.084   3.141  11.974  0.2791 -0.1631 -0.7981
 8920TIP3    H150955   4.020   3.179  12.034 -0.2903 -1.7422 -0.3475
 8920TIP3    H250956   4.055   3.168  11.887  0.7444  1.6166 -0.4249
 8921TIP3   OH250957   5.410   0.455  12.296 -0.0500  0.3671  0.2655
 8921TIP3    H150958   5.357   0.470  12.218  0.9355 -0.5340 -0.6058
 8921TIP3    H250959   5.349   0.418  12.359 -0.3481 -1.4800 -1.0164
 8922TIP3   OH250960   3.932   0.555  12.536  0.2834  0.1015  0.3042
 8922TIP3    H150961   3.932   0.648  12.556 -0.2658  0.1904 -0.0969
 8922TIP3    H250962   4.015   0.539  12.491  0.6313  0.2837  0.8743
 8923TIP3   OH250963   2.253   7.515  10.870  0.1589 -0.2465 -0.2047
 8923TIP3    H150964   2.220   7.585  10.926 -0.8266 -0.1239 -0.9156
 8923TIP3    H250965   2.347   7.534  10.862  0.0560  0.5257  0.2678
 8924TIP3   OH250966   1.651   4.935  11.747 -0.1901  0.0503  0.3550
 8924TIP3    H150967   1.663   4.858  11.803  0.8742  0.7120  1.0825
 8924TIP3    H250968   1.558   4.956  11.755 -0.5397 -1.2377  0.0086
 8925TIP3   OH250969   2.916   5.278  11.418  0.2451  0.4957 -0.9218
 8925TIP3    H150970   2.962   5.236  11.491 -1.3599  0.1665 -0.0572
 8925TIP3    H250971   2.984   5.293  11.352  1.5277 -0.1879  0.2010
 8926TIP3   OH250972   3.128   2.606  12.981  0.1252  0.2998  0.2453
 8926TIP3    H150973   3.161   2.692  12.953  2.1291 -1.0295 -1.8914
 8926TIP3    H250974   3.097   2.566  12.900  0.5478 -1.5098  0.9445
 8927TIP3   OH250975   3.481   4.784  11.749  0.2030  0.0308  0.1217
 8927TIP3    H150976   3.411   4.849  11.760 -0.1136 -0.0542 -1.2488
 8927TIP3    H250977   3.562   4.835  11.752  0.1466  0.1092  1.9141
 8928TIP3   OH250978   2.222   7.077  12.019  0.2345  0.1585 -0.2590
 8928TIP3    H150979   2.281   7.144  11.986 -0.7262  1.1335 -0.0746
 8928TIP3    H250980   2.279   7.016  12.066  0.9573  1.8869  1.2572
 8929TIP3   OH250981   0.346   1.828  11.142 -0.6240  0.2855 -0.4265
 8929TIP3    H150982   0.273   1.812  11.083 -0.8562 -0.1792 -0.0287
 8929TIP3    H250983   0.305   1.857  11.224 -0.2726  1.5821 -0.6912
 8930TIP3   OH250984   1.921   6.219  10.846 -0.7251 -0.1496  0.4060
 8930TIP3    H150985   1.989   6.177  10.794  0.2227  0.0345  1.4635
 8930TIP3    H250986   1.930   6.312  10.826 -0.0477 -0.0268  1.2250
 8931TIP3   OH250987   1.575   5.315  11.476 -0.3134  0.1466  0.3589
 8931TIP3    H150988   1.583   5.280  11.564 -0.4440 -1.2963 -0.1641
 8931TIP3    H250989   1.481   5.323  11.462 -0.3412 -0.7724 -0.0524
 8932TIP3   OH250990   4.823   3.417  12.062  0.2692 -0.5137 -0.3916
 8932TIP3    H150991   4.895   3.464  12.018 -0.8460  0.7863 -0.9221
 8932TIP3    H250992   4.798   3.475  12.133 -0.0259 -1.1346  0.0135
 8933TIP3   OH250993   1.366   2.196  10.974 -1.0609 -0.0519  0.1917
 8933TIP3    H150994   1.388   2.197  11.067 -1.2829 -0.9651  0.2695
 8933TIP3    H250995   1.324   2.280  10.958 -1.8031 -0.2254  1.1266
 8934TIP3   OH250996   6.806   7.514  11.126 -0.2597 -0.3364  0.6057
 8934TIP3    H150997   6.863   7.444  11.158 -0.7024 -0.7497  0.4994
 8934TIP3    H250998   6.845   7.538  11.041  0.4695  0.2390  1.0929
 8935TIP3   OH250999   3.509   2.630  13.224  0.2874  0.2178 -0.3116
 8935TIP3    H151000   3.587   2.575  13.221 -0.8907 -1.5086 -0.6172
 8935TIP3    H251001   3.441   2.574  13.262 -0.9454  1.4860 -0.5586
 8936TIP3   OH251002   3.476   7.310  13.647  0.5511  0.2496  0.5377
 8936TIP3    H151003   3.526   7.390  13.662  0.6459  0.3654 -0.3430
 8936TIP3    H251004   3.384   7.338  13.649  0.5791  0.3549  0.4073
 8937TIP3   OH251005   4.325   0.838  11.685 -0.1486 -0.5705 -0.4167
 8937TIP3    H151006   4.308   0.748  11.657 -1.4656 -0.2534 -0.7197
 8937TIP3    H251007   4.245   0.886  11.662  0.4121  0.6177  0.0075
 8938TIP3   OH251008   3.591   5.544  11.190  0.4701  0.0921  0.0212
 8938TIP3    H151009   3.663   5.576  11.135  2.5677 -1.2424  1.8058
 8938TIP3    H251010   3.530   5.505  11.128  2.3539 -0.6748 -1.4718
 8939TIP3   OH251011   7.175   3.764  11.921  0.6355  0.6725 -0.1151
 8939TIP3    H151012   7.155   3.761  11.828  1.0141  2.9894 -0.3324
 8939TIP3    H251013   7.179   3.672  11.948 -1.6471 -0.0157 -1.8797
 8940TIP3   OH251014   4.501   6.714  13.314  0.3667 -0.0471 -0.3878
 8940TIP3    H151015   4.458   6.799  13.306  2.6513  1.3706  1.2553
 8940TIP3    H251016   4.463   6.675  13.393 -1.2066 -0.9588 -1.5363
 8941TIP3   OH251017   6.084   4.361  12.764 -0.2393  0.0341 -0.0052
 8941TIP3    H151018   6.031   4.282  12.765  0.4328 -0.4200  0.3101
 8941TIP3    H251019   6.144   4.348  12.690 -0.3010  0.3708 -0.1169
 8942TIP3   OH251020   1.183   5.210  12.682  0.0121  0.1884  0.4665
 8942TIP3    H151021   1.222   5.296  12.666  0.9540 -0.1512  0.8870
 8942TIP3    H251022   1.096   5.215  12.641  1.0824  0.3909 -1.9239
 8943TIP3   OH251023   4.454   6.798  11.479 -0.1473  0.1935 -0.0470
 8943TIP3    H151024   4.455   6.888  11.513 -0.1907 -0.0072  0.5023
 8943TIP3    H251025   4.414   6.747  11.550  3.5291 -0.9360  1.4630
 8944TIP3   OH251026   0.431   6.231  12.307 -0.3657 -0.4661  0.2019
 8944TIP3    H151027   0.487   6.294  12.262 -1.1946 -0.6150 -1.0902
 8944TIP3    H251028   0.489   6.188  12.371  0.6897  0.1867 -0.2977
 8945TIP3   OH251029   0.902   2.239  11.255  0.5659 -0.6490 -0.7099
 8945TIP3    H151030   0.878   2.276  11.340 -2.0623  1.1863 -2.0909
 8945TIP3    H251031   0.937   2.313  11.206 -1.0487 -0.8436 -2.2474
 8946TIP3   OH251032   7.523   7.393  12.168 -0.0874 -0.0300  0.6826
 8946TIP3    H151033   7.435   7.428  12.179 -0.3050 -0.7375  1.2877
 8946TIP3    H251034   7.514   7.299  12.184  0.3088 -0.5545 -1.8076
 8947TIP3   OH251035   1.845   4.026  10.811  0.2220 -0.4013 -0.1676
 8947TIP3    H151036   1.900   3.980  10.874 -1.3056 -1.7262  0.2420
 8947TIP3    H251037   1.829   4.111  10.851  0.9372 -0.4565  0.2611
 8948TIP3   OH251038   2.131   2.128  10.866 -0.4663 -0.0040 -0.1934
 8948TIP3    H151039   2.075   2.161  10.797  0.0372 -0.5287 -0.8775
 8948TIP3    H251040   2.124   2.032  10.859 -1.8125 -0.0934  1.6592
 8949TIP3   OH251041   0.263   4.611  11.738 -0.0902  0.2436 -0.3065
 8949TIP3    H151042   0.190   4.636  11.795 -0.8576  1.1353 -1.6132
 8949TIP3    H251043   0.264   4.679  11.670  1.3745 -0.2813 -0.8424
 8950TIP3   OH251044   3.722   6.765  12.683  0.0212  0.4063  0.1880
 8950TIP3    H151045   3.681   6.849  12.702 -0.0794  0.0350  1.7347
 8950TIP3    H251046   3.808   6.769  12.726  0.1407 -0.1649  0.0208
 8951TIP3   OH251047   6.589   7.281  12.432 -0.3601 -0.7108  0.0876
 8951TIP3    H151048   6.563   7.197  12.395 -3.3976  0.6346 -1.1476
 8951TIP3    H251049   6.660   7.311  12.375 -0.6248 -1.5458 -0.7106
 8952TIP3   OH251050   3.307   0.955  11.932 -0.0969 -0.2012  0.2498
 8952TIP3    H151051   3.307   0.955  11.837 -1.2611 -0.9926  0.2260
 8952TIP3    H251052   3.224   0.913  11.956  0.5163 -0.6888  1.6142
 8953TIP3   OH251053   3.037   0.886  11.402 -0.2640  0.1844 -0.0616
 8953TIP3    H151054   3.130   0.863  11.402  0.2386  2.0657 -0.1797
 8953TIP3    H251055   3.003   0.850  11.320  0.1990 -1.0009  0.2427
 8954TIP3   OH251056   4.185   7.403  12.630 -0.1864 -1.0268  0.1544
 8954TIP3    H151057   4.098   7.367  12.619 -1.3677  1.2676  1.3576
 8954TIP3    H251058   4.208   7.386  12.721  0.2929 -0.8997  0.0639
 8955TIP3   OH251059   0.178   7.479  10.724 -0.1754  0.4943 -0.0139
 8955TIP3    H151060   0.233   7.411  10.763  0.1724  0.5432 -0.4185
 8955TIP3    H251061   0.208   7.485  10.634 -1.4783 -0.1585 -0.5197
 8956TIP3   OH251062   3.823   0.449  12.225  0.4710  0.2667 -0.3366
 8956TIP3    H151063   3.894   0.512  12.214  1.1828 -0.1628  1.4215
 8956TIP3    H251064   3.839   0.383  12.157  2.3853 -0.3512  0.6612
 8957TIP3   OH251065   2.418   0.888  13.156 -0.4196 -0.0018  0.1345
 8957TIP3    H151066   2.356   0.860  13.089 -0.2782 -0.5926  0.2435
 8957TIP3    H251067   2.502   0.889  13.112 -0.0064 -2.2360  0.7332
 8958TIP3   OH251068   4.687   1.165  11.883  0.0108 -0.2443  0.2894
 8958TIP3    H151069   4.759   1.161  11.946  0.2464 -1.1243 -0.0187
 8958TIP3    H251070   4.620   1.219  11.925  1.2698  1.5233  0.1388
 8959TIP3   OH251071   3.017   5.277  13.103 -0.1101 -0.4649 -0.2093
 8959TIP3    H151072   3.005   5.227  13.184 -2.0967  0.2830  0.0074
 8959TIP3    H251073   2.946   5.249  13.046  1.0723 -0.7458 -1.6218
 8960TIP3   OH251074   6.586   6.473  10.265  0.4262 -0.2960  0.0100
 8960TIP3    H151075   6.499   6.433  10.258  0.4698 -0.9093  2.3480
 8960TIP3    H251076   6.570   6.567  10.263 -0.3250 -0.4047  0.5488
 8961TIP3   OH251077   2.636   3.825  11.941 -0.0638 -0.0565  0.4901
 8961TIP3    H151078   2.687   3.800  11.864  1.3308  0.5446  1.1804
 8961TIP3    H251079   2.702   3.846  12.007 -1.2255  1.1317  1.3095
 8962TIP3   OH251080   6.459   3.665  11.577  0.2050  0.2813 -0.1015
 8962TIP3    H151081   6.430   3.746  11.536  0.2958  0.4874  0.2347
 8962TIP3    H251082   6.443   3.597  11.512  0.7742  0.6681 -0.6475
 8963TIP3   OH251083   1.904   0.827  11.682 -0.9205 -0.2976  0.2277
 8963TIP3    H151084   1.811   0.844  11.670 -1.3016 -2.2347  0.2254
 8963TIP3    H251085   1.913   0.809  11.775 -1.2524 -3.7310 -0.2987
 8964TIP3   OH251086   5.586   3.107  10.404  0.3243 -0.1516  0.5191
 8964TIP3    H151087   5.526   3.091  10.331 -0.8160  0.0382  1.3806
 8964TIP3    H251088   5.633   3.024  10.415 -0.2790 -0.5355  0.2686
 8965TIP3   OH251089   7.034   5.499  12.591 -0.1158 -0.2561 -0.0423
 8965TIP3    H151090   6.966   5.454  12.542 -2.8597 -0.6713  3.6698
 8965TIP3    H251091   7.070   5.433  12.651  1.1898  0.7665  0.3745
 8966TIP3   OH251092   0.466   2.407  11.054  0.4510  0.2333 -0.3839
 8966TIP3    H151093   0.386   2.355  11.046  1.0794 -0.7081 -0.7502
 8966TIP3    H251094   0.527   2.365  10.994  1.6807  0.0621  0.9441
 8967TIP3   OH251095   2.610   6.529  11.473  0.0998  0.5595  0.0622
 8967TIP3    H151096   2.549   6.468  11.432  0.6380  0.0705 -0.0277
 8967TIP3    H251097   2.663   6.475  11.532 -0.6093  1.2386  1.3681
 8968TIP3   OH251098   1.627   6.352  11.157 -0.2530  0.1573 -0.0916
 8968TIP3    H151099   1.624   6.313  11.070  1.5563 -3.7958  1.4223
 8968TIP3    H251100   1.540   6.336  11.193 -0.5040  0.4061 -0.5701
 8969TIP3   OH251101   1.650   2.537  11.400  0.4818 -0.5121  0.4603
 8969TIP3    H151102   1.733   2.492  11.384  0.5948 -0.4741  0.9268
 8969TIP3    H251103   1.645   2.603  11.330 -0.5567 -2.3995 -1.3531
 8970TIP3   OH251104   7.339   0.552  12.639 -0.9066  0.3771 -0.3019
 8970TIP3    H151105   7.366   0.593  12.556  0.0125  2.3499  0.8991
 8970TIP3    H251106   7.309   0.625  12.693  0.9843 -0.4400  2.0445
 8971TIP3   OH251107   2.484   1.980  13.163  0.1067 -0.4538 -0.6125
 8971TIP3    H151108   2.392   1.999  13.184  0.4502 -0.7778  1.4577
 8971TIP3    H251109   2.492   1.885  13.172  1.0877 -0.2424  1.6355
 8972TIP3   OH251110   0.302   6.508  11.382  0.0160  0.5874  0.4516
 8972TIP3    H151111   0.330   6.521  11.291  3.4318 -3.3939  0.6410
 8972TIP3    H251112   0.207   6.499  11.377  0.0973  0.3538 -2.7569
 8973TIP3   OH251113   4.241   5.083  11.733  0.9773  0.0487  1.5537
 8973TIP3    H151114   4.276   4.997  11.707  2.0174  0.4065  1.7343
 8973TIP3    H251115   4.295   5.146  11.686 -0.2960  0.6174  0.7925
 8974TIP3   OH251116   6.532   5.903  12.372  0.0960  0.2039  0.0497
 8974TIP3    H151117   6.560   5.992  12.351 -1.6882  0.9800  0.7509
 8974TIP3    H251118   6.545   5.895  12.466 -1.8304  0.5738  0.3931
 8975TIP3   OH251119   1.991   5.270  11.621 -0.1586 -0.1480 -0.3368
 8975TIP3    H151120   2.038   5.200  11.576 -1.2618 -1.3523  0.3130
 8975TIP3    H251121   2.010   5.258  11.713  0.3833  1.0035 -0.2776
 8976TIP3   OH251122   5.830   2.920  12.332  0.2477 -0.1242 -0.4408
 8976TIP3    H151123   5.830   2.920  12.428  0.1548 -1.1056 -0.4225
 8976TIP3    H251124   5.872   3.002  12.307  2.2138 -0.8021  0.4675
 8977TIP3   OH251125   7.384   2.405  10.622  0.4366  0.1094 -0.7111
 8977TIP3    H151126   7.422   2.319  10.604 -0.8822 -0.1559 -2.3735
 8977TIP3    H251127   7.295   2.387  10.653  0.6992  0.8418  0.5888
 8978TIP3   OH251128   4.989   5.858  10.668  0.4687  0.3677  0.0682
 8978TIP3    H151129   4.936   5.894  10.597 -0.3566  1.2167  1.0775
 8978TIP3    H251130   4.985   5.763  10.656  0.8119  0.5159 -1.3296
 8979TIP3   OH251131   5.441   5.593  10.843  0.2028  0.1226 -0.1046
 8979TIP3    H151132   5.473   5.506  10.865  1.0528  0.0860 -1.3746
 8979TIP3    H251133   5.384   5.617  10.917  1.2995 -0.7851  1.0851
 8980TIP3   OH251134   6.055   1.931  12.196 -0.2374 -0.3837 -0.2970
 8980TIP3    H151135   6.037   1.843  12.227  0.2721 -0.4192 -0.0950
 8980TIP3    H251136   6.142   1.925  12.154  0.6313  0.3977  1.3119
 8981TIP3   OH251137   6.770   2.688  10.661 -0.1088  0.1632 -0.4282
 8981TIP3    H151138   6.832   2.737  10.606  0.3607  0.2545  0.1735
 8981TIP3    H251139   6.714   2.755  10.700  0.8088  0.2822  0.7359
 8982TIP3   OH251140   0.462   1.545  12.509 -0.1858  0.0521 -0.4611
 8982TIP3    H151141   0.488   1.615  12.449  2.5462  0.1883  0.7091
 8982TIP3    H251142   0.502   1.466  12.472 -0.3460 -0.2552  0.0201
 8983TIP3   OH251143   0.638   6.925  12.313 -0.4156  0.2071  0.0523
 8983TIP3    H151144   0.610   6.946  12.402  0.0117  1.7500 -0.1658
 8983TIP3    H251145   0.605   6.997  12.259  0.4431 -0.0532 -0.8433
 8984TIP3   OH251146   6.961   0.747  11.837 -0.5235  0.2334  0.1483
 8984TIP3    H151147   7.052   0.745  11.808 -1.1022  1.5176 -2.0518
 8984TIP3    H251148   6.946   0.661  11.875  1.0282 -0.8418 -1.5002
 8985TIP3   OH251149   6.002   6.309  11.010  0.2107 -0.0548 -0.7236
 8985TIP3    H151150   6.012   6.403  10.992  1.3524  0.1030  0.5577
 8985TIP3    H251151   5.919   6.286  10.970 -0.7136  1.7890 -0.0155
 8986TIP3   OH251152   0.195   6.356  12.472  0.0172  0.1788 -0.1643
 8986TIP3    H151153   0.105   6.328  12.460 -0.7544  2.9929 -1.7543
 8986TIP3    H251154   0.231   6.361  12.383  1.3141  0.3451  0.3455
 8987TIP3   OH251155   7.345   3.622  12.484 -0.3510 -0.0228  0.3129
 8987TIP3    H151156   7.347   3.701  12.429 -1.2410 -0.1485  0.0934
 8987TIP3    H251157   7.367   3.551  12.423  0.8976  0.0956  0.6035
 8988TIP3   OH251158   4.924   2.560  12.535  0.2456  0.2091  0.0173
 8988TIP3    H151159   4.938   2.595  12.623  0.4621  2.5806 -0.9050
 8988TIP3    H251160   5.012   2.538  12.504  0.0181 -3.0953  1.2150
 8989TIP3   OH251161   5.625   4.038  11.609  0.6306  0.3889  0.4625
 8989TIP3    H151162   5.597   4.012  11.697  0.7140 -0.6852  0.1848
 8989TIP3    H251163   5.573   3.984  11.550  0.2559  1.4158 -0.1782
 8990TIP3   OH251164   6.038   5.665  11.256  0.3157  0.3625  0.3152
 8990TIP3    H151165   6.103   5.617  11.206  1.0087  0.3592  1.2003
 8990TIP3    H251166   6.076   5.753  11.267 -0.2795  0.6692 -0.0265
 8991TIP3   OH251167   4.201   0.163  11.059 -0.3047  0.0596 -0.8820
 8991TIP3    H151168   4.119   0.174  11.108 -0.1781  0.1641 -0.6909
 8991TIP3    H251169   4.233   0.076  11.086 -0.0706  0.2543 -0.5309
 8992TIP3   OH251170   3.408   1.069  12.957 -0.2511 -0.1494  0.2597
 8992TIP3    H151171   3.495   1.058  12.994  1.1096  1.2239 -2.2880
 8992TIP3    H251172   3.369   0.981  12.962  1.5940 -0.9951  0.6600
 8993TIP3   OH251173   4.133   0.247  11.500  0.7426 -0.1879  0.1313
 8993TIP3    H151174   4.115   0.249  11.405 -0.0022  1.3709  0.2603
 8993TIP3    H251175   4.221   0.283  11.508 -0.3211  2.6701  0.1665
 8994TIP3   OH251176   5.921   0.574  12.109 -0.2735 -0.3135  0.4886
 8994TIP3    H151177   5.972   0.494  12.099 -0.6900 -0.4574 -0.5758
 8994TIP3    H251178   5.839   0.546  12.148 -1.4797 -0.8588 -2.2019
 8995TIP3   OH251179   3.646   7.455  11.497 -0.2833  0.0445 -0.1918
 8995TIP3    H151180   3.708   7.464  11.569  0.2097  0.9757 -0.7080
 8995TIP3    H251181   3.697   7.478  11.419 -1.7337  2.8825 -0.4336
 8996TIP3   OH251182   0.618   1.875  11.123  0.4553  0.0768 -0.3150
 8996TIP3    H151183   0.523   1.866  11.127  0.3404  1.2026 -0.0849
 8996TIP3    H251184   0.638   1.950  11.179  1.4183  0.2270 -0.8198
 8997TIP3   OH251185   1.118   4.615  12.709  0.3142 -0.0593 -0.1673
 8997TIP3    H151186   1.121   4.710  12.700 -0.8260 -0.1634 -2.1925
 8997TIP3    H251187   1.038   4.598  12.759  1.4398  0.0681  1.7859
 8998TIP3   OH251188   1.518   0.338  12.568 -0.1853  0.7459 -0.3618
 8998TIP3    H151189   1.427   0.357  12.588 -0.3529 -0.9297  0.6978
 8998TIP3    H251190   1.561   0.424  12.568 -2.2431  2.0061 -4.1107
 8999TIP3   OH251191   4.805   5.570  12.878  0.1319  0.2346  0.2567
 8999TIP3    H151192   4.765   5.623  12.947 -3.1288 -0.8818 -0.5757
 8999TIP3    H251193   4.863   5.631  12.831 -0.2592  1.9026  1.8238
 9000TIP3   OH251194   6.053   5.730  10.419  1.2241  0.6222 -0.0658
 9000TIP3    H151195   6.143   5.709  10.395  0.1215 -0.9420 -3.4808
 9000TIP3    H251196   6.042   5.821  10.393  1.3779  0.3072 -1.2838
 9001TIP3   OH251197   4.790   6.550  11.413  0.0926 -1.1493 -0.0944
 9001TIP3    H151198   4.789   6.644  11.394  0.3658 -1.6285 -2.9781
 9001TIP3    H251199   4.727   6.539  11.484  0.1245  1.2063  0.3699
 9002TIP3   OH251200   0.602   5.367  10.474 -0.0143 -0.0931 -0.3448
 9002TIP3    H151201   0.616   5.418  10.554 -1.5407 -0.2957  0.0880
 9002TIP3    H251202   0.638   5.280  10.494  0.2917  0.0756 -0.1585
 9003TIP3   OH251203   4.786   6.062  12.054 -0.6256  0.1693  0.1315
 9003TIP3    H151204   4.774   5.973  12.022  0.9354 -0.7275  1.8367
 9003TIP3    H251205   4.710   6.079  12.110  0.3727 -1.2354  2.0479
 9004TIP3   OH251206   0.897   6.816  12.395  0.0654 -0.5859 -0.7816
 9004TIP3    H151207   0.869   6.760  12.467 -1.2386 -0.6183 -1.2832
 9004TIP3    H251208   0.821   6.871  12.377  0.6284 -0.0724 -1.6478
 9005TIP3   OH251209   2.751   0.601  11.659 -0.2154  0.3910  0.2526
 9005TIP3    H151210   2.844   0.607  11.637 -0.0322 -0.1857  0.8576
 9005TIP3    H251211   2.710   0.673  11.610  0.4935  0.4292 -0.2936
 9006TIP3   OH251212   6.439   4.318  11.982 -0.3382 -0.3978  0.3811
 9006TIP3    H151213   6.368   4.327  11.918 -0.9221 -0.7833  0.9660
 9006TIP3    H251214   6.517   4.307  11.928 -0.4842  1.5124 -0.2960
 9007TIP3   OH251215   3.401   7.449  11.310  0.7040 -0.1963 -0.2645
 9007TIP3    H151216   3.376   7.361  11.283  2.2771 -0.4803 -0.9222
 9007TIP3    H251217   3.456   7.435  11.387 -2.6441  0.5272  2.5133
 9008TIP3   OH251218   4.797   6.696  12.791  0.0776 -0.2899  0.1233
 9008TIP3    H151219   4.755   6.768  12.745  0.9177  0.2049  0.0963
 9008TIP3    H251220   4.816   6.730  12.878  0.5191 -0.4549  0.0981
 9009TIP3   OH251221   5.069   0.638  11.169  0.3817 -0.6371 -0.2581
 9009TIP3    H151222   5.082   0.570  11.235  1.2167 -1.1382 -0.9125
 9009TIP3    H251223   5.032   0.591  11.094  0.7532 -0.3414 -0.6307
 9010TIP3   OH251224   4.315   1.923  10.725 -0.2387  0.4973  0.8786
 9010TIP3    H151225   4.247   1.903  10.660 -0.1044 -0.7752  1.0871
 9010TIP3    H251226   4.396   1.926  10.674 -0.1828 -0.1288  0.9158
 9011TIP3   OH251227   0.481   5.590  12.388  0.0781  0.3272  0.0045
 9011TIP3    H151228   0.501   5.512  12.438 -0.2474  1.4498  1.9784
 9011TIP3    H251229   0.387   5.586  12.373  0.3948 -0.9030 -2.2280
 9012TIP3   OH251230   5.348   5.266  10.763 -0.0489  0.2335  0.0500
 9012TIP3    H151231   5.275   5.309  10.808  0.9513  1.7459  0.2915
 9012TIP3    H251232   5.338   5.291  10.671  0.9558  1.6532  0.3055
 9013TIP3   OH251233   3.956   5.922  12.668 -0.1559  0.5474 -0.6230
 9013TIP3    H151234   3.863   5.900  12.664  0.0531 -1.0572  1.4932
 9013TIP3    H251235   3.981   5.936  12.577 -2.1968 -0.1806 -1.3652
 9014TIP3   OH251236   5.887   5.489  10.477  0.2438  0.2148 -0.2141
 9014TIP3    H151237   5.931   5.555  10.423  2.5916 -0.7110  0.4406
 9014TIP3    H251238   5.844   5.539  10.546 -0.6894  1.2244 -1.4661
 9015TIP3   OH251239   4.027   6.915  12.373 -0.4387 -0.2370 -0.2813
 9015TIP3    H151240   3.935   6.909  12.349 -0.9212  2.0491  0.7869
 9015TIP3    H251241   4.037   6.853  12.446 -1.1506 -0.3972 -0.3162
 9016TIP3   OH251242   2.958   7.040  13.544  0.1723  0.4665 -0.2997
 9016TIP3    H151243   2.906   7.120  13.536  0.4073  0.5964 -0.5541
 9016TIP3    H251244   2.895   6.973  13.569  0.1154  0.9143  0.8688
 9017TIP3   OH251245   6.440   0.133  10.990  0.3799 -0.5834 -0.2171
 9017TIP3    H151246   6.353   0.168  10.975 -0.9271 -2.4529  2.2261
 9017TIP3    H251247   6.498   0.210  10.986 -1.4414  0.8059 -1.2175
 9018TIP3   OH251248   2.691   1.789  10.778 -0.1029  0.0538 -0.2418
 9018TIP3    H151249   2.752   1.738  10.832 -0.1589 -0.3071 -0.5145
 9018TIP3    H251250   2.740   1.868  10.756  0.6735 -0.6774 -1.3052
 9019TIP3   OH251251   4.110   6.431  13.380  0.2178 -0.4870 -0.6180
 9019TIP3    H151252   4.014   6.434  13.376  0.2717  1.4013 -1.1981
 9019TIP3    H251253   4.136   6.393  13.297  0.0104  0.7759 -1.2813
 9020TIP3   OH251254   5.123   6.456  10.714 -0.6380 -0.4118  0.1650
 9020TIP3    H151255   5.038   6.412  10.705 -1.6881  1.2830  1.2806
 9020TIP3    H251256   5.110   6.542  10.675  0.2545  0.2272  1.2092
 9021TIP3   OH251257   5.680   4.458  10.648  0.0245 -0.0808 -0.0204
 9021TIP3    H151258   5.618   4.426  10.714  0.5813 -0.8035  0.1612
 9021TIP3    H251259   5.639   4.537  10.613 -0.0186  0.6599  1.6158
 9022TIP3   OH251260   4.379   5.326  12.256  0.2265 -0.2247  0.0214
 9022TIP3    H151261   4.339   5.255  12.206  0.5896  1.6515 -3.1936
 9022TIP3    H251262   4.333   5.405  12.227  0.1530  1.0154  3.0880
 9023TIP3   OH251263   5.489   3.361  11.433 -0.2565 -0.5200 -0.0275
 9023TIP3    H151264   5.439   3.436  11.467  0.2696 -0.3829  0.4564
 9023TIP3    H251265   5.476   3.365  11.339  0.3501  0.6112 -0.0781
 9024TIP3   OH251266   7.382   4.878  11.290 -0.3297  0.0995 -0.9171
 9024TIP3    H151267   7.317   4.834  11.345  1.2268 -1.7044 -0.4177
 9024TIP3    H251268   7.350   4.969  11.284 -1.2990  0.0375  1.8073
 9025TIP3   OH251269   6.164   2.744  11.922  0.0766  0.2551  0.4673
 9025TIP3    H151270   6.212   2.774  11.845  1.2034  1.0355  1.4333
 9025TIP3    H251271   6.178   2.649  11.924  0.9772  0.3824  0.3268
 9026TIP3   OH251272   0.647   4.864  12.226 -0.5563  0.0059 -0.5438
 9026TIP3    H151273   0.650   4.891  12.318 -1.8363  1.0890 -0.7934
 9026TIP3    H251274   0.737   4.878  12.195 -0.1062 -0.3781  0.5348
 9027TIP3   OH251275   1.822   3.523  11.762  0.7283 -0.2496 -0.5580
 9027TIP3    H151276   1.865   3.476  11.833  1.8511  1.4233 -0.0749
 9027TIP3    H251277   1.741   3.557  11.800  0.1666 -1.2916 -0.7689
 9028TIP3   OH251278   6.290   4.792  13.021  0.1965 -0.1381 -0.3674
 9028TIP3    H151279   6.316   4.870  13.071  0.2397  0.2541 -0.9801
 9028TIP3    H251280   6.206   4.816  12.982 -1.1172 -1.3809  1.5494
 9029TIP3   OH251281   1.253   1.814  12.889  0.4092 -0.7296 -0.1898
 9029TIP3    H151282   1.250   1.830  12.984  0.3096 -0.9578 -0.1555
 9029TIP3    H251283   1.180   1.865  12.854  1.4703  0.7446 -0.3430
 9030TIP3   OH251284   4.831   6.922  10.211 -0.2839 -0.4237 -0.0071
 9030TIP3    H151285   4.881   6.948  10.288 -1.8138 -0.3331  1.0017
 9030TIP3    H251286   4.869   6.972  10.139 -0.6081  1.6421  1.1845
 9031TIP3   OH251287   3.820   4.051  11.529  0.0357  0.1201  0.0672
 9031TIP3    H151288   3.847   4.133  11.570 -0.2936 -0.3210  1.2320
 9031TIP3    H251289   3.740   4.026  11.575 -0.9780  0.1317 -1.6144
 9032TIP3   OH251290   4.886   6.625  10.921  0.0221 -0.5760  0.0241
 9032TIP3    H151291   4.798   6.610  10.955  0.2501  0.3888  1.1192
 9032TIP3    H251292   4.941   6.565  10.971  0.2819  0.4516  1.0175
 9033TIP3   OH251293   6.954   0.489  11.969  0.0519 -0.6582  0.2199
 9033TIP3    H151294   6.954   0.439  12.051  3.3980 -1.5893 -0.2062
 9033TIP3    H251295   6.920   0.428  11.904  0.2054 -0.9381  0.3996
 9034TIP3   OH251296   0.798   7.350  12.555  0.2662  0.0851  0.5334
 9034TIP3    H151297   0.858   7.425  12.551  2.3337 -1.4992  0.4226
 9034TIP3    H251298   0.841   7.287  12.613 -1.6851 -0.8247  1.0657
 9035TIP3   OH251299   3.313   0.550  11.941  0.5855 -0.0245 -0.2158
 9035TIP3    H151300   3.258   0.551  11.864 -0.0625  3.2191  0.1292
 9035TIP3    H251301   3.402   0.558  11.907  0.4114  0.0774 -0.6491
 9036TIP3   OH251302   4.429   2.113  10.963 -0.1039  0.2542  0.4221
 9036TIP3    H151303   4.515   2.151  10.978  0.7516 -1.1162 -0.7191
 9036TIP3    H251304   4.403   2.146  10.876 -0.0356 -0.5317  0.0955
 9037TIP3   OH251305   0.125   4.144  10.585  0.5439  0.3934 -0.1231
 9037TIP3    H151306   0.115   4.239  10.584  0.8131  0.4512 -2.4492
 9037TIP3    H251307   0.035   4.111  10.580  0.5107  0.5731 -0.8427
 9038TIP3   OH251308   4.601   0.384  12.380  0.3670  0.0495  0.3468
 9038TIP3    H151309   4.599   0.358  12.288 -1.5086 -1.0652  0.6449
 9038TIP3    H251310   4.534   0.452  12.388  0.6457  0.2738  0.8641
 9039TIP3   OH251311   4.408   4.184  12.849  0.6364  0.1585  0.1755
 9039TIP3    H151312   4.441   4.196  12.760  0.9512  1.4227  0.4411
 9039TIP3    H251313   4.480   4.213  12.905  0.1626  0.0996  0.8226
 9040TIP3   OH251314   2.848   1.808  13.199  0.6396  0.0754  0.0263
 9040TIP3    H151315   2.926   1.859  13.222  1.4657 -2.0123  2.2299
 9040TIP3    H251316   2.779   1.842  13.257  1.0353 -0.8575  1.0687
 9041TIP3   OH251317   2.375   2.026  12.683  0.0336  0.4513 -0.1468
 9041TIP3    H151318   2.355   1.949  12.630 -1.3000  0.7794 -0.1488
 9041TIP3    H251319   2.291   2.052  12.721  0.6809  1.1909  0.8244
 9042TIP3   OH251320   3.792   6.766  13.012 -0.7350 -0.2507 -0.2764
 9042TIP3    H151321   3.712   6.818  13.018 -0.3877  0.4118 -1.0811
 9042TIP3    H251322   3.849   6.801  13.080 -1.6718 -1.7702  1.3590
 9043TIP3   OH251323   0.037   3.665  10.831 -0.4588  0.4359 -0.0787
 9043TIP3    H151324   0.100   3.593  10.836  0.2281  1.0714  0.7034
 9043TIP3    H251325  -0.047   3.621  10.817 -0.1478 -0.5832  1.0215
 9044TIP3   OH251326   5.300   0.033  13.138 -0.1623 -0.1095 -0.2753
 9044TIP3    H151327   5.288   0.110  13.194  0.1888 -1.6293  2.0468
 9044TIP3    H251328   5.216  -0.014  13.144  0.0223 -0.5018 -0.6849
 9045TIP3   OH251329   2.479   6.214  10.966  0.6727  0.1491  0.3299
 9045TIP3    H151330   2.548   6.181  11.023 -0.2591  1.1060  2.1250
 9045TIP3    H251331   2.421   6.139  10.952  1.1266 -0.1997  0.3212
 9046TIP3   OH251332   2.747   0.967  10.853  0.1164 -0.5125 -0.1654
 9046TIP3    H151333   2.783   1.030  10.791  0.6591 -0.4897  0.1699
 9046TIP3    H251334   2.673   0.927  10.806 -0.6490  0.8240 -0.1498
 9047TIP3   OH251335   1.264   2.661  10.857 -0.6991 -0.3891  0.1070
 9047TIP3    H151336   1.338   2.697  10.810 -0.7353  1.5298  1.3962
 9047TIP3    H251337   1.187   2.695  10.811 -0.8406 -2.1605 -1.0684
 9048TIP3   OH251338   6.860   0.488  13.224 -0.0658  0.1653  0.2249
 9048TIP3    H151339   6.774   0.452  13.249  1.0385 -2.2243  0.8848
 9048TIP3    H251340   6.865   0.571  13.270 -1.6083 -0.1287  1.0071
 9049TIP3   OH251341   5.541   1.423  12.008 -0.0141  0.3490  0.3947
 9049TIP3    H151342   5.610   1.442  11.945 -1.2653  0.4486 -0.9961
 9049TIP3    H251343   5.587   1.404  12.090  1.6571 -0.0621 -0.6083
 9050TIP3   OH251344   3.671   5.861  12.667 -0.3068 -0.2834 -0.0067
 9050TIP3    H151345   3.640   5.880  12.579 -0.4546  0.3529  0.1765
 9050TIP3    H251346   3.591   5.854  12.720 -0.2555 -1.2895 -0.0292
 9051TIP3   OH251347   1.519   4.624  13.200  0.6637 -0.0698 -1.0245
 9051TIP3    H151348   1.469   4.705  13.199  1.9169  0.7318 -0.9877
 9051TIP3    H251349   1.610   4.652  13.207  1.1639 -1.4599 -1.5928
 9052TIP3   OH251350   6.230   5.323  10.449 -0.4128  0.0520 -0.2588
 9052TIP3    H151351   6.164   5.325  10.519 -0.6256  1.6158 -0.4662
 9052TIP3    H251352   6.189   5.369  10.376  0.8141  0.8436 -0.4701
 9053TIP3   OH251353   7.488   5.219  10.746  0.5783  0.1712  0.1629
 9053TIP3    H151354   7.582   5.226  10.731  0.5325 -1.5203 -1.3099
 9053TIP3    H251355   7.477   5.235  10.839  2.0772  2.2092  0.0574
 9054TIP3   OH251356   5.210   1.383  12.405  0.1299 -0.0538 -0.2641
 9054TIP3    H151357   5.219   1.433  12.486  0.5996  0.2096 -0.4795
 9054TIP3    H251358   5.257   1.301  12.423  0.3143  0.0431 -0.3038
 9055TIP3   OH251359   5.248   5.466  12.972  0.0781  0.7500  0.1947
 9055TIP3    H151360   5.336   5.485  12.941 -0.4365  0.4564 -1.5505
 9055TIP3    H251361   5.257   5.384  13.022  0.6691  0.2620 -0.6817
 9056TIP3   OH251362   2.915   4.301  10.854 -0.7050  0.1227 -0.0525
 9056TIP3    H151363   2.851   4.233  10.875  0.6410 -0.5747  2.1455
 9056TIP3    H251364   2.997   4.255  10.843 -0.4322  1.0408 -2.5442
 9057TIP3   OH251365   1.429   4.863  10.673 -0.3118 -0.3204 -0.4688
 9057TIP3    H151366   1.522   4.885  10.674 -0.5517  0.7331  0.8026
 9057TIP3    H251367   1.388   4.934  10.623 -0.5717 -0.1065  0.0361
 9058TIP3   OH251368   5.222   2.235  10.457 -0.6044 -0.3529  0.5041
 9058TIP3    H151369   5.302   2.288  10.452 -0.3566 -0.6748  0.9266
 9058TIP3    H251370   5.167   2.268  10.386 -0.1497 -0.0389  0.2870
 9059TIP3   OH251371   2.509   1.066  12.158  0.4798  0.4857 -0.5279
 9059TIP3    H151372   2.575   1.118  12.205 -0.2090  0.4415  0.5200
 9059TIP3    H251373   2.511   1.101  12.069  1.5396  0.8461 -0.3806
 9060TIP3   OH251374   1.391   3.737  12.298 -0.3354  0.1912 -0.1706
 9060TIP3    H151375   1.338   3.700  12.369 -1.2735  1.5957 -0.1122
 9060TIP3    H251376   1.416   3.824  12.329 -0.8345  0.8586 -1.5819
 9061TIP3   OH251377   2.216   2.355  11.101 -0.1714 -0.2739  0.4424
 9061TIP3    H151378   2.154   2.282  11.108 -0.5152 -0.1098 -0.6906
 9061TIP3    H251379   2.299   2.314  11.078 -0.8858 -0.2073 -2.7374
 9062TIP3   OH251380   0.667   7.650  10.893  0.5708 -0.4073  0.0959
 9062TIP3    H151381   0.703   7.737  10.874 -2.5441  0.3156 -3.6684
 9062TIP3    H251382   0.609   7.665  10.969  0.9703  0.5160  0.2348
 9063TIP3   OH251383   2.578   2.733  10.537 -0.1787  0.1406 -0.1280
 9063TIP3    H151384   2.513   2.663  10.534  1.9469 -2.1073  1.7338
 9063TIP3    H251385   2.628   2.723  10.457 -0.3437  0.0130 -0.2165
 9064TIP3   OH251386   4.002   5.109  11.873  0.2532  0.1523 -0.1520
 9064TIP3    H151387   3.997   5.202  11.891 -0.8879  0.0243  0.2743
 9064TIP3    H251388   4.090   5.096  11.838  0.1255  1.5235 -1.0521
 9065TIP3   OH251389   6.138   0.938  10.945 -1.0432  0.2985 -0.5631
 9065TIP3    H151390   6.123   0.927  11.038  2.7842 -1.3361  0.0695
 9065TIP3    H251391   6.158   1.031  10.934  1.0441  0.0741  0.8342
 9066TIP3   OH251392   0.463   5.546  11.310 -0.3375 -0.3189  0.0153
 9066TIP3    H151393   0.507   5.518  11.229 -1.3865  0.0416 -0.7043
 9066TIP3    H251394   0.383   5.493  11.313 -1.1777  0.9128 -0.1217
 9067TIP3   OH251395   4.311   5.911  10.730 -0.1095  0.3451  0.0129
 9067TIP3    H151396   4.241   5.867  10.681 -0.7402  0.0679  1.1447
 9067TIP3    H251397   4.270   5.939  10.811  0.9975  0.5716  0.5142
 9068TIP3   OH251398   3.460   1.499  12.480  0.5267 -0.2576 -0.3652
 9068TIP3    H151399   3.389   1.515  12.419  0.3605  0.6192  0.0439
 9068TIP3    H251400   3.424   1.438  12.545  0.4458 -0.5344 -0.6675
 9069TIP3   OH251401   2.989   5.739  12.223  0.2697  0.4322 -0.0741
 9069TIP3    H151402   2.959   5.709  12.310 -1.0552  0.2041 -0.5886
 9069TIP3    H251403   2.993   5.834  12.230  1.6339  0.3430  0.6782
 9070TIP3   OH251404   0.225   2.970  12.153 -0.1718  0.5614  0.0202
 9070TIP3    H151405   0.225   2.933  12.241  1.1650  0.9734  0.2110
 9070TIP3    H251406   0.144   3.021  12.148 -2.1709 -2.3938 -0.2898
 9071TIP3   OH251407   0.774   6.318  11.090 -0.4044 -0.5906 -0.1252
 9071TIP3    H151408   0.840   6.253  11.114  0.0938  0.5075  1.6372
 9071TIP3    H251409   0.694   6.289  11.134 -0.0104  0.3042  1.2444
 9072TIP3   OH251410   3.723   6.955  10.900  0.1368  0.1029 -0.1463
 9072TIP3    H151411   3.710   6.953  10.995 -0.5131  0.1301 -0.2282
 9072TIP3    H251412   3.725   6.863  10.874 -1.9034  0.0789 -0.3748
 9073TIP3   OH251413   3.476   1.059  10.990  0.1970 -0.2188  0.6754
 9073TIP3    H151414   3.433   1.131  10.943 -0.3127 -1.0936 -0.2507
 9073TIP3    H251415   3.561   1.050  10.948  0.1444 -0.3370  0.5914
 9074TIP3   OH251416   6.518   7.191  11.876  0.0040  0.0110  0.2953
 9074TIP3    H151417   6.463   7.203  11.954  2.7183  1.0992  2.2138
 9074TIP3    H251418   6.606   7.214  11.906  1.3107 -0.3209 -2.9410
 9075TIP3   OH251419   1.428   3.147  11.079 -0.4453  0.1482  0.3544
 9075TIP3    H151420   1.435   3.077  11.144 -0.2038  1.1251  1.4093
 9075TIP3    H251421   1.514   3.150  11.038 -0.8324 -0.9984 -0.5995
 9076TIP3   OH251422   1.860   1.333  10.988  0.4524 -0.9379  0.4165
 9076TIP3    H151423   1.924   1.368  10.925  1.7208 -1.6374  1.2819
 9076TIP3    H251424   1.777   1.336  10.941  0.7864  1.5966 -0.1617
 9077TIP3   OH251425   5.359   0.761  11.516 -0.4580 -0.1697 -0.0210
 9077TIP3    H151426   5.427   0.825  11.534  2.7518 -3.9015  2.7986
 9077TIP3    H251427   5.300   0.766  11.592 -1.7370  1.0133 -1.0314
 9078TIP3   OH251428   0.720   1.942  12.175 -0.7633 -0.0655  0.8189
 9078TIP3    H151429   0.686   1.965  12.262 -0.0292  1.3269  0.7450
 9078TIP3    H251430   0.668   1.995  12.115  0.3434  0.7845  0.5887
 9079TIP3   OH251431   5.907   6.239  10.340 -0.5689 -0.2312 -0.4981
 9079TIP3    H151432   5.870   6.268  10.423  0.0637 -0.0605 -0.2659
 9079TIP3    H251433   5.836   6.250  10.276 -0.7420  0.6216 -0.1765
 9080TIP3   OH251434   5.637   4.433  12.246  0.1054 -0.3650 -0.0255
 9080TIP3    H151435   5.571   4.456  12.181 -0.6606  0.1046  0.8860
 9080TIP3    H251436   5.589   4.387  12.315  1.2220 -2.6262 -0.6717
 9081TIP3   OH251437   1.256   1.641  11.124  0.2462 -0.4773 -0.1830
 9081TIP3    H151438   1.280   1.731  11.104  1.0205 -0.9223 -1.2914
 9081TIP3    H251439   1.164   1.635  11.098 -0.2436  0.3585  1.2067
 9082TIP3   OH251440   3.936   1.258  11.054 -0.4659  0.2644 -0.5197
 9082TIP3    H151441   3.909   1.189  11.115 -0.8281  1.4614  0.7000
 9082TIP3    H251442   4.023   1.283  11.083 -0.2889  0.2535 -1.0343
 9083TIP3   OH251443   4.621   4.745  11.126 -0.0726  0.2231 -0.5227
 9083TIP3    H151444   4.634   4.798  11.047  0.4596  1.0294  0.0874
 9083TIP3    H251445   4.658   4.659  11.104 -2.2266 -0.3865 -2.0244
 9084TIP3   OH251446   2.608   5.958  10.816  0.4753  0.2886 -0.4535
 9084TIP3    H151447   2.664   5.881  10.830  2.1401  1.6901  1.3282
 9084TIP3    H251448   2.559   5.967  10.898 -3.6985 -1.7100 -2.4308
 9085TIP3   OH251449   6.802   4.004  12.985 -0.4620 -0.4198  0.0582
 9085TIP3    H151450   6.876   3.978  13.039 -1.5243  0.1977  1.8971
 9085TIP3    H251451   6.776   4.090  13.019 -0.8895  0.2349 -1.7667
 9086TIP3   OH251452   5.374   4.776  10.225 -0.8557 -0.1573 -0.1985
 9086TIP3    H151453   5.368   4.717  10.300 -2.1553  0.8191  0.5005
 9086TIP3    H251454   5.310   4.845  10.243 -0.0791  0.9480 -1.4556
 9087TIP3   OH251455   0.406   0.545  11.572  0.0130  0.1749  0.0063
 9087TIP3    H151456   0.423   0.638  11.585 -1.1841  0.2624  1.2843
 9087TIP3    H251457   0.375   0.515  11.658  0.3436 -1.3902 -0.3973
 9088TIP3   OH251458   6.759   2.590  12.725 -0.0277  0.0271 -0.9270
 9088TIP3    H151459   6.740   2.525  12.657 -0.4159 -0.1030 -0.6998
 9088TIP3    H251460   6.778   2.539  12.803  0.9186  0.1680 -1.0554
 9089TIP3   OH251461   6.719   4.532  10.309  0.4385 -0.6451 -0.1006
 9089TIP3    H151462   6.637   4.514  10.264  0.1511 -0.5050  0.3573
 9089TIP3    H251463   6.724   4.628  10.312  1.8305 -0.5773 -2.3041
 9090TIP3   OH251464   3.172   2.345  11.161 -1.0140 -0.4176  0.2826
 9090TIP3    H151465   3.083   2.344  11.195 -0.6285 -0.6943  1.3253
 9090TIP3    H251466   3.226   2.316  11.235 -0.1520 -1.1075 -0.5957
 9091TIP3   OH251467   2.116   6.041  12.373  0.2246  0.0841  0.3335
 9091TIP3    H151468   2.183   6.045  12.305  0.2341 -1.5129  0.2121
 9091TIP3    H251469   2.164   6.045  12.456  0.4052 -0.2204  0.2444
 9092TIP3   OH251470   1.604   1.368  10.863  0.5837  0.5014  0.1654
 9092TIP3    H151471   1.624   1.449  10.815  0.9423 -1.5371 -3.5491
 9092TIP3    H251472   1.509   1.362  10.861  0.6259 -0.1447 -1.5403
 9093TIP3   OH251473   7.119   4.907  12.780  0.1317 -0.3119  0.3722
 9093TIP3    H151474   7.122   4.844  12.707  0.8749 -0.1538  0.2554
 9093TIP3    H251475   7.198   4.889  12.830 -0.8229 -1.0263  1.6716
 9094TIP3   OH251476   3.405   0.250  13.471 -0.6753 -0.1170  0.2511
 9094TIP3    H151477   3.360   0.320  13.425 -0.9246 -1.1555 -1.1556
 9094TIP3    H251478   3.498   0.267  13.455 -0.6678  0.5560  0.9503
 9095TIP3   OH251479   6.402   3.147  12.422  0.0364  0.4819 -0.4439
 9095TIP3    H151480   6.497   3.149  12.419  0.0623  1.0404  0.2937
 9095TIP3    H251481   6.382   3.079  12.487 -0.0285  1.2468  0.3511
 9096TIP3   OH251482   6.205   2.609  11.225  0.3036  0.0667  0.5413
 9096TIP3    H151483   6.238   2.545  11.289  0.2862 -1.4397 -0.8711
 9096TIP3    H251484   6.140   2.560  11.174 -1.5175  1.9608  0.9524
 9097TIP3   OH251485   5.050   2.676  12.772 -0.5000 -0.6704 -0.1696
 9097TIP3    H151486   5.118   2.610  12.786 -1.1966 -0.9886  2.0505
 9097TIP3    H251487   5.009   2.687  12.857 -2.7494  0.0733 -1.2712
 9098TIP3   OH251488   5.406   4.459  12.092  0.2005 -0.1360  0.0831
 9098TIP3    H151489   5.313   4.441  12.081  0.1099  1.3105 -2.0983
 9098TIP3    H251490   5.409   4.549  12.123  0.8687 -0.8889  2.4094
 9099TIP3   OH251491   4.126   1.323  11.381  0.1800  0.2167  0.1863
 9099TIP3    H151492   4.151   1.233  11.404 -0.4746  0.1216  0.5564
 9099TIP3    H251493   4.154   1.375  11.456  0.3353  0.2877  0.0799
 9100TIP3   OH251494   3.057   7.391  12.526 -0.0525 -0.3977 -0.1965
 9100TIP3    H151495   3.122   7.328  12.556  1.5400  1.6777  1.0211
 9100TIP3    H251496   3.016   7.424  12.606 -0.6554  0.2909 -0.7696
 9101TIP3   OH251497   2.993   4.663  10.783 -0.0460  0.1293 -0.1496
 9101TIP3    H151498   3.041   4.675  10.702  0.0478  1.2736  0.0622
 9101TIP3    H251499   2.906   4.633  10.756  0.1350  0.0471 -0.6409
 9102TIP3   OH251500   4.382   2.726  12.596  0.0812  0.2816 -0.0554
 9102TIP3    H151501   4.459   2.767  12.635  0.5547  0.9842 -1.6503
 9102TIP3    H251502   4.331   2.798  12.561 -0.5721 -0.2852 -0.2918
 9103TIP3   OH251503   3.906   6.780  11.817  0.0335 -0.2304 -1.1238
 9103TIP3    H151504   3.951   6.756  11.898 -0.9276 -2.9503 -1.3052
 9103TIP3    H251505   3.862   6.863  11.837  0.2057 -0.6049  0.9727
 9104TIP3   OH251506   2.209   2.729  11.906  0.1018  0.2280 -0.2961
 9104TIP3    H151507   2.135   2.705  11.961 -0.0149  0.9857 -0.1018
 9104TIP3    H251508   2.245   2.808  11.947 -0.8564  1.6741 -2.0430
 9105TIP3   OH251509   7.428   6.122  11.334 -0.0987  0.4600 -0.1594
 9105TIP3    H151510   7.373   6.073  11.274  1.8530  1.0889 -2.6163
 9105TIP3    H251511   7.509   6.072  11.339  0.8784  1.9631 -0.4736
 9106TIP3   OH251512   2.141   1.452  12.200 -0.3651  0.1924 -0.1540
 9106TIP3    H151513   2.199   1.453  12.276 -1.7384  0.2972  0.9454
 9106TIP3    H251514   2.160   1.369  12.156  1.7327  0.9444 -0.7690
 9107TIP3   OH251515   3.025   5.754  10.837 -0.1327  0.3350  0.1232
 9107TIP3    H151516   3.010   5.684  10.773  0.2883  1.2564 -1.0280
 9107TIP3    H251517   3.119   5.775  10.828  0.1491 -0.1403  1.7126
 9108TIP3   OH251518   6.349   6.170  11.191  0.4716 -0.4435  0.4063
 9108TIP3    H151519   6.333   6.228  11.265 -0.3650  0.6607 -0.5970
 9108TIP3    H251520   6.406   6.101  11.226  1.7668  1.1454  1.5426
 9109TIP3   OH251521   4.291   5.869  12.038  0.2458 -0.0061  0.0424
 9109TIP3    H151522   4.320   5.789  12.082 -1.3932 -0.4321  0.4200
 9109TIP3    H251523   4.219   5.901  12.092 -1.3272 -0.1051 -1.8872
 9110TIP3   OH251524   7.479   3.801  10.547 -0.7773 -0.1122  0.3513
 9110TIP3    H151525   7.491   3.890  10.579  1.6030 -0.0287 -0.5901
 9110TIP3    H251526   7.507   3.746  10.620  2.2637  0.0478 -0.5751
 9111TIP3   OH251527   1.790   6.777  12.508  0.0485  0.0239 -0.5111
 9111TIP3    H151528   1.858   6.822  12.558  1.1245 -0.7480 -1.2274
 9111TIP3    H251529   1.725   6.845  12.489  0.2985  0.6367  0.7268
 9112TIP3   OH251530   2.781   1.036  11.416 -0.0335  0.2799  0.3744
 9112TIP3    H151531   2.758   1.046  11.323  0.1969  1.2625  0.4127
 9112TIP3    H251532   2.866   0.993  11.415 -0.7460 -1.1832  0.1800
 9113TIP3   OH251533   4.490   5.086  10.973  0.1816  0.4387  0.0978
 9113TIP3    H151534   4.413   5.047  10.932 -0.6685  0.4976  1.5811
 9113TIP3    H251535   4.563   5.031  10.945 -0.8786 -1.8732  1.5664
 9114TIP3   OH251536   2.178   3.403  11.877  0.1490  0.2563  0.7506
 9114TIP3    H151537   2.202   3.344  11.948 -1.8580 -0.5598  0.8199
 9114TIP3    H251538   2.100   3.449  11.910 -0.2353  0.5718 -0.5379
 9115TIP3   OH251539   6.686   1.792  11.312  0.0714  0.1885 -0.0094
 9115TIP3    H151540   6.626   1.718  11.313  0.5183 -0.1823  0.9461
 9115TIP3    H251541   6.657   1.847  11.386  0.3483  0.4587 -0.0997
 9116TIP3   OH251542   0.446   1.796  12.358 -0.2939  0.0021 -0.5840
 9116TIP3    H151543   0.382   1.866  12.359 -0.6851 -0.3579 -0.0673
 9116TIP3    H251544   0.420   1.740  12.284 -2.8403 -2.1839  1.7678
 9117TIP3   OH251545   2.474   6.386  12.749 -0.2059  0.4486 -0.1165
 9117TIP3    H151546   2.433   6.442  12.814 -0.9591  0.7911 -0.8668
 9117TIP3    H251547   2.454   6.297  12.777 -1.9531  0.6052 -0.7380
 9118TIP3   OH251548   0.092   2.780  12.718 -0.0802  0.0790 -0.0839
 9118TIP3    H151549   0.115   2.720  12.788  0.5261  1.4985  0.9756
 9118TIP3    H251550   0.034   2.729  12.661  0.9850 -1.7330  0.3521
 9119TIP3   OH251551   3.997   0.211  10.525  0.1243  0.8125  0.7785
 9119TIP3    H151552   4.063   0.150  10.556  0.3079  1.0483  0.8507
 9119TIP3    H251553   4.039   0.297  10.529 -0.5317  1.0968  1.8113
 9120TIP3   OH251554   0.333   4.478  10.777  0.3296  0.6075 -0.3746
 9120TIP3    H151555   0.344   4.383  10.768  1.9658  0.7376 -0.0862
 9120TIP3    H251556   0.255   4.498  10.726  0.2289 -0.8234 -0.8385
 9121TIP3   OH251557   1.240   1.461  11.328  0.1654 -0.4137  0.3628
 9121TIP3    H151558   1.295   1.504  11.393  1.8002 -1.2070 -0.4510
 9121TIP3    H251559   1.243   1.519  11.252 -1.2487  0.2050  0.7338
 9122TIP3   OH251560   6.009   3.445  12.271 -0.2593  0.4992 -0.4640
 9122TIP3    H151561   6.000   3.536  12.301 -1.2865  0.1029  0.5116
 9122TIP3    H251562   6.041   3.453  12.181  0.3133  1.8061 -0.1795
 9123TIP3   OH251563   2.108   6.487  12.628 -0.3336  0.6666 -0.9659
 9123TIP3    H151564   2.144   6.575  12.632  0.4769  0.3943 -2.0010
 9123TIP3    H251565   2.138   6.445  12.709 -0.3164  1.1813 -0.7030
 9124TIP3   OH251566   4.342   5.743  13.543  0.5903 -0.0994  0.2415
 9124TIP3    H151567   4.386   5.827  13.543  0.6666 -0.1339  0.7542
 9124TIP3    H251568   4.322   5.725  13.451  0.2172  0.6643  0.1719
 9125TIP3   OH251569   2.237   3.127  11.488  0.2028 -0.3305 -0.4198
 9125TIP3    H151570   2.280   3.043  11.502  3.5910  1.4386  0.7791
 9125TIP3    H251571   2.303   3.182  11.445 -1.2639  2.2392  0.3565
 9126TIP3   OH251572   6.520   4.741  12.804 -0.3211 -0.0659 -0.1730
 9126TIP3    H151573   6.444   4.765  12.856 -0.9450 -2.1947 -0.0131
 9126TIP3    H251574   6.485   4.686  12.734  0.8170  0.7251 -1.4116
 9127TIP3   OH251575   5.640   2.632  12.010 -0.1571 -0.2559  0.4312
 9127TIP3    H151576   5.554   2.589  12.004 -0.4087  0.4337 -2.2599
 9127TIP3    H251577   5.621   2.717  12.049 -0.8234  0.0713 -0.5557
 9128TIP3   OH251578   0.920   4.867  12.858 -0.1562  0.3522 -0.0255
 9128TIP3    H151579   0.898   4.774  12.859 -2.7153  0.8896 -0.6237
 9128TIP3    H251580   0.934   4.890  12.950 -0.8457 -0.3317  0.2544
 9129TIP3   OH251581   0.356   5.406  10.687 -0.3967 -0.0392 -0.0838
 9129TIP3    H151582   0.388   5.316  10.689  2.1815  0.7838 -0.8391
 9129TIP3    H251583   0.418   5.456  10.739 -1.9285  1.3075  0.5525
 9130TIP3   OH251584   7.641   7.490  11.533  0.2555  0.0482  0.1737
 9130TIP3    H151585   7.565   7.538  11.565 -0.5913 -1.0336 -0.1668
 9130TIP3    H251586   7.631   7.402  11.570  1.4191 -0.0676  0.2418
 9131TIP3   OH251587   0.462   2.979  12.047  0.4887  0.0549  0.1686
 9131TIP3    H151588   0.387   2.947  12.097  0.9226 -0.1394  0.7047
 9131TIP3    H251589   0.531   2.993  12.112  0.9015  0.2861 -0.3070
 9132TIP3   OH251590   0.743   1.614  11.855  0.4673 -0.9072 -0.1536
 9132TIP3    H151591   0.753   1.633  11.948  1.0075  0.5914 -0.4788
 9132TIP3    H251592   0.744   1.701  11.813  0.1030 -1.5464 -1.5349
 9133TIP3   OH251593   5.704   5.293  12.278  0.1818  0.2919  0.2141
 9133TIP3    H151594   5.615   5.319  12.255  0.1857 -0.2075 -0.4087
 9133TIP3    H251595   5.760   5.356  12.232  0.1723 -0.2861 -0.6285
 9134TIP3   OH251596   0.534   2.423  11.336  0.3039  0.2932  0.1080
 9134TIP3    H151597   0.492   2.426  11.249  1.2145 -0.7132 -0.3849
 9134TIP3    H251598   0.612   2.477  11.326 -0.1974  1.1299  0.6551
 9135TIP3   OH251599   0.444   1.370  12.100 -0.1242 -0.4929 -0.2219
 9135TIP3    H151600   0.476   1.385  12.011 -1.5172 -1.7001 -0.9772
 9135TIP3    H251601   0.364   1.319  12.088  0.1314 -1.4593  1.7644
 9136TIP3   OH251602   4.127   4.868  13.153 -0.0693 -0.1162 -0.0736
 9136TIP3    H151603   4.058   4.935  13.158  0.8694  0.7889  1.7345
 9136TIP3    H251604   4.083   4.792  13.115 -0.9963  1.6822 -3.0097
 9137TIP3   OH251605   5.124   5.644  11.295  0.1615 -0.5958  0.2344
 9137TIP3    H151606   5.055   5.596  11.342  0.0824  0.4128  1.1886
 9137TIP3    H251607   5.082   5.725  11.266  0.5724 -0.6107 -0.4281
 9138TIP3   OH251608   4.494   1.601  12.475 -0.8566  0.3798 -0.4558
 9138TIP3    H151609   4.505   1.696  12.479 -0.5337  0.4696 -2.3203
 9138TIP3    H251610   4.399   1.588  12.480 -0.8840  0.7783  0.1280
 9139TIP3   OH251611   6.630   6.145  12.306  1.1595 -0.4883 -1.3216
 9139TIP3    H151612   6.713   6.117  12.344 -0.0038 -1.7416  0.4320
 9139TIP3    H251613   6.637   6.241  12.302  1.8838 -0.4133  0.7896
 9140TIP3   OH251614   1.994   4.765  12.954 -0.3245 -0.4809  0.7163
 9140TIP3    H151615   2.076   4.717  12.938 -1.3049 -1.8606 -0.3826
 9140TIP3    H251616   1.984   4.765  13.049  0.3962 -1.2704  0.8026
 9141TIP3   OH251617   5.882   0.987  12.463  0.5200  0.3640 -0.4607
 9141TIP3    H151618   5.894   0.956  12.553 -1.1335 -0.1358 -0.3806
 9141TIP3    H251619   5.843   1.074  12.473  0.7081  0.4764 -0.6980
 9142TIP3   OH251620   5.977   2.267  12.551  0.0971 -0.1196 -0.3408
 9142TIP3    H151621   6.061   2.312  12.540  0.3541 -0.5637 -0.2020
 9142TIP3    H251622   5.962   2.224  12.467 -0.0028 -0.0217 -0.3727
 9143TIP3   OH251623   6.839   5.700  12.596  0.0119 -0.0780 -0.0447
 9143TIP3    H151624   6.891   5.626  12.628 -0.0037  0.2309  0.7055
 9143TIP3    H251625   6.751   5.663  12.584  0.6960 -1.0074 -2.8219
 9144TIP3   OH251626   5.273   0.394  12.013 -0.1351 -0.1528  0.0728
 9144TIP3    H151627   5.214   0.339  11.960 -1.2018 -0.6584  1.7036
 9144TIP3    H251628   5.354   0.343  12.019 -0.8774 -1.2886  0.9954
 9145TIP3   OH251629   1.688   1.879  12.103  0.3852  0.1544  0.4254
 9145TIP3    H151630   1.682   1.787  12.130 -0.8138 -0.0816 -0.5872
 9145TIP3    H251631   1.732   1.922  12.177  0.7317 -1.1696  1.0312
 9146TIP3   OH251632   1.755   0.857  12.717 -0.0745  0.3358 -0.3195
 9146TIP3    H151633   1.848   0.877  12.700  0.2458 -1.3008 -0.6255
 9146TIP3    H251634   1.757   0.779  12.771 -1.2836 -0.5335 -1.4570
 9147TIP3   OH251635   5.678   1.838  11.070 -0.7062 -0.1172 -0.1243
 9147TIP3    H151636   5.621   1.761  11.075  0.9802 -1.3592  0.6005
 9147TIP3    H251637   5.759   1.805  11.031 -0.3888  1.5753 -0.9652
 9148TIP3   OH251638   5.268   5.240  12.736 -0.6428 -0.0642  0.1128
 9148TIP3    H151639   5.311   5.185  12.671  1.0119  0.8605  0.3609
 9148TIP3    H251640   5.312   5.325  12.729  1.4567 -0.5584  4.0291
 9149TIP3   OH251641   3.861   4.917  12.437 -0.4135 -0.1344  0.0538
 9149TIP3    H151642   3.889   4.940  12.526  1.3761 -1.7452 -0.0272
 9149TIP3    H251643   3.772   4.884  12.448 -0.1925 -0.3773  1.2587
 9150TIP3   OH251644   7.557   0.041  12.005 -0.0695  0.0605 -0.3752
 9150TIP3    H151645   7.467   0.052  11.974 -1.5855  1.0767  3.7597
 9150TIP3    H251646   7.595   0.128  11.996 -0.3145  0.2129  0.0231
 9151TIP3   OH251647   0.950   1.465  13.472 -0.0957 -0.4686 -0.4427
 9151TIP3    H151648   1.019   1.401  13.489 -1.5506 -1.3861  2.8245
 9151TIP3    H251649   0.892   1.421  13.410 -0.5850 -2.0807  1.0469
 9152TIP3   OH251650   1.928   1.952  11.009  0.0389  0.1662  0.4129
 9152TIP3    H151651   1.999   1.888  11.015 -0.0391  0.0128 -0.2001
 9152TIP3    H251652   1.886   1.951  11.095  1.4402  1.0341  1.1410
 9153TIP3   OH251653   4.019   2.230  10.975  0.0634 -0.5523  0.0037
 9153TIP3    H151654   3.950   2.195  11.031  0.2948  1.0885  1.3978
 9153TIP3    H251655   4.081   2.159  10.964 -0.9767 -1.5088  0.1704
 9154TIP3   OH251656   1.299   0.306  11.323  0.3956 -0.4302 -0.2422
 9154TIP3    H151657   1.378   0.341  11.365  0.0429 -0.3555  0.3704
 9154TIP3    H251658   1.228   0.326  11.384 -0.4661  1.4188 -1.7396
 9155TIP3   OH251659   4.312   3.510  12.080  0.6711 -0.7265  0.3602
 9155TIP3    H151660   4.379   3.578  12.071 -1.0055  1.0660  0.7477
 9155TIP3    H251661   4.325   3.454  12.004  0.3238  1.7249 -1.6537
 9156TIP3   OH251662   2.270   7.666  11.654  0.1049  0.2619  0.2235
 9156TIP3    H151663   2.241   7.575  11.639  0.2545  0.2299  0.1229
 9156TIP3    H251664   2.345   7.657  11.713  0.3411  0.2946 -0.0703
 9157TIP3   OH251665   6.151   4.760  12.389  0.1482  0.0959  0.2744
 9157TIP3    H151666   6.188   4.674  12.404 -0.2085 -0.1963 -0.4640
 9157TIP3    H251667   6.146   4.800  12.476 -0.3977 -0.9234  0.7315
 9158TIP3   OH251668   5.694   4.651  10.937  0.3250 -0.5193  0.1654
 9158TIP3    H151669   5.606   4.615  10.954 -0.2081  0.5390 -0.2727
 9158TIP3    H251670   5.737   4.649  11.023 -0.8707  0.8692  0.8411
 9159TIP3   OH251671   4.339   3.712  10.717 -0.3316  0.0544  0.0191
 9159TIP3    H151672   4.294   3.628  10.722 -0.2930  0.0431  0.1809
 9159TIP3    H251673   4.273   3.776  10.741  0.4896 -0.1850  3.5076
 9160TIP3   OH251674   7.157   5.545  10.671 -0.5145  0.2619  0.3183
 9160TIP3    H151675   7.245   5.532  10.636  0.4407  0.2887  2.5614
 9160TIP3    H251676   7.104   5.478  10.627  1.0746 -1.1391  0.4254
 9161TIP3   OH251677   2.440   6.334  11.395 -0.0042  0.3496 -0.4679
 9161TIP3    H151678   2.450   6.243  11.425  1.2006  0.3190 -0.9370
 9161TIP3    H251679   2.399   6.326  11.309  0.3478  0.2304 -0.6264
 9162TIP3   OH251680   5.617   0.451  10.717  0.3949  0.2430 -0.0480
 9162TIP3    H151681   5.658   0.536  10.698  0.3864  0.3489  0.3906
 9162TIP3    H251682   5.526   0.472  10.738  0.6286  0.2467  1.0366
 9163TIP3   OH251683   7.246   1.853  11.153  0.1648  0.1402  0.5044
 9163TIP3    H151684   7.231   1.770  11.199 -1.5650  0.6621  0.9587
 9163TIP3    H251685   7.201   1.918  11.206 -0.4179  1.0294 -1.0141
 9164TIP3   OH251686   3.479   6.482  12.499  0.8943  0.1753 -0.1050
 9164TIP3    H151687   3.499   6.575  12.487  1.0107  0.3321  1.1677
 9164TIP3    H251688   3.432   6.478  12.582 -2.0395 -0.5191 -1.6709
 9165TIP3   OH251689   4.100   0.257  11.789 -0.1421 -0.3677  0.3145
 9165TIP3    H151690   4.046   0.178  11.794  2.0681 -2.1060 -1.4127
 9165TIP3    H251691   4.081   0.293  11.702  0.1001  0.0741  0.4427
 9166TIP3   OH251692   6.371   5.282  11.105  0.2080 -0.1660  0.4295
 9166TIP3    H151693   6.284   5.256  11.137 -0.1929  0.0160 -0.4690
 9166TIP3    H251694   6.384   5.227  11.027  0.4729  0.5006  0.0000
 9167TIP3   OH251695   0.997   1.994  11.177  0.1346  0.2758 -0.1514
 9167TIP3    H151696   0.944   1.928  11.222  0.3656 -0.2264 -0.6147
 9167TIP3    H251697   0.977   2.076  11.223 -0.9107  0.0638 -0.2050
 9168TIP3   OH251698   0.916   5.821  11.995 -0.4385  0.2472  1.1625
 9168TIP3    H151699   0.854   5.850  12.062 -1.5559  2.7851 -0.7909
 9168TIP3    H251700   0.995   5.874  12.012 -0.3653  0.1682  1.0627
 9169TIP3   OH251701   5.364   5.701  11.446 -0.1159  0.2705  0.0693
 9169TIP3    H151702   5.308   5.661  11.379 -0.1921 -0.0620  0.3271
 9169TIP3    H251703   5.331   5.791  11.454 -1.6036 -0.3267  1.2718
 9170TIP3   OH251704   3.030   6.351  10.504  0.0168 -0.4386  0.2273
 9170TIP3    H151705   3.054   6.264  10.536  1.1020  0.2728  1.4278
 9170TIP3    H251706   2.947   6.371  10.547  0.4629 -0.3233  1.0554
 9171TIP3   OH251707   5.711   5.206  11.733  0.5448  0.0668  0.2292
 9171TIP3    H151708   5.639   5.196  11.671  0.9343 -1.2160 -0.0517
 9171TIP3    H251709   5.749   5.118  11.740  1.6637  0.5776  0.8846
 9172TIP3   OH251710   3.555   7.558  13.584  0.9302 -0.4495 -0.5443
 9172TIP3    H151711   3.519   7.637  13.626 -4.1222 -3.5700  1.9996
 9172TIP3    H251712   3.513   7.556  13.498  2.8192  0.5408 -1.5631
 9173TIP3   OH251713   0.667   7.245  12.327  0.4106  0.0019  0.3032
 9173TIP3    H151714   0.748   7.279  12.289  0.9102 -1.6883 -0.2373
 9173TIP3    H251715   0.684   7.244  12.422  1.1108 -0.4679  0.1870
 9174TIP3   OH251716   3.145   4.128  10.786 -0.4853 -0.3295 -0.8799
 9174TIP3    H151717   3.112   4.040  10.805  0.4874 -0.7166 -0.9159
 9174TIP3    H251718   3.232   4.113  10.750  0.1962  0.7166  0.3018
 9175TIP3   OH251719   2.165   3.988  11.761 -0.1699  0.1218 -0.5564
 9175TIP3    H151720   2.146   3.894  11.757  1.5578 -0.2215 -1.8296
 9175TIP3    H251721   2.115   4.019  11.837 -0.1844 -1.9753  0.3745
 9176TIP3   OH251722   5.226   4.193  12.307 -0.1230 -0.4683 -0.3300
 9176TIP3    H151723   5.204   4.265  12.247 -1.5213 -0.7761 -0.2223
 9176TIP3    H251724   5.189   4.220  12.391  2.5024  0.3378  0.6948
 9177TIP3   OH251725   0.188   1.968  11.316 -0.0134  0.2285 -0.0619
 9177TIP3    H151726   0.129   2.009  11.254  0.6756 -0.2814 -1.0894
 9177TIP3    H251727   0.131   1.926  11.380 -0.7308  1.1940 -0.0509
 9178TIP3   OH251728   3.702   4.633  12.846  0.6500  0.3306 -0.2248
 9178TIP3    H151729   3.770   4.578  12.885  0.7891  0.5886 -0.0980
 9178TIP3    H251730   3.634   4.638  12.912 -0.3617 -1.4734 -1.0655
 9179TIP3   OH251731   0.389   6.956  10.746 -0.1207 -0.1970 -0.2792
 9179TIP3    H151732   0.325   6.885  10.738 -1.0125  0.7176 -1.5582
 9179TIP3    H251733   0.467   6.913  10.780 -0.6130 -1.8092 -1.0709
 9180TIP3   OH251734   2.152   7.443  12.131 -0.1346  0.1411 -0.4549
 9180TIP3    H151735   2.111   7.517  12.085  0.6176  0.6827 -0.2618
 9180TIP3    H251736   2.239   7.435  12.092  0.1502 -0.0216  0.2039
 9181TIP3   OH251737   1.739   3.360  12.686 -0.0252 -0.1975  1.4684
 9181TIP3    H151738   1.790   3.383  12.608  0.9024  0.1702  2.1655
 9181TIP3    H251739   1.674   3.430  12.693  0.3435  0.1565  1.4185
 9182TIP3   OH251740   1.556   2.816  12.512  0.0837 -0.0923  0.5578
 9182TIP3    H151741   1.491   2.808  12.581 -0.6219 -0.7810 -0.1528
 9182TIP3    H251742   1.550   2.907  12.483  0.4491  0.2252  1.4410
 9183TIP3   OH251743   6.547   2.754  12.629  0.2608 -0.5479 -0.1645
 9183TIP3    H151744   6.630   2.752  12.677  0.9653 -0.9688 -1.3605
 9183TIP3    H251745   6.500   2.676  12.659  0.3488 -0.3828  0.4153
 9184TIP3   OH251746   5.715   1.167  11.525  0.0910 -0.3063  0.0650
 9184TIP3    H151747   5.638   1.115  11.546  0.4622 -0.6759  0.5462
 9184TIP3    H251748   5.684   1.232  11.462 -1.8609  2.8129  3.7951
 9185TIP3   OH251749   1.274   1.035  10.703  0.0528  0.1963  0.3523
 9185TIP3    H151750   1.217   0.980  10.650  0.1254 -1.4310  1.8784
 9185TIP3    H251751   1.215   1.102  10.740 -0.2301  0.5269 -0.6730
 9186TIP3   OH251752   2.103   5.911  12.674 -0.1804 -0.0340  0.0959
 9186TIP3    H151753   2.076   5.820  12.662  0.0981  0.0027 -0.8493
 9186TIP3    H251754   2.191   5.905  12.711  0.0841 -0.1479 -0.5514
 9187TIP3   OH251755   7.392   6.177  10.593  0.4575 -0.1448  0.4175
 9187TIP3    H151756   7.335   6.112  10.550  0.2647 -0.1067  0.6129
 9187TIP3    H251757   7.474   6.131  10.607  1.8336  0.8465 -3.2259
 9188TIP3   OH251758   5.971   5.165  12.050  0.1937 -0.0799  1.1309
 9188TIP3    H151759   6.007   5.094  12.102  3.2985  1.2795  1.0280
 9188TIP3    H251760   5.951   5.125  11.965 -1.3048 -1.4676  2.0707
 9189TIP3   OH251761   6.892   0.097  12.958 -0.4294 -0.0817 -0.5086
 9189TIP3    H151762   6.933   0.151  13.026  0.7970  0.0917 -1.3586
 9189TIP3    H251763   6.833   0.156  12.911 -0.8314 -0.0592  0.0146
 9190TIP3   OH251764   0.378   2.668  11.255  0.2590 -0.4947  0.0979
 9190TIP3    H151765   0.459   2.713  11.230  0.1893  1.3403  2.7352
 9190TIP3    H251766   0.407   2.585  11.291  1.1141  0.3830  1.5522
 9191TIP3   OH251767   2.238   1.178  12.204 -0.2592 -0.0479  0.7277
 9191TIP3    H151768   2.224   1.201  12.295 -1.6325 -0.7558  0.7254
 9191TIP3    H251769   2.302   1.107  12.206  1.3033  1.3227  0.9677
 9192TIP3   OH251770   4.069   0.937  11.605  0.6207 -0.4248 -0.0574
 9192TIP3    H151771   3.992   0.982  11.639  0.2812 -1.1818  0.2153
 9192TIP3    H251772   4.041   0.846  11.596  0.2547 -0.1007 -3.6612
 9193TIP3   OH251773   3.957   3.145  10.489  0.0950  0.4007 -0.0471
 9193TIP3    H151774   4.028   3.108  10.542 -1.2279  1.4370  2.6650
 9193TIP3    H251775   3.991   3.229  10.459  0.0333  0.9793  1.3993
 9194TIP3   OH251776   4.385   5.128  11.245  0.0156 -0.0998  0.7376
 9194TIP3    H151777   4.369   5.038  11.273  2.9324 -1.6070 -1.7686
 9194TIP3    H251778   4.444   5.119  11.170 -0.6262  3.8842 -0.4668
 9195TIP3   OH251779   5.908   7.289  12.668 -0.1113 -0.3390  0.3566
 9195TIP3    H151780   5.938   7.277  12.758 -1.4501 -1.9522  0.6246
 9195TIP3    H251781   5.966   7.235  12.615  0.4321  0.3053  0.2856
 9196TIP3   OH251782   3.639   2.660  11.978 -0.3774 -0.1475  0.1566
 9196TIP3    H151783   3.712   2.720  11.990  0.5457 -1.5113  1.8526
 9196TIP3    H251784   3.679   2.575  11.963 -1.5517 -1.0784  1.9314
 9197TIP3   OH251785   6.405   1.757  11.751  0.2948 -0.2214  0.7493
 9197TIP3    H151786   6.424   1.680  11.697  0.8340  0.1261  0.4292
 9197TIP3    H251787   6.314   1.778  11.732  0.0890 -0.8863  0.9761
 9198TIP3   OH251788   1.672   7.438  11.654 -0.6287  0.1382 -0.1244
 9198TIP3    H151789   1.617   7.401  11.723 -0.1158  0.7878  0.6517
 9198TIP3    H251790   1.612   7.451  11.580 -1.1154 -0.8656  0.0769
 9199TIP3   OH251791   1.556   4.359  13.245  0.2773 -0.0923  0.4320
 9199TIP3    H151792   1.550   4.454  13.256  1.3415  0.1048 -0.4635
 9199TIP3    H251793   1.466   4.332  13.225 -0.4752  0.3826  2.8635
 9200TIP3   OH251794   1.277   3.228  11.810 -0.3317  0.4606  0.1635
 9200TIP3    H151795   1.190   3.221  11.769 -0.6220 -1.9016  1.0614
 9200TIP3    H251796   1.338   3.200  11.742 -0.6181 -1.2604  0.5769
 9201TIP3   OH251797   2.994   3.370  11.138 -0.2880  0.1746  0.8475
 9201TIP3    H151798   2.970   3.396  11.049 -0.8221  1.5439  1.3583
 9201TIP3    H251799   3.039   3.286  11.128 -2.4173 -0.8779 -0.4711
 9202TIP3   OH251800   5.498   2.543  11.057  0.0144  0.5445  0.1441
 9202TIP3    H151801   5.517   2.484  10.984  0.6572  2.2279 -1.1200
 9202TIP3    H251802   5.581   2.586  11.075 -0.1411  0.1573  1.9194
 9203TIP3   OH251803   5.733   3.238  11.474  0.4853  0.2639 -0.2734
 9203TIP3    H151804   5.751   3.278  11.388  1.4610  1.5122  0.4651
 9203TIP3    H251805   5.655   3.284  11.505  0.2124 -0.0928 -0.4225
 9204TIP3   OH251806   4.446   6.672  12.411 -0.3331  0.1422  0.0257
 9204TIP3    H151807   4.397   6.594  12.436  0.0467  0.3152  1.4025
 9204TIP3    H251808   4.438   6.730  12.487  1.6982  0.3137  0.1461
 9205TIP3   OH251809   2.648   0.852  13.016 -0.0382  0.6924  0.1859
 9205TIP3    H151810   2.662   0.939  12.979 -0.8682 -0.0585 -2.1086
 9205TIP3    H251811   2.735   0.823  13.045  0.4334  1.8501 -0.0313
 9206TIP3   OH251812   5.569   2.325  11.370 -0.1769 -0.4291 -0.2248
 9206TIP3    H151813   5.513   2.383  11.319  0.3987  0.7414  0.4529
 9206TIP3    H251814   5.638   2.299  11.309 -0.2530 -0.1461 -0.4341
 9207TIP3   OH251815   7.598   0.385  10.663 -0.2080 -0.1175 -0.4215
 9207TIP3    H151816   7.593   0.322  10.591  0.3511 -0.0677 -0.5068
 9207TIP3    H251817   7.538   0.455  10.637  0.2748  0.0868 -1.0348
 9208TIP3   OH251818   0.354   4.217  10.743 -0.3240  0.5290 -0.0166
 9208TIP3    H151819   0.421   4.165  10.700 -1.0452 -1.2972  0.9430
 9208TIP3    H251820   0.271   4.184  10.707 -0.7926  1.1713  0.4558
 9209TIP3   OH251821   4.221   5.181  12.895 -0.0153 -0.1426  0.3725
 9209TIP3    H151822   4.129   5.199  12.915 -0.1882 -1.1282  0.5063
 9209TIP3    H251823   4.269   5.229  12.963 -0.3807  1.1463 -0.2614
 9210TIP3   OH251824   1.693   0.218  12.156  0.1694 -0.2078 -0.5070
 9210TIP3    H151825   1.673   0.245  12.066  2.0985 -1.1861 -1.2812
 9210TIP3    H251826   1.730   0.297  12.197 -1.1904  0.3910 -0.3637
 9211TIP3   OH251827   0.135   0.665  13.337  0.2177  0.3914  0.2242
 9211TIP3    H151828   0.122   0.570  13.336 -2.0339  0.6098  1.6189
 9211TIP3    H251829   0.211   0.679  13.280  1.3475 -2.3169  0.8868
 9212TIP3   OH251830   2.554   2.274  11.659  0.3544 -0.3981  0.2555
 9212TIP3    H151831   2.493   2.272  11.586 -1.2402  3.1993  1.2254
 9212TIP3    H251832   2.506   2.233  11.731  0.3544 -0.3952  0.2575
 9213TIP3   OH251833   7.438   0.664  11.700 -0.1230  0.1278 -0.2176
 9213TIP3    H151834   7.458   0.713  11.621 -0.3991 -1.2430 -1.1805
 9213TIP3    H251835   7.511   0.682  11.759  0.0301  1.2587 -0.7301
 9214TIP3   OH251836   0.824   4.406  12.020 -0.0094  0.2422  0.4764
 9214TIP3    H151837   0.746   4.460  12.035  0.6955  1.1147  1.1262
 9214TIP3    H251838   0.889   4.442  12.080  0.6625 -0.9762  0.5047
 9215TIP3   OH251839   5.756   2.609  11.100  0.3109  0.1789  0.0085
 9215TIP3    H151840   5.778   2.699  11.077  2.0474  0.1054  1.1731
 9215TIP3    H251841   5.777   2.603  11.193  0.4513 -1.4769 -0.1043
 9216TIP3   OH251842   7.658   0.657  12.512 -0.1357  0.0631 -0.3371
 9216TIP3    H151843   7.660   0.753  12.506 -0.4690  0.0140 -1.4677
 9216TIP3    H251844   7.578   0.632  12.466 -1.1520 -0.6654  1.6844
 9217TIP3   OH251845   2.010   5.330  12.818  0.1806  0.3257 -0.6410
 9217TIP3    H151846   2.042   5.346  12.907 -1.8469 -0.0114  0.1872
 9217TIP3    H251847   2.075   5.372  12.762  1.4981  0.5674  0.9816
 9218TIP3   OH251848   4.828   1.737  11.889  0.1525 -0.3414  0.3584
 9218TIP3    H151849   4.807   1.812  11.944  0.6846  0.1051 -0.0296
 9218TIP3    H251850   4.872   1.775  11.813  0.4680 -1.0515  0.1773
 9219TIP3   OH251851   6.510   1.486  10.670 -0.2495 -0.3787  0.1698
 9219TIP3    H151852   6.450   1.550  10.707 -1.1214  0.1802 -1.9971
 9219TIP3    H251853   6.571   1.466  10.740  0.3178  3.1099  0.8396
 9220TIP3   OH251854   7.182   4.594  10.858  0.0121 -0.1377 -0.0316
 9220TIP3    H151855   7.179   4.574  10.764  0.8651  0.1949 -0.1397
 9220TIP3    H251856   7.173   4.689  10.862 -0.9186 -0.2239  0.2938
 9221TIP3   OH251857   4.431   6.704  10.693  0.1241  0.0288 -0.1744
 9221TIP3    H151858   4.424   6.682  10.600  0.0736 -2.2423  0.3121
 9221TIP3    H251859   4.525   6.709  10.710  0.1325  0.5165 -0.3487
 9222TIP3   OH251860   6.871   0.312  11.759  0.7320  0.2983  0.3068
 9222TIP3    H151861   6.876   0.217  11.766  1.3405  0.2158 -0.8485
 9222TIP3    H251862   6.778   0.333  11.764  0.5642 -0.4044  0.1660
 9223TIP3   OH251863   4.994   0.472  11.387 -0.4065 -0.1726 -0.0431
 9223TIP3    H151864   5.076   0.423  11.394 -0.1376  0.1816 -0.6233
 9223TIP3    H251865   4.939   0.418  11.329  0.0923  0.4578 -1.1345
 9224TIP3   OH251866   0.914   1.315  11.845 -0.3703  0.4232  0.0693
 9224TIP3    H151867   0.948   1.314  11.935 -0.5513  2.5693  0.2274
 9224TIP3    H251868   0.878   1.403  11.835  0.3868  0.5283 -2.3944
 9225TIP3   OH251869   1.856   1.256  11.446 -0.1340 -0.2344 -0.0396
 9225TIP3    H151870   1.775   1.277  11.492 -0.6267  0.8606 -1.3377
 9225TIP3    H251871   1.875   1.334  11.395  1.1866 -0.8703 -0.5611
 9226TIP3   OH251872   1.074   4.637  11.248 -0.1795  0.3984  0.4007
 9226TIP3    H151873   1.102   4.546  11.240 -2.0649 -0.0621 -2.8669
 9226TIP3    H251874   1.154   4.685  11.268  1.5553 -1.6364 -1.1460
 9227TIP3   OH251875   5.519   7.228  12.562  0.1983 -0.3841  0.3624
 9227TIP3    H151876   5.469   7.297  12.517 -0.7298 -0.2467  1.5598
 9227TIP3    H251877   5.477   7.220  12.647  1.0462 -1.6202  0.6855
 9228TIP3   OH251878   2.842   6.534  10.674  0.0737 -0.6302  0.5673
 9228TIP3    H151879   2.801   6.518  10.759  0.2549 -0.6034  0.6598
 9228TIP3    H251880   2.815   6.622  10.649  0.2165 -0.5461  0.7093
 9229TIP3   OH251881   2.976   2.231  11.399 -0.0109 -0.6219  0.1047
 9229TIP3    H151882   3.053   2.253  11.452 -0.0314  2.4055 -0.8966
 9229TIP3    H251883   2.902   2.257  11.454 -0.1763 -0.8667 -0.0045
 9230TIP3   OH251884   5.976   4.107  12.753 -0.3313  0.5330  0.6770
 9230TIP3    H151885   5.910   4.058  12.704  1.4698 -2.3286  0.8852
 9230TIP3    H251886   5.976   4.066  12.840  2.1628 -0.0994  0.4519
 9231TIP3   OH251887   6.732   4.546  11.916  0.0120  0.6060 -0.3474
 9231TIP3    H151888   6.770   4.461  11.940  0.1975  0.4271 -1.2475
 9231TIP3    H251889   6.792   4.610  11.953  1.2728  0.3279 -1.8093
 9232TIP3   OH251890   1.305   1.375  12.009 -0.1673  0.1600 -0.0565
 9232TIP3    H151891   1.337   1.285  12.006 -0.6980 -0.0219 -0.3772
 9232TIP3    H251892   1.251   1.384  11.931  0.2592  0.9049 -0.2700
 9233TIP3   OH251893   2.157   1.731  12.882 -0.4797 -0.4178  0.6139
 9233TIP3    H151894   2.110   1.663  12.833 -0.3221 -0.1650  0.1066
 9233TIP3    H251895   2.088   1.782  12.923 -0.6080 -0.7447  0.8038
 9234TIP3   OH251896   5.102   3.502  11.654 -0.0066 -0.0557  0.1514
 9234TIP3    H151897   5.032   3.529  11.595 -0.3284  1.7977  1.3025
 9234TIP3    H251898   5.105   3.406  11.646 -3.5026 -0.3893  0.9345
 9235TIP3   OH251899   4.100   5.675  12.501  0.2361 -0.4794  0.0676
 9235TIP3    H151900   4.090   5.610  12.432  1.2948  0.7016 -1.2402
 9235TIP3    H251901   4.175   5.727  12.475  0.0506  0.6332  1.6124
 9236TIP3   OH251902   0.262   0.937  12.615 -0.7459 -0.0035  0.8072
 9236TIP3    H151903   0.285   1.027  12.635 -1.2779  0.3288 -0.0281
 9236TIP3    H251904   0.195   0.943  12.546 -0.7910 -1.0269  0.7343
 9237TIP3   OH251905   6.025   1.934  11.081 -0.3934 -0.1006  0.0305
 9237TIP3    H151906   6.081   1.972  11.014 -0.8354  1.0537  0.2872
 9237TIP3    H251907   5.993   1.852  11.043 -1.6047  1.1012 -1.6985
 9238TIP3   OH251908   2.632   1.518  10.717  0.2919  0.7727  0.4386
 9238TIP3    H151909   2.648   1.612  10.720  1.0567  0.8616 -2.6326
 9238TIP3    H251910   2.718   1.479  10.702 -0.2179 -0.2791  0.1318
 9239TIP3   OH251911   2.053   5.731  10.935  0.4649 -0.0875  0.6936
 9239TIP3    H151912   1.959   5.719  10.949  0.0568  0.8527 -0.9999
 9239TIP3    H251913   2.059   5.795  10.865  2.3771 -0.5969  0.3401
 9240TIP3   OH251914   6.946   4.656  11.488 -0.3054  0.5925 -0.1202
 9240TIP3    H151915   6.865   4.604  11.488  0.0304  0.0373  1.0576
 9240TIP3    H251916   6.921   4.738  11.529 -0.7472  1.2520 -1.6426
 9241TIP3   OH251917   3.722   1.949  12.281  0.1323 -0.4211 -0.3226
 9241TIP3    H151918   3.667   1.871  12.287  0.1988 -0.3841  1.0968
 9241TIP3    H251919   3.676   2.015  12.333  1.4164 -0.3501  0.7801
 9242TIP3   OH251920   5.549   5.959  12.640 -0.2643 -0.0379 -0.6850
 9242TIP3    H151921   5.606   5.887  12.667 -0.1544  0.0506 -0.6773
 9242TIP3    H251922   5.537   5.946  12.546 -0.5546 -0.2823 -0.6134
 9243TIP3   OH251923   2.396   0.970  10.929 -0.0989  0.1564  0.4487
 9243TIP3    H151924   2.438   0.884  10.928  0.2130  0.3104 -0.5886
 9243TIP3    H251925   2.308   0.955  10.896 -0.3489  0.0986  1.1191
 9244TIP3   OH251926   3.137   6.905  12.832  0.1725  0.1903 -0.1202
 9244TIP3    H151927   3.070   6.919  12.898  1.7445  2.5713  1.1159
 9244TIP3    H251928   3.125   6.977  12.770  1.9531  1.0945  0.5171
 9245TIP3   OH251929   6.966   1.367  12.235 -0.3921  0.4469  0.1035
 9245TIP3    H151930   6.957   1.422  12.157  0.4382 -0.6987 -0.8447
 9245TIP3    H251931   6.973   1.278  12.200 -2.0610 -0.3288  1.6082
 9246TIP3   OH251932   4.862   5.051  11.934 -0.2713 -0.2478  0.3659
 9246TIP3    H151933   4.851   5.083  11.844  1.1119 -1.0780 -0.1198
 9246TIP3    H251934   4.778   5.071  11.977  0.1533  3.2954 -0.0995
 9247TIP3   OH251935   4.915   0.289  13.218 -0.0521 -0.1009 -0.0500
 9247TIP3    H151936   4.933   0.200  13.249 -1.2107 -0.0953  0.6857
 9247TIP3    H251937   4.820   0.295  13.214  0.0144  1.0392 -0.2999
 9248TIP3   OH251938   5.354   0.878  10.600 -0.3309 -0.3000  0.0184
 9248TIP3    H151939   5.316   0.810  10.654 -1.1960 -0.4332 -0.7225
 9248TIP3    H251940   5.300   0.878  10.520  1.6465 -0.9790 -1.4047
 9249TIP3   OH251941   7.346   3.856  10.823  0.0728  0.1180  0.0784
 9249TIP3    H151942   7.337   3.856  10.919 -0.9165  0.3164  0.0009
 9249TIP3    H251943   7.392   3.937  10.803  0.9799 -0.2941  0.4303
 9250TIP3   OH251944   5.182   3.657  12.404  0.2660 -0.6714  0.2446
 9250TIP3    H151945   5.110   3.659  12.467  1.2384 -0.2977  1.3784
 9250TIP3    H251946   5.210   3.748  12.395 -0.2132 -0.6395 -1.1797
 9251TIP3   OH251947   3.467   3.558  11.392 -0.0986 -0.1191  0.1258
 9251TIP3    H151948   3.442   3.504  11.316 -0.3720  0.2878 -0.0802
 9251TIP3    H251949   3.558   3.580  11.376  0.2060 -1.0463  0.5335
 9252TIP3   OH251950   5.834   2.929  12.615 -0.0381 -0.8212 -0.0401
 9252TIP3    H151951   5.878   2.915  12.699 -1.0671 -3.9728  0.1073
 9252TIP3    H251952   5.755   2.977  12.638  0.5165 -0.1477  0.5145
 9253TIP3   OH251953   0.605   4.493  11.709 -0.3728  0.1906 -0.0751
 9253TIP3    H151954   0.701   4.489  11.716 -0.3883  1.5637  1.7344
 9253TIP3    H251955   0.574   4.438  11.781 -0.9885 -0.9432 -1.1730
 9254TIP3   OH251956   1.694   5.646  11.917  0.1080 -0.1197  0.0948
 9254TIP3    H151957   1.669   5.720  11.973  0.9069  0.3071 -0.0977
 9254TIP3    H251958   1.767   5.605  11.963  0.6350  0.1097 -0.5186
 9255TIP3   OH251959   4.910   1.718  10.303  0.4037 -0.5383  0.2268
 9255TIP3    H151960   4.874   1.733  10.216 -2.1151 -1.5618  1.0005
 9255TIP3    H251961   4.926   1.624  10.307  0.3140 -0.5294  0.9397
 9256TIP3   OH251962   2.813   3.960  12.557 -0.5377  0.0308  0.2218
 9256TIP3    H151963   2.790   4.027  12.620 -3.5134 -1.6151  1.0794
 9256TIP3    H251964   2.805   3.877  12.605  3.0951 -1.0867 -0.7479
 9257TIP3   OH251965   6.385   3.733  12.577  0.1144  0.2893  0.7930
 9257TIP3    H151966   6.372   3.793  12.650 -0.4942  0.4065  0.5968
 9257TIP3    H251967   6.431   3.784  12.510 -2.2108  1.2063 -0.2025
 9258TIP3   OH251968   2.375   0.954  12.464  0.0604  0.9381 -0.5197
 9258TIP3    H151969   2.460   0.922  12.434  1.2394  3.8799 -0.6848
 9258TIP3    H251970   2.387   0.971  12.557 -0.2633  1.5717 -0.5861
 9259TIP3   OH251971   0.560   5.669  13.437  0.1242 -0.1809  0.3796
 9259TIP3    H151972   0.574   5.763  13.446 -0.3009 -0.1613  0.9114
 9259TIP3    H251973   0.490   5.661  13.372  0.6428 -0.1669 -0.1933
 9260TIP3   OH251974   5.492   4.974  10.921  0.1713 -0.2862 -0.4633
 9260TIP3    H151975   5.585   4.962  10.898  0.3070 -2.1963  0.8228
 9260TIP3    H251976   5.445   4.946  10.842  0.6918 -2.4347 -0.0889
 9261TIP3   OH251977   7.280   3.849  11.088 -0.6336 -0.3511  0.3888
 9261TIP3    H151978   7.197   3.882  11.053 -0.2859 -2.6549 -3.1368
 9261TIP3    H251979   7.255   3.773  11.141 -0.8639 -0.6177 -0.0916
 9262TIP3   OH251980   4.587   2.833  10.684 -0.3191 -0.6575 -0.3069
 9262TIP3    H151981   4.516   2.772  10.702  0.0132 -1.7857 -2.5099
 9262TIP3    H251982   4.591   2.838  10.589  0.5959  1.7484 -0.2138
 9263TIP3   OH251983   7.046   5.670  10.892  0.2866  0.2057 -0.4783
 9263TIP3    H151984   7.064   5.628  10.807 -0.3686  0.8184 -0.9266
 9263TIP3    H251985   7.070   5.604  10.957  0.7621 -0.2846 -1.1436
 9264TIP3   OH251986   5.866   3.532  10.971 -0.1138  0.7307 -0.4230
 9264TIP3    H151987   5.897   3.617  11.000  0.9977 -0.1946  1.2213
 9264TIP3    H251988   5.906   3.520  10.885  1.2559  1.0753  0.1525
 9265TIP3   OH251989   2.266   6.871  11.334  0.2990  0.3060  0.2731
 9265TIP3    H151990   2.240   6.939  11.395 -1.7250  0.1929 -0.3884
 9265TIP3    H251991   2.261   6.912  11.248  0.2612 -0.3322 -0.0387
 9266TIP3   OH251992   3.501   2.924  12.710  0.1462  0.3729  0.8810
 9266TIP3    H151993   3.561   2.929  12.635  0.8954  1.8821  1.5392
 9266TIP3    H251994   3.532   2.992  12.770 -1.6089  0.4944  1.7050
 9267TIP3   OH251995   3.643   5.384  12.044 -0.1468  0.2076  0.3227
 9267TIP3    H151996   3.706   5.351  12.109 -0.7273 -2.4577 -0.3509
 9267TIP3    H251997   3.659   5.330  11.966 -1.4254  1.3680 -0.7830
 9268TIP3   OH251998   1.255   2.236  12.436  0.2374 -0.4563  0.0685
 9268TIP3    H151999   1.162   2.231  12.458  0.3579  3.9665  2.7158
 9268TIP3    H252000   1.285   2.145  12.439 -3.1254 -1.7272  3.6506
 9269TIP3   OH252001   0.029   4.390  11.301  0.5731  0.2214 -0.0695
 9269TIP3    H152002   0.016   4.337  11.380  0.3815 -0.9271 -0.8594
 9269TIP3    H252003   0.050   4.327  11.233  0.8746  1.2188 -0.9194
 9270TIP3   OH252004   5.395   4.442  11.524 -0.2637 -0.3674  0.5906
 9270TIP3    H152005   5.441   4.490  11.592  1.1560 -0.1553 -0.4733
 9270TIP3    H252006   5.402   4.350  11.549 -2.1038 -0.1685  2.0959
 9271TIP3   OH252007   3.287   2.496  10.845  0.2286 -0.3946 -0.1058
 9271TIP3    H152008   3.366   2.518  10.796 -1.4743  2.3383 -1.9054
 9271TIP3    H252009   3.296   2.541  10.929  1.3031 -1.5829  0.4458
 9272TIP3   OH252010   3.578   5.912  12.409 -0.2771  0.4913  0.1261
 9272TIP3    H152011   3.484   5.910  12.390 -0.3754  0.9753  0.5101
 9272TIP3    H252012   3.599   6.006  12.416 -0.0470  0.3652  1.3305
 9273TIP3   OH252013   3.544   0.343  12.186  0.5488 -0.0233 -0.3607
 9273TIP3    H152014   3.610   0.410  12.171  0.6748 -0.2146 -0.6789
 9273TIP3    H252015   3.464   0.392  12.207  0.7363  0.2140 -0.2024
 9274TIP3   OH252016   1.338   0.643  12.211 -0.0312 -0.0388 -0.0548
 9274TIP3    H152017   1.413   0.693  12.177 -0.0367 -0.0305 -0.0550
 9274TIP3    H252018   1.270   0.708  12.224 -0.5811 -0.2658 -1.5696
 9275TIP3   OH252019   2.860   4.290  12.405 -0.6630  0.0728 -0.0742
 9275TIP3    H152020   2.846   4.372  12.357  2.2937 -0.2430 -1.7638
 9275TIP3    H252021   2.899   4.231  12.340  0.1675 -1.6293  1.8535
 9276TIP3   OH252022   0.458   4.391  11.305 -0.6115  0.1411  0.6232
 9276TIP3    H152023   0.442   4.382  11.211 -1.1665  1.8518  0.5318
 9276TIP3    H252024   0.531   4.331  11.322 -0.5941 -0.3027 -0.8587
 9277TIP3   OH252025   3.029   7.395  12.260 -0.1370  0.4210 -0.1644
 9277TIP3    H152026   3.091   7.463  12.234  2.1613 -1.6284 -0.3579
 9277TIP3    H252027   3.016   7.409  12.354  0.7263  0.8014 -0.0913
 9278TIP3   OH252028   2.922   6.824  13.018 -0.0430 -0.6445 -0.4947
 9278TIP3    H152029   2.859   6.870  13.074 -0.2486  0.0136 -1.2416
 9278TIP3    H252030   2.903   6.731  13.031  0.1431 -0.5214  0.7766
 9279TIP3   OH252031   0.568   3.275  12.622 -0.3041  0.0523 -0.1143
 9279TIP3    H152032   0.484   3.297  12.582  0.1647  2.3026 -0.0104
 9279TIP3    H252033   0.633   3.300  12.556  0.3859  1.8070  1.1428
 9280TIP3   OH252034   6.425   4.701  10.743 -0.0576  0.0570  0.0611
 9280TIP3    H152035   6.339   4.712  10.702 -0.4049  1.2807  1.0370
 9280TIP3    H252036   6.414   4.627  10.803 -0.6824  0.6862  0.7456
 9281TIP3   OH252037   2.852   2.737  10.924  0.4607 -0.0981 -0.2927
 9281TIP3    H152038   2.945   2.741  10.902  0.7439  0.0784  0.8702
 9281TIP3    H252039   2.809   2.786  10.854  1.0404 -1.5716 -1.7659
 9282TIP3   OH252040   4.279   5.497  12.064  0.2040  0.2284  0.4352
 9282TIP3    H152041   4.317   5.432  12.005  0.1337  0.2951  0.3186
 9282TIP3    H252042   4.185   5.480  12.063  0.2617 -0.1359  0.9644
 9283TIP3   OH252043   5.437   7.158  12.808 -0.0752  0.4506  0.0382
 9283TIP3    H152044   5.478   7.077  12.840 -0.2097  0.2625 -0.2642
 9283TIP3    H252045   5.345   7.150  12.834 -0.2234  0.2132 -0.5549
 9284TIP3   OH252046   6.805   6.503  12.213  0.4893  0.2508 -0.4015
 9284TIP3    H152047   6.797   6.565  12.285 -0.9380  1.8141 -1.8381
 9284TIP3    H252048   6.718   6.463  12.206  1.2020 -1.4608  0.0633
 9285TIP3   OH252049   7.324   4.939  12.139 -0.8346  0.0108 -0.6733
 9285TIP3    H152050   7.383   4.996  12.090 -0.8750  0.0141 -0.7167
 9285TIP3    H252051   7.319   4.979  12.226 -0.3272 -0.2940 -0.4971
 9286TIP3   OH252052   2.683   3.151  11.311 -0.0270 -0.0881 -0.0724
 9286TIP3    H152053   2.747   3.097  11.265  0.1369 -2.1349  2.3033
 9286TIP3    H252054   2.725   3.173  11.394 -0.5031  2.9548 -0.5251
 9287TIP3   OH252055   1.104   6.034  12.376 -0.1265  0.1719  0.2194
 9287TIP3    H152056   1.154   6.115  12.383 -1.3749  0.8867  1.3070
 9287TIP3    H252057   1.170   5.965  12.378  0.8728  1.1103  0.5339
 9288TIP3   OH252058   4.153   6.894  10.219  0.4099 -0.2498  0.2183
 9288TIP3    H152059   4.248   6.884  10.211  0.4868  0.4872  0.1368
 9288TIP3    H252060   4.126   6.938  10.138 -0.0412 -0.6895  0.1247
 9289TIP3   OH252061   5.487   5.895  13.107  0.3636  0.2148  0.2042
 9289TIP3    H152062   5.578   5.881  13.080  0.4439 -1.6323  1.2199
 9289TIP3    H252063   5.445   5.810  13.093 -0.6373  0.4012  1.7801
 9290TIP3   OH252064   2.590   3.276  12.630  0.2412  0.5000  0.1924
 9290TIP3    H152065   2.585   3.192  12.584  0.1628  0.9496 -0.6565
 9290TIP3    H252066   2.578   3.254  12.722  1.1936 -0.5279  0.0930
 9291TIP3   OH252067   1.047   1.026  12.205  0.3598 -0.3250 -0.2289
 9291TIP3    H152068   1.109   0.958  12.232  0.6496  0.2861  0.6622
 9291TIP3    H252069   1.043   1.018  12.110  2.2197 -0.0220 -0.3599
 9292TIP3   OH252070   5.356   2.696  12.399 -0.0684 -0.2452 -0.3533
 9292TIP3    H152071   5.405   2.760  12.347  0.1547  0.1851  0.3709
 9292TIP3    H252072   5.390   2.706  12.487  1.5406 -2.8937 -0.5774
 9293TIP3   OH252073   4.803   5.915  12.365 -0.6168 -0.0759  0.1893
 9293TIP3    H152074   4.794   5.833  12.317 -1.8353  0.2263 -0.1512
 9293TIP3    H252075   4.828   5.890  12.453 -1.9465 -0.8999  0.3568
 9294TIP3   OH252076   3.893   3.300  12.139  0.0843 -0.6360  0.3474
 9294TIP3    H152077   3.831   3.366  12.170  2.1715  0.8373  1.6592
 9294TIP3    H252078   3.845   3.218  12.144 -2.0526  0.5443  0.3439
 9295TIP3   OH252079   6.879   5.415  10.320 -0.0754 -0.3042  0.4045
 9295TIP3    H152080   6.970   5.441  10.302 -0.0217 -0.9558 -0.2950
 9295TIP3    H252081   6.829   5.497  10.313  0.3770 -0.0408  0.2260
 9296TIP3   OH252082   3.342   3.420  11.623  0.2827  0.1612 -0.2102
 9296TIP3    H152083   3.248   3.436  11.612  0.2109  1.7024  2.0270
 9296TIP3    H252084   3.385   3.490  11.573  0.2773 -0.4478 -1.0973
 9297TIP3   OH252085   7.621   3.250  10.688 -0.5332  0.1257  0.7558
 9297TIP3    H152086   7.532   3.248  10.724 -0.0409 -0.3821  2.0101
 9297TIP3    H252087   7.621   3.323  10.626 -2.7541 -1.8116 -1.7827
 9298TIP3   OH252088   1.350   5.009  11.430 -0.0352 -0.5836 -0.3359
 9298TIP3    H152089   1.344   5.066  11.506  0.4000 -2.0011  0.8132
 9298TIP3    H252090   1.347   5.068  11.355 -1.4589  0.7891  0.7331
 9299TIP3   OH252091   2.188   1.406  12.707  0.3873 -0.4976 -0.0771
 9299TIP3    H152092   2.177   1.489  12.661  0.0448  0.7815  2.1647
 9299TIP3    H252093   2.107   1.395  12.757  0.6053 -1.9770  0.0039
 9300TIP3   OH252094   7.650   1.441  11.763  0.7157  0.2910 -0.1801
 9300TIP3    H152095   7.729   1.417  11.811  2.1747  1.8298 -1.6743
 9300TIP3    H252096   7.681   1.496  11.691 -1.5269 -0.6442 -1.9860
 9301TIP3   OH252097   4.236   2.484  11.792 -0.0645  0.1882 -0.3030
 9301TIP3    H152098   4.271   2.565  11.754  1.3622 -0.8815 -1.3784
 9301TIP3    H252099   4.146   2.506  11.816  0.3671  2.1667 -0.2908
 9302TIP3   OH252100   5.369   7.130  11.530  0.5217 -0.0298  0.3080
 9302TIP3    H152101   5.450   7.180  11.520 -0.9411  2.3802 -0.4814
 9302TIP3    H252102   5.379   7.055  11.473  1.2945  1.5130 -1.7030
 9303TIP3   OH252103   7.545   4.431  10.819  0.1505  1.0346  0.0518
 9303TIP3    H152104   7.511   4.485  10.748 -1.9028  0.9975  0.9324
 9303TIP3    H252105   7.467   4.404  10.868  1.1361 -2.2061  0.0447
 9304TIP3   OH252106   0.495   4.762  11.811  0.6650  0.0408  0.0842
 9304TIP3    H152107   0.509   4.684  11.757  0.4372  0.5169 -0.6808
 9304TIP3    H252108   0.430   4.814  11.763 -1.0142 -0.4103  1.7563
 9305TIP3   OH252109   5.180   4.824  10.722  0.1972  0.2841  0.4681
 9305TIP3    H152110   5.234   4.898  10.696  0.7023 -0.2318 -0.0146
 9305TIP3    H252111   5.235   4.747  10.705  0.5543 -0.1218  3.0869
 9306TIP3   OH252112   2.329   7.237  12.941  0.3281 -0.1211  0.9640
 9306TIP3    H152113   2.418   7.262  12.967 -0.0618 -0.5288  2.8492
 9306TIP3    H252114   2.294   7.314  12.897  1.8655 -0.2338 -0.5703
 9307TIP3   OH252115   1.675   5.553  12.356  0.3311  0.1124 -0.0414
 9307TIP3    H152116   1.615   5.512  12.294  1.0875 -1.7986  0.4193
 9307TIP3    H252117   1.757   5.561  12.307  0.3447  0.5488  0.0539
 9308TIP3   OH252118   3.296   7.012  10.864 -0.2095 -0.0661 -0.8176
 9308TIP3    H152119   3.342   6.936  10.901 -0.9107  0.3792  1.0713
 9308TIP3    H252120   3.359   7.084  10.873 -0.0485 -0.1254 -1.3816
 9309TIP3   OH252121   0.187   7.659  11.514 -0.0293 -0.0356 -0.3137
 9309TIP3    H152122   0.122   7.595  11.484  0.3560 -0.5693 -0.0369
 9309TIP3    H252123   0.172   7.666  11.609  0.0112  0.1906 -0.3234
 9310TIP3   OH252124   2.815   2.465  12.581 -0.1548 -0.2641 -0.0076
 9310TIP3    H152125   2.845   2.476  12.490  0.9688  0.3153  0.4071
 9310TIP3    H252126   2.817   2.370  12.595 -0.1636 -0.3484 -0.5355
 9311TIP3   OH252127   1.743   4.151  11.510  0.3311 -0.3563  0.2590
 9311TIP3    H152128   1.781   4.121  11.593  1.1151  1.0714  0.4520
 9311TIP3    H252129   1.766   4.083  11.447  0.1284 -1.2373  1.1126
 9312TIP3   OH252130   5.873   3.589  11.513  0.5050 -0.0025 -0.1066
 9312TIP3    H152131   5.913   3.505  11.532 -0.7123 -0.3919  0.8127
 9312TIP3    H252132   5.811   3.604  11.585 -0.6626  0.7891 -1.2295
 9313TIP3   OH252133   4.581   3.048  11.165 -0.4656 -0.1610  0.0318
 9313TIP3    H152134   4.658   2.992  11.165 -1.0636 -0.9982 -0.4798
 9313TIP3    H252135   4.551   3.049  11.256  0.4351  0.5968  0.3391
 9314TIP3   OH252136   3.727   0.586  10.650 -0.2969 -0.0094 -0.4484
 9314TIP3    H152137   3.632   0.595  10.654 -0.4942 -1.6558 -0.6304
 9314TIP3    H252138   3.744   0.497  10.681  1.2748  0.5587  0.4607
 9315TIP3   OH252139   6.004   7.339  12.285  0.0124  1.0174  0.1627
 9315TIP3    H152140   5.925   7.385  12.258  0.5480  1.6607 -0.3360
 9315TIP3    H252141   5.972   7.258  12.325 -0.8367 -0.3568 -2.9725
 9316TIP3   OH252142   3.979   1.882  11.145  0.3748 -0.0869  0.3597
 9316TIP3    H152143   4.035   1.921  11.078 -0.5125  1.8587  0.6949
 9316TIP3    H252144   3.947   1.956  11.196  0.4732 -1.4676  2.5337
 9317TIP3   OH252145   0.840   0.063  11.547 -0.1185 -0.3029  0.2345
 9317TIP3    H152146   0.854   0.150  11.585  0.6898 -0.7541  1.0084
 9317TIP3    H252147   0.833   0.005  11.623 -0.4445 -0.9400 -0.2805
 9318TIP3   OH252148   0.569   4.646  10.845  0.6188  0.1469 -0.1677
 9318TIP3    H152149   0.499   4.711  10.856  0.8999  0.5429 -0.7114
 9318TIP3    H252150   0.524   4.561  10.848  0.4142  0.2772  2.0408
 9319TIP3   OH252151   2.528   4.409  10.606  1.0195  0.4093 -0.8005
 9319TIP3    H152152   2.492   4.482  10.557  0.2238  0.3959 -0.2495
 9319TIP3    H252153   2.596   4.448  10.661 -0.3351  1.0016  0.5252
 9320TIP3   OH252154   4.621   0.837  10.706  0.9779  0.6613 -0.4022
 9320TIP3    H152155   4.652   0.861  10.793  3.1020 -0.5424 -0.7554
 9320TIP3    H252156   4.553   0.771  10.721  1.5305  0.2519  0.3375
 9321TIP3   OH252157   3.005   2.706  11.254  0.0625 -0.3328 -0.0649
 9321TIP3    H152158   2.919   2.714  11.215  1.0379 -0.9382 -2.5284
 9321TIP3    H252159   3.040   2.795  11.256 -0.6238 -0.0653  1.0792
 9322TIP3   OH252160   4.985   6.781  10.548 -0.4133 -0.3671  0.2227
 9322TIP3    H152161   4.973   6.834  10.627  1.0799  1.9884 -0.9860
 9322TIP3    H252162   5.080   6.768  10.543 -0.6081 -1.6032 -0.5038
 9323TIP3   OH252163   7.378   3.463  13.417  0.2601  0.0316 -0.2492
 9323TIP3    H152164   7.465   3.424  13.426  0.3304  0.6944  3.3823
 9323TIP3    H252165   7.321   3.405  13.467 -1.2923  0.0726 -1.8754
 9324TIP3   OH252166   3.930   3.396  13.349 -0.4197  0.0983 -0.3395
 9324TIP3    H152167   3.981   3.354  13.279  0.4409 -0.2214  0.4660
 9324TIP3    H252168   3.945   3.341  13.426  0.2649  1.5516  0.5959
 9325TIP3   OH252169   2.136   5.549  11.905 -0.8208  0.1033 -0.3640
 9325TIP3    H152170   2.178   5.603  11.972  1.3758 -1.2745 -0.5068
 9325TIP3    H252171   2.090   5.611  11.849 -0.0121  1.6198  0.5796
 9326TIP3   OH252172   2.855   3.868  11.034  0.3910 -0.4590  0.3134
 9326TIP3    H152173   2.811   3.790  11.000 -0.5786  0.5913 -0.9317
 9326TIP3    H252174   2.842   3.864  11.128 -1.2728 -0.8459  0.0865
 9327TIP3   OH252175   6.816   1.908  11.044 -0.5070 -0.1694  0.6985
 9327TIP3    H152176   6.884   1.964  11.081 -0.3885 -0.2683  0.6361
 9327TIP3    H252177   6.783   1.858  11.118  0.3806 -1.0443  0.5360
 9328TIP3   OH252178   2.730   3.480  11.686  0.0238  0.0407 -0.7025
 9328TIP3    H152179   2.797   3.475  11.754 -1.3110 -0.2700  0.6689
 9328TIP3    H252180   2.695   3.390  11.681 -0.5305  0.2735 -1.1116
 9329TIP3   OH252181   6.849   6.361  11.501 -0.2563  0.3625  0.2116
 9329TIP3    H152182   6.790   6.302  11.548 -0.0936 -0.8228 -1.0209
 9329TIP3    H252183   6.855   6.325  11.413  0.3736  1.8652 -0.4024
 9330TIP3   OH252184   6.255   0.270  11.477  0.0164  0.0299 -0.2737
 9330TIP3    H152185   6.198   0.297  11.549 -0.9471 -0.4234 -0.8451
 9330TIP3    H252186   6.204   0.204  11.430  0.3582  0.7921 -1.7587
 9331TIP3   OH252187   2.522   3.698  13.118  0.0231  0.1618  0.0492
 9331TIP3    H152188   2.457   3.638  13.155 -1.8623  1.1715 -1.5192
 9331TIP3    H252189   2.591   3.640  13.085  0.7782 -0.8707  3.0442
 9332TIP3   OH252190   7.107   7.354  12.065 -0.0655  0.1223  0.5177
 9332TIP3    H152191   7.150   7.285  12.114  1.3333 -0.0108 -0.8194
 9332TIP3    H252192   7.016   7.324  12.057  0.6189 -1.8864 -0.5089
 9333TIP3   OH252193   7.498   6.260  11.872  0.4112  0.4818 -0.0630
 9333TIP3    H152194   7.487   6.171  11.905  0.8630  0.6678  0.6229
 9333TIP3    H252195   7.510   6.250  11.778 -0.3083 -0.1146 -0.1012
 9334TIP3   OH252196   0.743   6.060  11.260 -0.1000  0.2246  0.5290
 9334TIP3    H152197   0.739   6.092  11.350 -0.9966 -0.3622  0.7152
 9334TIP3    H252198   0.727   5.966  11.267  0.4830  0.0675 -0.1851
 9335TIP3   OH252199   6.793   4.932  11.584  0.2106  0.0323  0.2585
 9335TIP3    H152200   6.751   4.989  11.649 -0.1291  0.7731 -0.5982
 9335TIP3    H252201   6.864   4.986  11.548  0.1650 -0.2412 -0.2457
 9336TIP3   OH252202   7.666   2.135  10.785  0.2283  0.0835 -0.1974
 9336TIP3    H152203   7.739   2.076  10.803  0.5925  0.6260  0.1363
 9336TIP3    H252204   7.706   2.222  10.782 -0.3956  0.3789 -0.0677
 9337TIP3   OH252205   6.977   3.187  12.634  0.3128 -0.1690  0.2274
 9337TIP3    H152206   6.973   3.228  12.721  0.6856  0.2951  0.0319
 9337TIP3    H252207   6.900   3.220  12.589 -1.1184 -2.1329  1.0965
 9338TIP3   OH252208   5.059   4.446  10.835 -0.1977 -0.5461 -0.6605
 9338TIP3    H152209   5.073   4.408  10.922 -1.7521 -1.1277 -0.6301
 9338TIP3    H252210   5.127   4.406  10.781  1.1280  0.2281  0.3785
 9339TIP3   OH252211   6.292   6.800  11.680  0.0782  0.0139  0.4016
 9339TIP3    H152212   6.370   6.787  11.735  0.7867 -0.8012 -0.7549
 9339TIP3    H252213   6.305   6.886  11.640 -0.1801  0.3752  1.0786
 9340TIP3   OH252214   0.805   6.780  11.952  0.4480 -0.4095  0.2189
 9340TIP3    H152215   0.777   6.696  11.987 -2.3228  0.0383 -0.6201
 9340TIP3    H252216   0.900   6.782  11.964  0.2479 -2.3650  2.9415
 9341TIP3   OH252217   0.703   0.668  12.118 -0.5634  0.3451 -0.6871
 9341TIP3    H152218   0.649   0.637  12.190  1.2034 -0.4187  0.3689
 9341TIP3    H252219   0.793   0.652  12.146  0.2064  0.3252 -2.9293
 9342TIP3   OH252220   5.823   3.118  12.865  0.2773  0.1857  0.3007
 9342TIP3    H152221   5.862   3.039  12.903 -1.5858 -0.8900  0.0929
 9342TIP3    H252222   5.832   3.184  12.932 -0.7167 -1.0062  1.6620
 9343TIP3   OH252223   3.230   6.601  12.035 -0.3240  0.1513  0.9815
 9343TIP3    H152224   3.317   6.584  12.072 -0.9398  0.2378  2.5459
 9343TIP3    H252225   3.169   6.562  12.098 -1.4709  1.4105  0.7008
 9344TIP3   OH252226   7.565   2.319  12.823  0.1830  0.0305  0.0429
 9344TIP3    H152227   7.655   2.306  12.853  0.0713 -0.0798  0.3391
 9344TIP3    H252228   7.553   2.255  12.753 -0.7730 -2.5036  2.3264
 9345TIP3   OH252229   2.415   2.886  11.449 -0.2336  0.8903  0.0320
 9345TIP3    H152230   2.497   2.931  11.429  0.5404 -0.3948  0.1623
 9345TIP3    H252231   2.398   2.832  11.372 -0.1252 -0.0111  0.6301
 9346TIP3   OH252232   4.466   5.668  12.172 -0.6668  0.5291 -0.0055
 9346TIP3    H152233   4.535   5.604  12.157 -0.1037  0.9786  0.6496
 9346TIP3    H252234   4.386   5.623  12.142  0.0531  0.5226 -2.0924
 9347TIP3   OH252235   1.345   5.122  10.576 -0.2723  0.0438  0.0971
 9347TIP3    H152236   1.421   5.169  10.608 -0.8554  0.5470  0.7733
 9347TIP3    H252237   1.290   5.189  10.536 -0.3193 -0.3261 -0.4660
 9348TIP3   OH252238   0.747   4.921  11.784  0.2905 -0.2821 -0.4962
 9348TIP3    H152239   0.691   4.997  11.771  1.7828  0.6973 -1.5929
 9348TIP3    H252240   0.695   4.861  11.837 -0.8837  1.5344  0.4885
 9349TIP3   OH252241   5.677   0.466  12.204 -0.3270  0.5900  0.0957
 9349TIP3    H152242   5.652   0.384  12.161  0.5573 -0.5833  1.7149
 9349TIP3    H252243   5.604   0.485  12.264 -0.4663  0.9264 -0.1756
 9350TIP3   OH252244   1.327   5.593  12.074  0.0007  0.1847  0.5107
 9350TIP3    H152245   1.383   5.661  12.112 -0.3823  0.4115  0.6767
 9350TIP3    H252246   1.253   5.587  12.134 -0.0663 -0.2443  0.3891
 9351TIP3   OH252247   4.845   5.429  11.078 -0.7461 -0.1696  0.5495
 9351TIP3    H152248   4.862   5.339  11.049  0.1434 -0.2165  1.1818
 9351TIP3    H252249   4.755   5.446  11.050 -0.0482 -0.2778 -2.0401
 9352TIP3   OH252250   4.837   2.628  12.179 -0.3036  0.0671 -0.1287
 9352TIP3    H152251   4.756   2.609  12.226 -0.0032 -0.9869 -0.0029
 9352TIP3    H252252   4.886   2.686  12.236 -0.1638 -0.7988  0.6531
 9353TIP3   OH252253   3.157   3.539  11.837  0.9454 -0.6785  0.0726
 9353TIP3    H152254   3.205   3.514  11.916  1.7853 -1.8525 -0.7691
 9353TIP3    H252255   3.223   3.578  11.780  0.2259  0.7150  0.1611
 9354TIP3   OH252256   6.053   1.408  13.220 -0.0073 -0.4750  0.1791
 9354TIP3    H152257   6.042   1.358  13.139 -1.8064 -1.2441  0.8404
 9354TIP3    H252258   6.103   1.485  13.194 -1.2137 -0.2939 -1.8548
 9355TIP3   OH252259   2.156   6.626  13.260 -0.0662 -0.1443 -0.2135
 9355TIP3    H152260   2.184   6.615  13.351  0.5372  0.0002 -0.3722
 9355TIP3    H252261   2.231   6.668  13.217 -0.9373  1.2717 -0.4151
 9356TIP3   OH252262   7.433   2.303  11.809 -0.4512  0.5190 -0.3950
 9356TIP3    H152263   7.352   2.327  11.764 -0.8114  0.9701  0.4745
 9356TIP3    H252264   7.474   2.386  11.831 -0.0040  0.2946 -0.3684
 9357TIP3   OH252265   2.165   0.775  13.054  0.3976 -0.0069  0.7401
 9357TIP3    H152266   2.130   0.863  13.041  0.7733  0.1464  0.7506
 9357TIP3    H252267   2.140   0.752  13.144  0.1596  0.0225  0.6826
 9358TIP3   OH252268   2.124   0.848  12.409  0.2915  0.4041 -0.2438
 9358TIP3    H152269   2.210   0.889  12.415 -0.3847  1.7131  1.1423
 9358TIP3    H252270   2.115   0.796  12.489 -0.8995  1.7602  0.5459
 9359TIP3   OH252271   1.697   4.313  10.842  0.0936  0.2862 -0.5481
 9359TIP3    H152272   1.724   4.347  10.927 -0.5506 -2.3219  0.8281
 9359TIP3    H252273   1.613   4.355  10.824 -1.1157 -1.0892  1.5151
 9360TIP3   OH252274   3.198   0.933  10.742  0.7011  0.4408  0.5424
 9360TIP3    H152275   3.216   0.993  10.814 -0.5719  0.0969  1.1950
 9360TIP3    H252276   3.161   0.988  10.673 -2.4124  0.2704  1.8799
 9361TIP3   OH252277   1.452   6.654  11.250 -0.1205  0.0221 -0.0554
 9361TIP3    H152278   1.465   6.627  11.159  2.0981 -2.6212  0.8789
 9361TIP3    H252279   1.471   6.748  11.250  2.1820 -0.3246 -2.0057
 9362TIP3   OH252280   4.027   5.781  10.762  0.0761 -0.1950 -0.1224
 9362TIP3    H152281   3.966   5.724  10.715  1.0278 -1.3405 -0.0237
 9362TIP3    H252282   4.060   5.726  10.833  2.0910 -0.0130 -0.8728
 9363TIP3   OH252283   0.101   4.063  12.150 -0.0458 -0.4692 -0.9784
 9363TIP3    H152284   0.024   4.118  12.133  0.9642  1.6633  0.7613
 9363TIP3    H252285   0.111   4.065  12.245  2.9901  0.6310 -1.2164
 9364TIP3   OH252286   2.232   6.852  12.385  0.5625  0.1935 -0.3471
 9364TIP3    H152287   2.299   6.882  12.323  0.4570  0.2564 -0.4299
 9364TIP3    H252288   2.178   6.792  12.334  2.3128 -2.2581  0.4513
 9365TIP3   OH252289   1.843   2.946  12.138 -0.1499  0.5355  0.1365
 9365TIP3    H152290   1.825   3.028  12.092  1.3769  0.9969  0.3184
 9365TIP3    H252291   1.911   2.967  12.201  0.9468 -1.0514 -0.4317
 9366TIP3   OH252292   1.262   6.123  12.830  0.3875  0.5494 -0.3775
 9366TIP3    H152293   1.290   6.093  12.744  1.2043 -2.3095  0.7496
 9366TIP3    H252294   1.343   6.151  12.874 -0.0506  2.2057 -0.5520
 9367TIP3   OH252295   5.725   0.048  10.342 -0.0258 -0.1688 -0.4848
 9367TIP3    H152296   5.713   0.098  10.261 -0.9697  0.5029  0.0595
 9367TIP3    H252297   5.691   0.104  10.411 -0.0992 -1.1181  0.2763
 9368TIP3   OH252298   2.018   5.004  12.815  0.2198  0.2087  0.1473
 9368TIP3    H152299   1.998   5.086  12.861  0.0256 -0.0982  0.6203
 9368TIP3    H252300   2.010   4.936  12.882  2.7186  0.0326  0.3716
 9369TIP3   OH252301   4.820   4.595  10.832  0.2189  0.0378  0.1188
 9369TIP3    H152302   4.837   4.671  10.777  2.4178 -0.7735 -0.4247
 9369TIP3    H252303   4.894   4.537  10.816 -0.8369 -1.7476  1.3510
 9370TIP3   OH252304   3.454   0.124  13.713 -0.4743  0.4288  0.3641
 9370TIP3    H152305   3.421   0.192  13.653 -1.5341  0.2375  0.6988
 9370TIP3    H252306   3.381   0.110  13.773  0.4293  0.3184  1.4438
 9371TIP3   OH252307   3.830   5.667  11.040  0.0419 -0.8448  0.3890
 9371TIP3    H152308   3.821   5.752  11.084  0.7364 -0.0995 -0.8454
 9371TIP3    H252309   3.919   5.638  11.063  0.9373  0.1910 -1.5132
 9372TIP3   OH252310   0.857   7.282  10.990  0.0507 -0.0011 -0.9101
 9372TIP3    H152311   0.846   7.334  10.910  1.7500  0.6896 -0.7353
 9372TIP3    H252312   0.910   7.337  11.047 -1.6433 -0.2311  0.9829
 9373TIP3   OH252313   3.319   3.168  11.757 -0.1723  0.1775  0.4773
 9373TIP3    H152314   3.241   3.136  11.804  0.4551 -0.2572  1.2491
 9373TIP3    H252315   3.296   3.257  11.731 -0.2784  0.7275  2.3024
 9374TIP3   OH252316   7.393   7.593  11.631  0.3202 -0.0538  0.1370
 9374TIP3    H152317   7.402   7.534  11.706  1.8743 -1.5787 -1.1669
 9374TIP3    H252318   7.309   7.637  11.645 -0.4359 -1.8427  1.6621
 9375TIP3   OH252319   2.601   4.277  11.677  0.5048  0.4709  0.4058
 9375TIP3    H152320   2.524   4.292  11.732  0.0728 -0.8862  0.2061
 9375TIP3    H252321   2.571   4.295  11.588  1.1300  2.3938  0.5276
 9376TIP3   OH252322   5.980   7.302  13.298  0.2494  0.0320  0.5218
 9376TIP3    H152323   5.909   7.331  13.241 -0.9696 -0.3984  1.7603
 9376TIP3    H252324   5.973   7.207  13.299 -0.3822  0.0641  2.1218
 9377TIP3   OH252325   7.627   0.222  11.611  0.0878  0.4614  0.0118
 9377TIP3    H152326   7.704   0.279  11.612  0.1269  0.4121 -0.1350
 9377TIP3    H252327   7.657   0.141  11.653 -0.0904  0.7027  0.6178
 9378TIP3   OH252328   6.776   7.181  10.536 -0.4791 -0.2279 -0.4935
 9378TIP3    H152329   6.796   7.275  10.543  0.4164 -0.1792 -2.8039
 9378TIP3    H252330   6.682   7.175  10.553 -0.4574  1.0014  0.1922
 9379TIP3   OH252331   5.561   6.859  11.654  0.0699 -0.0866  0.1261
 9379TIP3    H152332   5.602   6.776  11.680 -0.2472  0.4956  2.7977
 9379TIP3    H252333   5.620   6.926  11.687 -1.0428  0.7350  0.5297
 9380TIP3   OH252334   7.149   2.581  12.933  0.0052  0.2648  0.6029
 9380TIP3    H152335   7.073   2.564  12.990  0.6676 -1.4365  1.0569
 9380TIP3    H252336   7.146   2.510  12.869 -0.1420  1.5802 -0.9021
 9381TIP3   OH252337   1.533   7.492  12.952 -0.0086  0.1006 -0.2994
 9381TIP3    H152338   1.537   7.503  13.047 -0.7013 -1.0647 -0.1207
 9381TIP3    H252339   1.443   7.512  12.929 -0.2124 -0.9594 -0.5031
 9382TIP3   OH252340   0.550   2.601  10.699 -0.3131  0.0982 -0.0896
 9382TIP3    H152341   0.559   2.608  10.794  0.5068 -0.1394 -0.1451
 9382TIP3    H252342   0.462   2.565  10.686 -0.3414 -0.0925  0.5820
 9383TIP3   OH252343   2.204   3.482  12.551  0.0444 -0.3439  0.2056
 9383TIP3    H152344   2.283   3.483  12.605  1.0856 -0.8592 -1.2412
 9383TIP3    H252345   2.214   3.406  12.495 -0.3236  0.8912 -1.6315
 9384TIP3   OH252346   0.907   6.493  11.435 -0.3928  0.5676  0.4910
 9384TIP3    H152347   0.890   6.532  11.349 -0.3908 -0.6032 -0.0699
 9384TIP3    H252348   0.978   6.545  11.471  0.2640  0.4947 -0.6385
 9385TIP3   OH252349   6.554   5.204  11.309  0.0354  0.5778 -0.1990
 9385TIP3    H152350   6.526   5.115  11.290 -0.0252  0.7948 -1.2249
 9385TIP3    H252351   6.505   5.258  11.246  0.5269  1.2647 -0.0078
 9386TIP3   OH252352   3.370   6.179  10.964 -0.0052 -0.4103 -0.5223
 9386TIP3    H152353   3.459   6.165  10.932 -0.6234 -0.9674 -2.0838
 9386TIP3    H252354   3.379   6.182  11.059  1.8582  0.9815 -0.7009
 9387TIP3   OH252355   1.255   1.975  12.601  0.4742 -0.2127  0.1398
 9387TIP3    H152356   1.310   1.926  12.539  1.7008 -0.8137  1.6483
 9387TIP3    H252357   1.171   1.985  12.555  2.0621  1.5939 -2.6677
 9388TIP3   OH252358   4.171   1.406  11.036 -0.1109  0.0886  0.1505
 9388TIP3    H152359   4.262   1.430  11.019  0.1311 -0.6737  0.3269
 9388TIP3    H252360   4.136   1.479  11.085  0.8878 -0.3217  1.5445
 9389TIP3   OH252361   7.169   2.921  11.215  0.0315 -0.7119 -0.8905
 9389TIP3    H152362   7.111   2.854  11.252  0.0270  0.0545  0.5648
 9389TIP3    H252363   7.246   2.873  11.185  0.2508 -1.3311  0.6044
 9390TIP3   OH252364   4.672   4.907  10.881 -0.6131  0.1226 -1.0787
 9390TIP3    H152365   4.631   4.859  10.809  0.3098  0.3614 -1.7784
 9390TIP3    H252366   4.763   4.918  10.854  0.0646 -0.8381  0.6512
 9391TIP3   OH252367   1.208   0.629  13.363  0.1969 -0.0536  0.0222
 9391TIP3    H152368   1.218   0.560  13.297 -0.9177  0.3143 -0.5502
 9391TIP3    H252369   1.282   0.687  13.349 -1.4691  1.6371 -2.9109
 9392TIP3   OH252370   7.019   4.164  11.248 -0.6798  0.8272  0.2340
 9392TIP3    H152371   7.079   4.211  11.305  0.0528  1.9790 -1.4081
 9392TIP3    H252372   6.963   4.114  11.308  0.7204  1.1362  1.8792
 9393TIP3   OH252373   5.831   7.625  12.577 -0.6020 -0.3310 -0.2058
 9393TIP3    H152374   5.815   7.545  12.528 -3.1907  0.7358 -1.3149
 9393TIP3    H252375   5.819   7.695  12.512 -0.0064  0.9944  1.0672
 9394TIP3   OH252376   6.766   3.275  11.278 -0.1174 -0.0464 -0.7382
 9394TIP3    H152377   6.805   3.194  11.313 -1.0275 -0.4004 -0.5070
 9394TIP3    H252378   6.820   3.345  11.314 -0.1703 -0.4804  0.2224
 9395TIP3   OH252379   3.933   4.240  11.797 -0.3795 -0.2854 -0.3883
 9395TIP3    H152380   4.027   4.247  11.781 -0.5200 -0.6383 -1.4805
 9395TIP3    H252381   3.923   4.255  11.891  0.9733 -2.2969  0.1299
 9396TIP3   OH252382   2.109   2.062  12.587  0.0348 -0.3744  0.0909
 9396TIP3    H152383   2.138   2.053  12.496  1.4070  0.6289  0.4018
 9396TIP3    H252384   2.119   2.156  12.606 -0.5353 -0.5195  1.1888
 9397TIP3   OH252385   4.044   1.915  12.720  0.1733  0.0508  0.0549
 9397TIP3    H152386   3.996   1.835  12.741  0.8478  0.1906  2.3905
 9397TIP3    H252387   3.975   1.979  12.701 -0.5483 -0.2438  1.5104
 9398TIP3   OH252388   3.476   2.051  12.696  0.0803 -0.0032 -0.2898
 9398TIP3    H152389   3.530   2.008  12.763 -0.9610  0.7083  1.0607
 9398TIP3    H252390   3.443   2.130  12.739 -2.0161 -0.4085 -1.0415
 9399TIP3   OH252391   6.244   1.282  11.640  0.1682 -0.2128 -0.5294
 9399TIP3    H152392   6.199   1.230  11.574  0.0853 -0.2394 -0.4519
 9399TIP3    H252393   6.263   1.365  11.596 -0.9407  0.2181 -0.2230
 9400TIP3   OH252394   3.789   1.388  11.936 -0.2255 -0.2573 -0.2257
 9400TIP3    H152395   3.823   1.298  11.942 -0.1396 -0.2973 -1.1929
 9400TIP3    H252396   3.825   1.422  11.854 -0.8923  0.3977 -0.2590
 9401TIP3   OH252397   0.742   1.031  11.501 -0.0414 -0.1644  0.3798
 9401TIP3    H152398   0.722   1.016  11.408  0.9238  1.5232 -0.1358
 9401TIP3    H252399   0.820   0.978  11.518  1.7156  1.9284 -0.6919
 9402TIP3   OH252400   1.116   6.887  12.185 -0.1121 -0.2109  0.4141
 9402TIP3    H152401   1.080   6.863  12.100 -0.1033  0.1711  0.2989
 9402TIP3    H252402   1.051   6.858  12.249  0.0145 -0.7575  0.2959
 9403TIP3   OH252403   4.000   2.472  12.711 -0.7395  0.1221 -0.4089
 9403TIP3    H152404   4.003   2.541  12.645 -0.5295  1.3572  0.8579
 9403TIP3    H252405   3.912   2.435  12.705 -0.8501  0.4951 -1.0875
 9404TIP3   OH252406   3.876   6.068  12.062  0.0586 -0.2549 -0.2099
 9404TIP3    H152407   3.787   6.096  12.039  0.0065  0.0497  0.3559
 9404TIP3    H252408   3.927   6.086  11.984 -0.6296 -1.6723 -1.0342
 9405TIP3   OH252409   5.832   0.909  11.621  0.3637 -0.2768 -0.1697
 9405TIP3    H152410   5.818   0.912  11.526 -0.5364 -3.4435 -0.2358
 9405TIP3    H252411   5.787   0.987  11.653  0.0562  0.4882 -2.2711
 9406TIP3   OH252412   2.439   3.973  12.722 -0.4758 -0.0429  0.9946
 9406TIP3    H152413   2.478   3.967  12.635 -0.3802  1.5818  0.8929
 9406TIP3    H252414   2.486   3.908  12.774 -0.3286 -0.8229 -0.0762
 9407TIP3   OH252415   7.064   6.645  12.740  0.1335 -0.1419  0.3986
 9407TIP3    H152416   7.110   6.685  12.813  1.7624  0.3958 -0.8574
 9407TIP3    H252417   7.029   6.719  12.690  0.0377 -0.4403  0.0146
 9408TIP3   OH252418   0.692   4.735  13.184  0.4234 -0.4185 -0.1406
 9408TIP3    H152419   0.703   4.657  13.131 -0.0851 -0.4917 -0.1445
 9408TIP3    H252420   0.770   4.788  13.166  1.6689 -1.6879  1.1929
 9409TIP3   OH252421   2.452   5.390  12.481 -0.3312  0.0736 -0.2003
 9409TIP3    H152422   2.375   5.413  12.429 -1.4952 -0.4015  1.2619
 9409TIP3    H252423   2.418   5.369  12.568  1.2508 -1.7250  0.0626
 9410TIP3   OH252424   1.126   7.529  10.719 -0.0825  0.2705 -0.0995
 9410TIP3    H152425   1.063   7.568  10.779 -0.6540 -0.1158 -0.4355
 9410TIP3    H252426   1.075   7.465  10.669  0.8174 -0.8753  0.3975
 9411TIP3   OH252427   3.093   1.727  11.051  0.9891  0.5159  0.2488
 9411TIP3    H152428   3.082   1.720  11.146  2.7632  0.7474  0.5092
 9411TIP3    H252429   3.144   1.807  11.039  1.4343  0.0805 -0.8300
 9412TIP3   OH252430   6.776   2.818  11.326 -0.1448 -0.0854  0.2718
 9412TIP3    H152431   6.825   2.901  11.322 -0.2232 -0.0520 -0.0185
 9412TIP3    H252432   6.774   2.796  11.419 -0.6884  0.5808  0.4273
 9413TIP3   OH252433   4.032   5.896  12.198 -0.1778 -0.0417 -0.5211
 9413TIP3    H152434   3.971   5.953  12.152 -0.3512  0.1151 -0.0963
 9413TIP3    H252435   3.983   5.816  12.214  0.5037 -0.8974 -2.4057
 9414TIP3   OH252436   0.857   5.189  12.944  0.2051 -0.0356  0.2614
 9414TIP3    H152437   0.943   5.178  12.903 -0.4866 -0.0787 -1.2648
 9414TIP3    H252438   0.876   5.215  13.034  1.8090  0.9786 -0.3327
 9415TIP3   OH252439   7.519   5.440  10.934 -0.4424  0.0797  0.0911
 9415TIP3    H152440   7.555   5.528  10.936  1.7062 -0.7018 -0.9862
 9415TIP3    H252441   7.448   5.441  10.998  1.6634  1.6730  2.5604
 9416TIP3   OH252442   0.287   6.533  10.797  0.1653 -0.3861 -0.2459
 9416TIP3    H152443   0.200   6.497  10.811 -0.3942  0.9475 -0.1640
 9416TIP3    H252444   0.339   6.459  10.765 -1.4139 -0.8465 -1.9538
 9417TIP3   OH252445   0.187   6.163  11.712  0.1410  0.2789 -0.1690
 9417TIP3    H152446   0.241   6.241  11.723  0.0157  0.3386  0.0291
 9417TIP3    H252447   0.171   6.132  11.801 -0.6587  0.6062 -0.1934
 9418TIP3   OH252448   5.297   0.141  11.761 -0.5649 -0.3885  0.0573
 9418TIP3    H152449   5.352   0.173  11.689 -1.2176 -1.1454 -0.8006
 9418TIP3    H252450   5.208   0.160  11.733 -0.8141 -0.4246  0.8112
 9419TIP3   OH252451   7.475   3.176  11.197  0.0166  0.1129  0.4243
 9419TIP3    H152452   7.545   3.121  11.162  0.5796  0.2212  1.3469
 9419TIP3    H252453   7.424   3.202  11.121  1.3341  0.5169 -0.3425
 9420TIP3   OH252454   7.234   0.760  11.826  0.1745  0.1889  0.5493
 9420TIP3    H152455   7.292   0.708  11.770 -0.2951  0.4733 -0.2108
 9420TIP3    H252456   7.288   0.834  11.854  0.9268 -0.7993  1.8351
 9421TIP3   OH252457   5.010   6.189  13.049 -0.5061 -0.4764 -0.0188
 9421TIP3    H152458   4.942   6.256  13.047  0.0311  0.1321  0.9238
 9421TIP3    H252459   4.966   6.109  13.020 -2.0949 -0.4928  2.1616
 9422TIP3   OH252460   6.087   5.744  12.484 -0.1982 -0.0179  0.5119
 9422TIP3    H152461   6.127   5.748  12.570  0.3513 -1.8518  0.3778
 9422TIP3    H252462   6.156   5.771  12.424  0.0440 -0.6740  0.4916
 9423TIP3   OH252463   1.566   3.258  12.481 -0.2456  0.2453 -0.2972
 9423TIP3    H152464   1.585   3.347  12.511 -2.0254  1.2326 -1.9023
 9423TIP3    H252465   1.551   3.208  12.561 -3.7355  2.4763  0.6544
 9424TIP3   OH252466   1.347   6.080  12.164  0.5652 -0.0322 -0.0971
 9424TIP3    H152467   1.326   6.152  12.224 -0.3558  0.7350 -1.2848
 9424TIP3    H252468   1.439   6.093  12.141  0.3888  0.8070 -0.3442
 9425TIP3   OH252469   5.197   3.332  12.129  0.4186  0.0431 -0.4311
 9425TIP3    H152470   5.274   3.352  12.182  0.0069  0.9898 -0.1812
 9425TIP3    H252471   5.227   3.345  12.039  1.5237 -2.8993 -0.5955
 9426TIP3   OH252472   2.170   6.875  10.737  0.3414 -0.2041 -0.1199
 9426TIP3    H152473   2.262   6.875  10.709  0.1357  1.5423 -0.8912
 9426TIP3    H252474   2.157   6.961  10.776 -0.9740 -0.4430  0.0012
 9427TIP3   OH252475   7.096   2.058  10.791 -0.6019  0.4021  0.1897
 9427TIP3    H152476   7.178   2.021  10.757 -0.0164  3.3823 -2.0668
 9427TIP3    H252477   7.028   2.004  10.752  0.2246 -0.0945 -0.6157
 9428TIP3   OH252478   4.452   2.475  13.248  0.0229  0.4822  0.0044
 9428TIP3    H152479   4.464   2.385  13.279 -0.1094  0.4886  0.0768
 9428TIP3    H252480   4.459   2.468  13.153  0.1081  0.4107  0.0157
 9429TIP3   OH252481   7.212   4.223  13.488  0.0136 -0.0122  0.0880
 9429TIP3    H152482   7.138   4.179  13.446  0.2143  0.4715 -0.7987
 9429TIP3    H252483   7.228   4.172  13.567 -2.3802  0.8704  1.2491
 9430TIP3   OH252484   4.680   6.206  10.426 -0.2914  0.7850  0.0611
 9430TIP3    H152485   4.744   6.192  10.357 -1.2650  2.4603 -1.2566
 9430TIP3    H252486   4.667   6.301  10.428 -1.2386  0.6600  1.6777
 9431TIP3   OH252487   5.652   1.811  11.441 -0.1538 -0.0103  0.6124
 9431TIP3    H152488   5.713   1.859  11.385 -0.1615 -1.6303 -0.8709
 9431TIP3    H252489   5.582   1.784  11.382 -3.0155  2.7163  2.4312
 9432TIP3   OH252490   0.673   1.377  11.123  0.2465 -0.1065 -0.1630
 9432TIP3    H152491   0.705   1.466  11.135 -0.5381  0.1318  0.2768
 9432TIP3    H252492   0.659   1.344  11.212 -1.3653  0.0693 -0.3079
 9433TIP3   OH252493   7.443   4.658  12.543 -0.2834  0.5025  0.1837
 9433TIP3    H152494   7.458   4.566  12.565  0.1327  0.8540  1.4468
 9433TIP3    H252495   7.460   4.663  12.449 -0.5884 -0.7595  0.0412
 9434TIP3   OH252496   7.354   3.037  11.653 -0.3860 -0.1233 -0.0616
 9434TIP3    H152497   7.334   2.955  11.608 -0.7898  0.6134 -1.2509
 9434TIP3    H252498   7.363   3.102  11.584  1.9722  0.4755  0.6914
 9435TIP3   OH252499   2.512   6.054  12.622  0.1940  0.3430  0.0740
 9435TIP3    H152500   2.524   6.062  12.717  1.4022  1.3221 -0.1375
 9435TIP3    H252501   2.423   6.084  12.607  0.1774  0.7099  0.8469
 9436TIP3   OH252502   0.314   2.192  10.960  0.3446  0.0321 -0.0203
 9436TIP3    H152503   0.368   2.214  10.884  1.7716  0.7371  1.1698
 9436TIP3    H252504   0.373   2.147  11.020 -0.9174 -1.0897  0.4380
 9437TIP3   OH252505   6.921   7.120  12.506 -0.6297  0.6023 -0.3198
 9437TIP3    H152506   6.903   7.105  12.413 -0.6574  1.0492 -0.3895
 9437TIP3    H252507   6.835   7.121  12.547 -0.5689 -0.6145 -0.1209
 9438TIP3   OH252508   2.871   0.690  13.006  0.3330  0.3162 -0.1642
 9438TIP3    H152509   2.936   0.759  13.012 -0.5672  1.1021  1.4118
 9438TIP3    H252510   2.909   0.624  12.948  2.5203  0.7424  0.7053
 9439TIP3   OH252511   0.804   1.068  12.311  0.4859 -0.3859 -0.4980
 9439TIP3    H152512   0.895   1.063  12.279  0.7401 -0.3733  0.2159
 9439TIP3    H252513   0.773   1.153  12.279  0.5671 -0.5882 -1.1396
 9440TIP3   OH252514   4.823   7.674  12.502 -0.0321 -0.2488  0.0903
 9440TIP3    H152515   4.823   7.619  12.580 -0.1360  0.7532  0.8219
 9440TIP3    H252516   4.800   7.761  12.534 -1.6910 -0.1210 -1.2974
 9441TIP3   OH252517   0.855   0.662  11.034  0.2916 -0.3380  0.1963
 9441TIP3    H152518   0.898   0.681  11.117  0.7112  2.5727 -0.5846
 9441TIP3    H252519   0.769   0.701  11.042 -0.0415 -0.9275 -0.3975
 9442TIP3   OH252520   5.521   1.109  11.926  0.0628 -0.3029  0.5906
 9442TIP3    H152521   5.478   1.108  12.012  0.0588  2.0088  0.6812
 9442TIP3    H252522   5.453   1.138  11.865  0.9562  1.6853  0.4576
 9443TIP3   OH252523   5.840   6.044  12.473  0.1730  0.5607  0.0124
 9443TIP3    H152524   5.886   6.006  12.399 -1.6835 -0.5377 -0.6402
 9443TIP3    H252525   5.838   6.138  12.455 -0.0003  0.3415 -1.2024
 9444TIP3   OH252526   3.408   7.658  10.610  0.2713 -0.4737  0.1814
 9444TIP3    H152527   3.470   7.602  10.563 -1.9119 -1.1503 -2.1563
 9444TIP3    H252528   3.373   7.602  10.679  0.4399 -0.9242 -0.0958
 9445TIP3   OH252529   0.075   6.990  11.692  0.3224  0.2428  0.0705
 9445TIP3    H152530   0.053   7.077  11.658  1.4045  0.5463  0.1071
 9445TIP3    H252531   0.009   6.973  11.759  0.8090  1.5720  0.9266
 9446TIP3   OH252532   5.062   6.468  11.649 -0.3989 -0.0466 -0.2661
 9446TIP3    H152533   5.052   6.553  11.691 -1.7393 -0.1203 -0.3919
 9446TIP3    H252534   5.091   6.410  11.720 -2.4110 -0.1192  0.5974
 9447TIP3   OH252535   4.103   7.132  13.459 -0.0970 -0.3487  0.3658
 9447TIP3    H152536   4.017   7.173  13.468  0.4755  0.8129  0.7988
 9447TIP3    H252537   4.086   7.038  13.466 -1.0996 -0.0647  2.5714
 9448TIP3   OH252538   4.348   1.852  11.197  0.0220  0.3500 -0.3161
 9448TIP3    H152539   4.324   1.945  11.204 -0.3465  0.2496 -0.2369
 9448TIP3    H252540   4.325   1.815  11.282  0.6556  0.2946 -0.1661
 9449TIP3   OH252541   4.530   7.152  12.804  0.5855 -0.0231  0.5325
 9449TIP3    H152542   4.615   7.178  12.768  0.2810 -3.1772 -3.1081
 9449TIP3    H252543   4.542   7.060  12.829 -1.3680 -0.0492  1.5607
 9450TIP3   OH252544   6.278   2.675  10.478 -0.1929 -0.0420 -0.3441
 9450TIP3    H152545   6.343   2.742  10.502  0.3209 -0.0554 -1.6054
 9450TIP3    H252546   6.241   2.646  10.562  0.8255  0.5715  0.3424
 9451TIP3   OH252547   5.329   5.601  10.300  0.9110 -0.0663  0.5136
 9451TIP3    H152548   5.393   5.574  10.234  1.2302  0.2309  0.6929
 9451TIP3    H252549   5.382   5.638  10.371  0.4862  1.5190  0.0539
 9452TIP3   OH252550   5.450   3.652  12.554  0.1030 -0.3650 -0.0148
 9452TIP3    H152551   5.375   3.698  12.593  0.3925 -1.2864  1.7266
 9452TIP3    H252552   5.521   3.715  12.556 -0.2568  0.0592 -0.3901
 9453TIP3   OH252553   2.837   5.821  11.169 -0.2519  0.1253  0.0735
 9453TIP3    H152554   2.868   5.731  11.176 -0.3656  0.0241 -0.6274
 9453TIP3    H252555   2.850   5.858  11.257 -0.5810 -0.6904  0.4725
 9454TIP3   OH252556   4.935   0.051  11.325 -0.1695  0.3678  0.2510
 9454TIP3    H152557   4.849   0.048  11.281 -0.3845 -0.1472  0.7099
 9454TIP3    H252558   4.945  -0.034  11.366  0.2074  0.7065  0.8844
 9455TIP3   OH252559   0.757   1.425  12.612  0.0642  0.3175  0.1912
 9455TIP3    H152560   0.679   1.373  12.633  1.5347 -1.7323  0.9515
 9455TIP3    H252561   0.818   1.362  12.574  0.9835  2.0970 -1.4925
 9456TIP3   OH252562   6.013   1.087  12.004 -0.2410 -0.3379 -0.3532
 9456TIP3    H152563   5.975   1.124  12.083  1.0782  0.9199 -0.2635
 9456TIP3    H252564   5.945   1.098  11.937 -0.5866  0.5301  0.1261
 9457TIP3   OH252565   0.541   7.214  12.741 -0.4553 -0.0521 -0.2833
 9457TIP3    H152566   0.565   7.304  12.763  1.5238 -0.4307 -0.7219
 9457TIP3    H252567   0.445   7.216  12.733 -0.4301  2.0919 -0.6607
 9458TIP3   OH252568   3.784   3.028  12.148 -0.5485  0.4559  0.5169
 9458TIP3    H152569   3.729   2.975  12.206 -0.4307 -0.2876 -0.0361
 9458TIP3    H252570   3.737   3.029  12.064  0.4865 -0.5682 -0.0991
 9459TIP3   OH252571   0.548   6.559  12.594 -0.4288 -0.1190 -0.3743
 9459TIP3    H152572   0.492   6.586  12.521 -0.7385 -0.3329 -0.2196
 9459TIP3    H252573   0.637   6.573  12.562 -0.5392 -0.7367 -1.0107
 9460TIP3   OH252574   4.843   6.427  12.700  0.3339  0.1682  0.0787
 9460TIP3    H152575   4.809   6.391  12.781  1.6574 -0.3829  0.4105
 9460TIP3    H252576   4.854   6.520  12.717 -1.1953  0.4183 -0.1258
 9461TIP3   OH252577   1.639   6.070  11.284  0.4126 -0.2156 -0.5384
 9461TIP3    H152578   1.587   6.123  11.343  0.3826  0.7105 -1.3714
 9461TIP3    H252579   1.726   6.109  11.286  0.4347 -0.2247 -1.0324
 9462TIP3   OH252580   6.418   7.446  12.579 -0.4855 -0.3532  0.0653
 9462TIP3    H152581   6.483   7.390  12.539 -0.2074  0.9328 -1.4023
 9462TIP3    H252582   6.334   7.411  12.549 -0.4566 -1.4276  1.1712
 9463TIP3   OH252583   6.199   7.332  12.456  0.2478 -0.1340 -0.8928
 9463TIP3    H152584   6.253   7.262  12.418  2.8175  1.0734  0.3230
 9463TIP3    H252585   6.120   7.333  12.401  0.0398 -3.9546 -0.9531
 9464TIP3   OH252586   6.387   3.407  11.108  0.3442  0.2905 -0.4287
 9464TIP3    H152587   6.481   3.404  11.092  0.1823 -0.1948 -1.3812
 9464TIP3    H252588   6.352   3.330  11.063 -0.5332  0.5719 -0.2622
 9465TIP3   OH252589   7.106   2.509  11.101  0.4551 -0.1417 -0.5657
 9465TIP3    H152590   7.014   2.509  11.077  0.2573 -0.4725  0.1582
 9465TIP3    H252591   7.147   2.571  11.041  0.1268 -1.4706 -2.2172
 9466TIP3   OH252592   0.256   0.120  11.947  1.0703 -0.0031 -0.2570
 9466TIP3    H152593   0.191   0.190  11.958  0.1301 -0.7473 -0.9276
 9466TIP3    H252594   0.301   0.142  11.865  0.6676 -0.2650 -0.5499
 9467TIP3   OH252595   7.519   2.100  12.646 -0.0054 -0.3928 -0.4097
 9467TIP3    H152596   7.436   2.056  12.627  0.6831 -1.5805 -0.8152
 9467TIP3    H252597   7.560   2.045  12.712  0.3116  0.3806  0.0440
 9468TIP3   OH252598   0.107   3.792  12.079 -0.0624 -0.2538  0.0369
 9468TIP3    H152599   0.022   3.772  12.118  0.2244 -1.8474 -0.0598
 9468TIP3    H252600   0.120   3.885  12.095 -2.8242  0.5940 -1.9329
 9469TIP3   OH252601   6.128   5.273  12.868 -0.0488  0.1063 -0.1502
 9469TIP3    H152602   6.185   5.272  12.945 -0.0144 -1.4646 -0.1709
 9469TIP3    H252603   6.107   5.366  12.855 -0.2111  0.3862  1.8513
 9470TIP3   OH252604   6.121   2.284  13.251  0.0209  0.6989 -0.5094
 9470TIP3    H152605   6.054   2.293  13.319  0.1636 -2.2383  0.1629
 9470TIP3    H252606   6.104   2.356  13.191 -2.2758  1.4069  0.8421
 9471TIP3   OH252607   5.638   3.942  10.549 -0.4029 -0.5796 -0.0834
 9471TIP3    H152608   5.546   3.932  10.522 -0.4766 -3.9511  0.8938
 9471TIP3    H252609   5.642   3.900  10.636  1.5725  1.9338  1.1710
 9472TIP3   OH252610   3.230   6.850  11.642  0.0977 -0.1219 -0.2282
 9472TIP3    H152611   3.226   6.762  11.681  1.1213 -0.3458 -0.5961
 9472TIP3    H252612   3.225   6.910  11.717  2.6113 -0.5493  0.3863
 9473TIP3   OH252613   6.747   1.166  10.910 -0.0625 -0.0725 -0.2188
 9473TIP3    H152614   6.655   1.188  10.925  0.1519  0.4520  0.3692
 9473TIP3    H252615   6.770   1.111  10.985 -0.4976 -2.1175 -1.4897
 9474TIP3   OH252616   4.369   4.875  11.389 -0.0231 -0.5619  0.3703
 9474TIP3    H152617   4.368   4.780  11.402 -0.2379 -0.4224  1.4667
 9474TIP3    H252618   4.450   4.904  11.430  0.0774 -0.2686 -0.0265
 9475TIP3   OH252619   3.129   1.480  10.874 -0.0767  1.0059 -0.7182
 9475TIP3    H152620   3.151   1.397  10.915 -0.8436  0.4803 -1.3521
 9475TIP3    H252621   3.138   1.545  10.944  0.8770  0.4558 -0.3094
 9476TIP3   OH252622   5.519   0.241  12.075 -0.3365  0.0468  0.0814
 9476TIP3    H152623   5.579   0.246  12.000 -2.7801  1.6766 -1.9303
 9476TIP3    H252624   5.504   0.147  12.087  0.0409 -0.2644 -1.5835
 9477TIP3   OH252625   0.784   1.647  12.130  0.2117  0.5202  0.3653
 9477TIP3    H152626   0.790   1.734  12.170 -1.3400  0.3757  0.9742
 9477TIP3    H252627   0.871   1.609  12.143  0.4092  1.3241  1.6568
 9478TIP3   OH252628   4.345   0.693  11.366 -0.2417 -0.9468 -0.4791
 9478TIP3    H152629   4.276   0.673  11.303 -1.8748 -0.0459  0.9509
 9478TIP3    H252630   4.315   0.654  11.448  1.4753 -1.4447 -0.0358
 9479TIP3   OH252631   1.167   2.920  11.131  0.2594  0.1190  0.1490
 9479TIP3    H152632   1.150   3.002  11.085 -2.8487 -0.5595 -0.1737
 9479TIP3    H252633   1.178   2.945  11.223  0.7767  0.9951 -0.1448
 9480TIP3   OH252634   4.823   6.991  11.024 -0.3503  0.0875 -0.1573
 9480TIP3    H152635   4.832   7.075  11.069 -0.7945  1.2473 -2.0731
 9480TIP3    H252636   4.755   6.945  11.073  1.8793 -0.4392  2.6361
 9481TIP3   OH252637   2.376   0.277  11.353  0.8305  0.1542 -0.4939
 9481TIP3    H152638   2.446   0.225  11.313 -0.5540 -1.0802 -1.4316
 9481TIP3    H252639   2.296   0.231  11.330 -0.1856 -0.0175  2.8003
 9482TIP3   OH252640   2.623   1.119  12.954 -0.4233 -0.2483 -0.7146
 9482TIP3    H152641   2.655   1.207  12.933  1.3456 -0.5750  0.3854
 9482TIP3    H252642   2.620   1.117  13.049  0.0209 -1.5159 -0.7155
 9483TIP3   OH252643   0.958   5.489  11.963 -0.0489 -0.0800  0.1419
 9483TIP3    H152644   0.883   5.455  12.010  0.0385 -0.0147  0.3267
 9483TIP3    H252645   0.928   5.497  11.872  0.0676 -1.1116 -0.0039
 9484TIP3   OH252646   7.576   6.673  10.575 -0.7558  0.0534 -0.5852
 9484TIP3    H152647   7.523   6.745  10.612 -1.4077  0.7937 -2.8250
 9484TIP3    H252648   7.513   6.619  10.528 -0.3250 -2.2630  1.3454
 9485TIP3   OH252649   3.397   5.677  13.282 -0.2952  0.3701  0.3223
 9485TIP3    H152650   3.357   5.761  13.303 -0.5878  0.7918 -1.6753
 9485TIP3    H252651   3.467   5.666  13.346 -1.2165  1.3964  1.5481
 9486TIP3   OH252652   6.332   1.633  12.055  0.7460 -0.0718  0.1659
 9486TIP3    H152653   6.407   1.598  12.009  0.9527  1.1556 -0.4926
 9486TIP3    H252654   6.260   1.574  12.034  1.4261 -1.0324  0.4903
 9487TIP3   OH252655   2.614   4.647  11.777 -0.2225 -0.0442  0.5272
 9487TIP3    H152656   2.632   4.563  11.736  0.4772  0.0952  0.5393
 9487TIP3    H252657   2.613   4.709  11.704  0.2366  0.0836  0.6265
 9488TIP3   OH252658   1.907   2.505  10.948 -0.2505 -0.2315  0.5523
 9488TIP3    H152659   1.879   2.420  10.982 -0.0418 -0.3881  0.3345
 9488TIP3    H252660   1.962   2.541  11.017 -0.8134 -0.0103  0.8971
 9489TIP3   OH252661   7.135   1.379  11.835  0.0179 -0.5426  1.2124
 9489TIP3    H152662   7.177   1.427  11.906  1.3933  1.6023 -0.8829
 9489TIP3    H252663   7.203   1.318  11.804  0.1152 -0.1186  0.5677
 9490TIP3   OH252664   1.905   4.286  11.814 -0.4676 -0.4693  0.1140
 9490TIP3    H152665   1.889   4.257  11.904  1.1534  0.2659  0.6598
 9490TIP3    H252666   1.891   4.208  11.761  1.3139 -1.6586  1.2997
 9491TIP3   OH252667   6.349   1.406  12.370 -0.1663 -0.5782 -0.5235
 9491TIP3    H152668   6.357   1.317  12.403 -1.3059  0.3397  2.5721
 9491TIP3    H252669   6.255   1.422  12.364 -0.0111 -0.1551 -3.0081
 9492TIP3   OH252670   5.740   6.341  11.900 -0.6723 -0.4622 -0.0441
 9492TIP3    H152671   5.739   6.257  11.854 -2.1495 -0.3016 -0.3508
 9492TIP3    H252672   5.653   6.378  11.885  0.1502  1.4268 -0.4469
 9493TIP3   OH252673   5.009   3.416  11.021  0.4971 -0.0396 -0.0122
 9493TIP3    H152674   4.975   3.327  11.031 -0.2172  0.3968  1.9093
 9493TIP3    H252675   5.014   3.429  10.926 -1.4408 -1.3697 -0.3657
 9494TIP3   OH252676   3.911   5.336  12.482  0.2000  0.2287 -0.2899
 9494TIP3    H152677   3.880   5.423  12.508 -1.4614 -0.4776  0.2090
 9494TIP3    H252678   3.941   5.296  12.563 -0.0865 -0.0759 -0.3346
 9495TIP3   OH252679   3.509   3.397  11.839  0.0772  0.4398  0.1877
 9495TIP3    H152680   3.597   3.365  11.819 -0.5246 -1.8629  0.8688
 9495TIP3    H252681   3.466   3.403  11.753  0.3320 -0.2919 -0.0020
 9496TIP3   OH252682   0.529   6.237  10.462  0.1207  0.6145  0.4153
 9496TIP3    H152683   0.489   6.157  10.428 -0.1187 -0.0888  2.2556
 9496TIP3    H252684   0.618   6.236  10.425 -0.2390  0.0964 -0.4679
 9497TIP3   OH252685   0.282   3.296  11.055 -0.0325 -0.0492 -0.4921
 9497TIP3    H152686   0.264   3.236  11.127 -0.8045 -0.2155 -0.8025
 9497TIP3    H252687   0.320   3.240  10.987 -0.0361 -0.0454 -0.4967
 9498TIP3   OH252688   4.406   0.542  11.833 -0.1839  0.0061  0.4235
 9498TIP3    H152689   4.456   0.477  11.883 -0.7836 -0.3703  0.5372
 9498TIP3    H252690   4.472   0.604  11.802  0.4891 -0.9964 -0.2264
 9499TIP3   OH252691   3.020   7.264  10.760  0.0553 -0.1900  0.0728
 9499TIP3    H152692   2.991   7.173  10.760 -1.9886  0.3990  0.2989
 9499TIP3    H252693   2.945   7.313  10.795  1.1490  1.5681  0.1019
 9500TIP3   OH252694   1.434   4.244  11.117 -0.6942 -0.7881 -0.5050
 9500TIP3    H152695   1.472   4.236  11.205 -0.0201 -0.4086 -0.7551
 9500TIP3    H252696   1.416   4.338  11.107 -0.3600 -0.7692 -0.9383
 9501TIP3   OH252697   7.456   4.753  11.932 -0.1313 -1.3016  0.5018
 9501TIP3    H152698   7.396   4.790  11.997 -0.0355  1.0386 -0.6494
 9501TIP3    H252699   7.407   4.756  11.850  0.7781 -1.4109 -0.0562
 9502TIP3   OH252700   0.250   1.862  12.019  0.3619 -0.1063  0.4158
 9502TIP3    H152701   0.205   1.807  11.955  2.2649 -1.2628  0.0017
 9502TIP3    H252702   0.338   1.826  12.025  0.6827  0.8388  2.6716
 9503TIP3   OH252703   6.259   1.111  11.844 -0.2783  0.0516  0.2259
 9503TIP3    H152704   6.181   1.107  11.899 -0.1037 -0.6635  0.4268
 9503TIP3    H252705   6.229   1.151  11.762 -0.7964  0.0203  0.3987
 9504TIP3   OH252706   4.081   4.953  11.423  0.5540 -0.0497  0.4529
 9504TIP3    H152707   4.023   4.886  11.387 -0.9277  0.0873  2.3731
 9504TIP3    H252708   4.168   4.913  11.424  0.5165 -0.3769 -2.2019
 9505TIP3   OH252709   4.911   1.741  12.362  0.3218  0.3435 -0.5400
 9505TIP3    H152710   4.863   1.787  12.431  0.1123  1.1096 -1.1773
 9505TIP3    H252711   4.989   1.706  12.405  0.1732  0.7763  0.0888
 9506TIP3   OH252712   2.127   2.074  12.856 -0.6083 -0.4007  0.3627
 9506TIP3    H152713   2.076   2.046  12.781 -1.2788 -1.4146  1.1755
 9506TIP3    H252714   2.063   2.098  12.923 -0.0420 -0.8855  1.1077
 9507TIP3   OH252715   0.313   1.524  11.368 -0.3733  0.1438 -0.3562
 9507TIP3    H152716   0.329   1.594  11.304  1.2356  1.1161  1.0372
 9507TIP3    H252717   0.400   1.498  11.398 -1.0700 -0.1560  1.5571
 9508TIP3   OH252718   2.861   4.016  11.732 -0.2603 -0.0776  0.6151
 9508TIP3    H152719   2.798   4.062  11.677 -0.3819  0.7648  1.4408
 9508TIP3    H252720   2.835   3.924  11.727 -0.2746 -0.0238 -0.7125
 9509TIP3   OH252721   2.144   0.617  11.902  0.0344  0.2872  0.1532
 9509TIP3    H152722   2.084   0.544  11.892  1.0081 -0.4674 -0.2942
 9509TIP3    H252723   2.179   0.632  11.814  1.7336 -0.3872  0.6741
 9510TIP3   OH252724   4.585   6.587  10.959 -0.4374  0.5074 -0.3026
 9510TIP3    H152725   4.581   6.678  10.930  0.8750  0.8035  0.3751
 9510TIP3    H252726   4.544   6.587  11.045 -2.1452  0.0816 -1.0858
 9511TIP3   OH252727   2.629   2.506  11.355 -0.1611 -0.4991 -0.8157
 9511TIP3    H152728   2.685   2.428  11.354 -1.0238 -1.1779  0.4945
 9511TIP3    H252729   2.559   2.486  11.293  0.9318  0.3084 -2.3787
 9512TIP3   OH252730   6.208   2.744  12.512 -0.1030 -0.2359  0.0175
 9512TIP3    H152731   6.224   2.674  12.449  0.1791 -2.2027  2.1205
 9512TIP3    H252732   6.275   2.809  12.494  0.9511 -1.4681 -0.7219
 9513TIP3   OH252733   7.513   6.490  11.026  0.4376  0.0915 -0.2776
 9513TIP3    H152734   7.481   6.469  10.938 -0.2951 -1.1450  0.2491
 9513TIP3    H252735   7.434   6.493  11.080  0.8123  1.4954  0.2409
 9514TIP3   OH252736   1.362   1.700  10.678 -0.7299  0.0805  0.2146
 9514TIP3    H152737   1.301   1.628  10.696 -0.0323 -0.2921  1.1581
 9514TIP3    H252738   1.307   1.778  10.679 -1.8784 -0.5283 -2.7794
 9515TIP3   OH252739   4.571   6.438  12.144  0.2411  0.2908  0.5400
 9515TIP3    H152740   4.646   6.446  12.202  0.2665  0.4646  0.4842
 9515TIP3    H252741   4.507   6.387  12.194  0.6492 -0.4422  0.3317
 9516TIP3   OH252742   6.808   4.465  12.751  0.0748 -0.0464 -0.1718
 9516TIP3    H152743   6.840   4.377  12.729 -0.7838 -0.0858 -1.3622
 9516TIP3    H252744   6.792   4.507  12.666  0.3620  1.2282  0.3824
 9517TIP3   OH252745   3.371   7.177  11.232  0.2616 -0.4529 -0.1435
 9517TIP3    H152746   3.419   7.153  11.311 -0.0449 -2.0488 -0.4069
 9517TIP3    H252747   3.310   7.105  11.218  0.1736 -0.1123 -1.7170
 9518TIP3   OH252748   6.213   7.240  11.301 -0.5005 -0.1059 -0.0485
 9518TIP3    H152749   6.259   7.172  11.350 -1.8464 -0.6940  0.4399
 9518TIP3    H252750   6.174   7.194  11.226 -0.2289  0.3996 -0.5124
 9519TIP3   OH252751   2.933   5.172  11.720  0.4208  0.0095 -0.3365
 9519TIP3    H152752   2.971   5.139  11.801  2.5014  0.8034 -0.9129
 9519TIP3    H252753   2.889   5.254  11.745  1.8961  0.7700 -0.1092
 9520TIP3   OH252754   0.571   7.228  10.975  0.0702 -0.5409  0.6992
 9520TIP3    H152755   0.661   7.255  10.992  0.8520 -2.1268 -0.6377
 9520TIP3    H252756   0.550   7.170  11.048  0.5627 -1.0562  0.4457
 9521TIP3   OH252757   2.413   3.269  13.073  0.3263 -0.1547 -0.0057
 9521TIP3    H152758   2.349   3.326  13.032  0.2462 -1.3407 -1.6304
 9521TIP3    H252759   2.368   3.185  13.084  0.8678 -0.3328  1.0390
 9522TIP3   OH252760   6.874   5.089  10.977 -0.4846  0.4008  0.0137
 9522TIP3    H152761   6.856   5.061  10.887 -0.6749  0.5649 -0.0018
 9522TIP3    H252762   6.867   5.184  10.974 -0.5113  0.4054  0.2067
 9523TIP3   OH252763   0.752   3.575  10.978 -0.7302  0.1301 -0.9124
 9523TIP3    H152764   0.691   3.503  10.997  1.9117 -2.0333 -0.0811
 9523TIP3    H252765   0.794   3.549  10.895 -0.8504  1.5488 -1.4367
 9524TIP3   OH252766   7.136   2.867  10.788  0.1128  0.3264 -0.7474
 9524TIP3    H152767   7.128   2.772  10.796 -1.6147  0.3095 -2.1122
 9524TIP3    H252768   7.224   2.880  10.752  0.1339 -0.8061 -1.1491
 9525TIP3   OH252769   7.150   6.220  10.773  0.1707 -0.1502 -0.0810
 9525TIP3    H152770   7.200   6.206  10.693 -0.0769  0.3996 -0.3388
 9525TIP3    H252771   7.211   6.197  10.844  0.6038 -0.0247 -0.4089
 9526TIP3   OH252772   5.276   5.948  11.375 -0.2581 -0.2060 -0.2888
 9526TIP3    H152773   5.259   5.995  11.293 -0.6812  1.1975  0.5505
 9526TIP3    H252774   5.191   5.948  11.420  0.2665  0.2798  0.7386
 9527TIP3   OH252775   3.807   1.739  11.272 -0.1278 -0.0421 -0.4950
 9527TIP3    H152776   3.867   1.727  11.346  0.4395  2.4793 -0.4583
 9527TIP3    H252777   3.860   1.780  11.204 -1.4139  0.7200 -1.0817
 9528TIP3   OH252778   5.490   0.203  11.261 -0.1746  0.0752  0.3369
 9528TIP3    H152779   5.453   0.122  11.225 -1.1458  0.9940 -0.7951
 9528TIP3    H252780   5.527   0.248  11.185  1.2001  0.2920  1.0993
 9529TIP3   OH252781   0.188   5.800  10.538 -0.1541  0.1762 -0.8973
 9529TIP3    H152782   0.180   5.888  10.574  0.2885  0.4952 -1.5563
 9529TIP3    H252783   0.282   5.780  10.544 -0.2867 -0.3786 -0.4804
 9530TIP3   OH252784   5.762   0.179  11.898 -0.5154  0.0202  0.2915
 9530TIP3    H152785   5.744   0.085  11.890 -0.5548  0.0094  0.4920
 9530TIP3    H252786   5.780   0.208  11.809  1.5862 -0.5941  0.4567
 9531TIP3   OH252787   0.425   5.944  11.672  0.0929  0.0094  0.0581
 9531TIP3    H152788   0.407   5.854  11.643 -1.9768  0.0487  1.0841
 9531TIP3    H252789   0.452   5.935  11.763 -0.1897  0.4308  0.1840
 9532TIP3   OH252790   4.610   6.696  11.750  0.2436  0.2687  0.1072
 9532TIP3    H152791   4.576   6.617  11.707  1.4248  0.4973 -1.3251
 9532TIP3    H252792   4.695   6.670  11.785 -0.7852  0.0180  2.6611
 9533TIP3   OH252793   7.466   0.334  10.919  0.1169 -0.4681  0.1016
 9533TIP3    H152794   7.473   0.240  10.902 -0.2131 -0.7775  1.5322
 9533TIP3    H252795   7.509   0.375  10.844 -0.7708 -1.7120 -1.1434
 9534TIP3   OH252796   0.002   5.120  11.526 -0.1797  0.4044 -0.4564
 9534TIP3    H152797  -0.080   5.089  11.565  0.2024 -0.6702 -0.5014
 9534TIP3    H252798   0.035   5.185  11.588 -0.6892  0.2971 -0.0687
 9535TIP3   OH252799   1.706   7.535  12.746 -0.7718  0.3439  0.4225
 9535TIP3    H152800   1.644   7.534  12.818 -1.3827  0.5798 -0.0865
 9535TIP3    H252801   1.719   7.443  12.723 -2.9432  0.3428 -1.1261
 9536TIP3   OH252802   2.094   2.594  11.122  0.8101 -0.5071  0.0136
 9536TIP3    H152803   2.141   2.511  11.116  1.9397  0.0314  0.9595
 9536TIP3    H252804   2.157   2.654  11.164 -0.4138  0.4859  0.4834
 9537TIP3   OH252805   2.258   6.462  12.398 -0.0593 -0.0096  0.0847
 9537TIP3    H152806   2.225   6.508  12.476 -1.0070 -0.2570 -0.1575
 9537TIP3    H252807   2.185   6.463  12.337 -0.8406 -3.5243  0.7690
 9538TIP3   OH252808   5.514   3.333  11.082  0.1806  0.2687 -0.6942
 9538TIP3    H152809   5.458   3.410  11.078  0.3225  0.4341  0.1643
 9538TIP3    H252810   5.480   3.274  11.015 -2.2711 -0.4510  1.0466
 9539TIP3   OH252811   3.165   2.204  11.611 -0.5497 -0.0400  0.2931
 9539TIP3    H152812   3.189   2.291  11.580 -0.4238  0.0073  0.5198
 9539TIP3    H252813   3.235   2.147  11.579 -1.2723 -0.2760 -0.9334
 9540TIP3   OH252814   1.940   6.328  11.658 -0.3490 -0.3012  0.2736
 9540TIP3    H152815   1.966   6.236  11.653 -0.4486 -0.3440  0.5699
 9540TIP3    H252816   1.939   6.357  11.566  1.7957  0.0037  0.3015
 9541TIP3   OH252817   0.522   6.874  11.955  0.4700 -0.0382  0.5317
 9541TIP3    H152818   0.606   6.834  11.977  0.2190 -0.8132  0.1176
 9541TIP3    H252819   0.466   6.800  11.932 -0.3772  0.4551  0.9694
 9542TIP3   OH252820   2.218   5.254  10.703 -0.5102  0.8876 -0.4021
 9542TIP3    H152821   2.217   5.270  10.797 -0.1090  1.5391 -0.5038
 9542TIP3    H252822   2.233   5.340  10.664 -1.2109  0.7154 -1.0843
 9543TIP3   OH252823   7.336   4.299  13.260 -0.1634 -0.0221 -0.3875
 9543TIP3    H152824   7.312   4.302  13.353 -1.7342  0.0961 -0.7688
 9543TIP3    H252825   7.332   4.205  13.238 -4.4135  0.2033 -1.3833
 9544TIP3   OH252826   4.550   4.508  12.406 -0.8824 -0.2972 -0.3287
 9544TIP3    H152827   4.597   4.425  12.414 -1.5236 -0.5631  0.8776
 9544TIP3    H252828   4.562   4.551  12.490 -1.5170  0.3237 -0.5407
 9545TIP3   OH252829   0.938   7.200  12.738 -0.6240  0.2287  0.8078
 9545TIP3    H152830   1.023   7.241  12.720 -1.2880  0.8191 -1.1470
 9545TIP3    H252831   0.952   7.107  12.720 -0.7436  0.5267 -0.9280
 9546TIP3   OH252832   3.843   0.188  12.710 -0.4903 -0.0583 -0.3594
 9546TIP3    H152833   3.922   0.233  12.739  1.2604 -2.9711 -0.2505
 9546TIP3    H252834   3.824   0.225  12.623  1.1215  0.5115 -0.4953
 9547TIP3   OH252835   6.475   0.910  11.010  0.2956  0.3196 -0.0922
 9547TIP3    H152836   6.515   0.996  10.999 -1.0896  0.7409 -2.7593
 9547TIP3    H252837   6.387   0.928  11.041  0.6461 -0.3173  1.3587
 9548TIP3   OH252838   3.291   0.799  11.354 -0.5724 -0.0681  0.5419
 9548TIP3    H152839   3.292   0.820  11.261 -1.0561 -0.1655  0.5098
 9548TIP3    H252840   3.383   0.801  11.380  0.0176 -3.4259 -0.7095
 9549TIP3   OH252841   1.551   2.008  10.736  0.0087 -0.0322 -0.0681
 9549TIP3    H152842   1.468   1.968  10.711 -0.8702  0.1102  2.3909
 9549TIP3    H252843   1.532   2.057  10.815  2.2752  0.7264  0.0937
 9550TIP3   OH252844   5.824   5.654  12.804 -0.9606 -0.4719 -0.5574
 9550TIP3    H152845   5.853   5.692  12.887 -2.7812 -0.4159  0.0862
 9550TIP3    H252846   5.807   5.731  12.748  0.7016 -0.5166 -1.1794
 9551TIP3   OH252847   0.960   1.610  11.016  0.6565 -0.0743  0.0761
 9551TIP3    H152848   0.941   1.643  10.928  2.1835  0.8115  0.0318
 9551TIP3    H252849   0.879   1.623  11.064 -0.2555 -0.6987 -1.2280
 9552TIP3   OH252850   1.060   1.194  10.847  0.3488  0.0022 -0.3885
 9552TIP3    H152851   0.989   1.132  10.834 -0.3064  0.6793 -0.1022
 9552TIP3    H252852   1.030   1.251  10.917 -0.8025  3.1133 -3.1649
 9553TIP3   OH252853   3.282   1.192  10.829 -0.1896 -0.9061 -0.0220
 9553TIP3    H152854   3.361   1.243  10.810 -0.7080 -0.2851 -0.5856
 9553TIP3    H252855   3.223   1.212  10.756 -1.4778 -0.0910  1.1855
 9554TIP3   OH252856   5.529   6.627  12.088  0.7149 -0.1162  0.0364
 9554TIP3    H152857   5.542   6.592  12.176  1.4523 -1.5460 -0.6052
 9554TIP3    H252858   5.436   6.613  12.070  1.0654 -2.2704 -0.3750
 9555TIP3   OH252859   1.866   4.913  12.579 -0.1742  0.4242 -0.3957
 9555TIP3    H152860   1.923   4.935  12.653  0.1476 -0.1731 -0.4552
 9555TIP3    H252861   1.924   4.868  12.517 -0.8037 -0.6287 -0.2496
 9556TIP3   OH252862   3.013   4.186  12.207 -0.2939  0.2895  0.0621
 9556TIP3    H152863   3.060   4.155  12.130  0.1796 -0.0557  0.4818
 9556TIP3    H252864   3.014   4.111  12.267 -1.7155  0.1380 -0.0641
 9557TIP3   OH252865   4.264   5.902  11.760 -0.2249 -0.1877  0.1782
 9557TIP3    H152866   4.176   5.939  11.766 -1.0571 -2.0429 -0.0386
 9557TIP3    H252867   4.290   5.889  11.851 -1.1621 -1.7803  0.2593
 9558TIP3   OH252868   1.361   4.327  12.061 -0.3726  0.0621 -0.1196
 9558TIP3    H152869   1.435   4.381  12.089  1.1904 -1.3201 -1.3211
 9558TIP3    H252870   1.352   4.260  12.129 -0.7858  0.4428  0.2089
 9559TIP3   OH252871   4.652   7.402  11.510 -0.0967  0.2104  0.0395
 9559TIP3    H152872   4.561   7.386  11.485  0.2387 -0.6492 -0.7088
 9559TIP3    H252873   4.653   7.391  11.605 -0.5065 -1.3088 -0.1019
 9560TIP3   OH252874   0.799   6.200  12.171 -0.3501 -0.9316 -0.5416
 9560TIP3    H152875   0.754   6.200  12.087  0.3688 -0.3712 -0.9370
 9560TIP3    H252876   0.767   6.280  12.215 -0.6240 -1.1539 -0.3271
 9561TIP3   OH252877   5.253   4.647  11.267  0.4167 -0.3584  1.0265
 9561TIP3    H152878   5.172   4.632  11.219  0.3886 -0.9671  1.2652
 9561TIP3    H252879   5.309   4.694  11.204 -0.3038  0.5643  1.0409
 9562TIP3   OH252880   6.928   4.219  12.663  0.2604 -0.1511 -0.8085
 9562TIP3    H152881   6.896   4.163  12.593  2.5182 -2.2077 -0.3228
 9562TIP3    H252882   6.973   4.290  12.619 -0.5775  0.0146 -1.4238
 9563TIP3   OH252883   1.509   3.661  11.441 -0.4524  0.3686 -0.0192
 9563TIP3    H152884   1.545   3.737  11.487 -2.1284  0.5425  1.0733
 9563TIP3    H252885   1.420   3.652  11.474  0.3706 -3.5451  1.6945
 9564TIP3   OH252886   5.007   2.389  10.306 -0.1268 -0.0823  0.0920
 9564TIP3    H152887   4.927   2.386  10.360 -0.1027 -0.2903  0.1190
 9564TIP3    H252888   4.984   2.444  10.232  0.3954  1.7163  1.1995
 9565TIP3   OH252889   0.532   2.587  12.182  0.2893 -0.3783  0.0090
 9565TIP3    H152890   0.520   2.652  12.251 -0.0533 -0.4560  0.0252
 9565TIP3    H252891   0.443   2.560  12.158  0.3279  0.6565 -1.4196
 9566TIP3   OH252892   4.300   3.426  10.707 -0.2339  0.4482 -0.1361
 9566TIP3    H152893   4.218   3.380  10.691  0.1841  0.0700 -1.3055
 9566TIP3    H252894   4.310   3.425  10.802 -0.0134 -2.3040 -0.1120
 9567TIP3   OH252895   3.671   6.244  11.345  0.0103 -0.5921  0.0219
 9567TIP3    H152896   3.729   6.278  11.413 -0.0813 -1.2165  0.4195
 9567TIP3    H252897   3.663   6.151  11.365 -1.1689 -0.5078  0.0004
 9568TIP3   OH252898   7.152   3.526  10.809  0.1617 -0.3136  0.5511
 9568TIP3    H152899   7.106   3.553  10.888 -0.5990  0.6839 -0.2044
 9568TIP3    H252900   7.126   3.435  10.797 -0.9778 -0.0128  0.6050
 9569TIP3   OH252901   7.262   3.238  12.617  0.4480 -0.6103  0.6137
 9569TIP3    H152902   7.275   3.328  12.646  0.2309  0.1479 -1.4050
 9569TIP3    H252903   7.168   3.224  12.626  0.5514 -0.8170  1.3928
 9570TIP3   OH252904   0.017   6.638  11.779  0.5982  0.2553  0.3259
 9570TIP3    H152905   0.069   6.681  11.710  1.0929 -0.7723  0.0366
 9570TIP3    H252906  -0.035   6.708  11.817  0.8246  0.9712 -0.6437
 9571TIP3   OH252907   5.548   3.741  12.259 -0.1676 -0.4931 -0.1434
 9571TIP3    H152908   5.570   3.773  12.347  1.3769 -0.3863 -0.5515
 9571TIP3    H252909   5.454   3.758  12.251 -0.4293 -0.8871  1.6450
 9572TIP3   OH252910   5.242   6.901  12.652 -0.4935 -0.1185 -0.3078
 9572TIP3    H152911   5.210   6.851  12.727  0.5984  0.3341  0.4777
 9572TIP3    H252912   5.182   6.974  12.645 -0.2847  0.1414  0.4883
 9573TIP3   OH252913   6.227   0.171  12.762  0.3087  0.6107  0.3275
 9573TIP3    H152914   6.245   0.236  12.831  0.1919 -0.0820  1.0316
 9573TIP3    H252915   6.296   0.105  12.774  1.6475  1.5535 -1.6573
 9574TIP3   OH252916   2.142   0.477  10.538  0.1747  0.3006 -0.7691
 9574TIP3    H152917   2.055   0.439  10.545 -0.0574  0.6250 -1.8063
 9574TIP3    H252918   2.134   0.565  10.577 -0.0677  0.4932 -1.2530
 9575TIP3   OH252919   3.077   5.615  12.730  0.0504  0.1702  0.0614
 9575TIP3    H152920   3.078   5.703  12.693  2.7076  1.1553  2.1191
 9575TIP3    H252921   3.014   5.621  12.802 -0.0347  0.2897 -0.0221
 9576TIP3   OH252922   6.662   0.030  11.986  0.3494 -0.2982 -0.3026
 9576TIP3    H152923   6.568   0.049  11.979  0.3748 -0.4398 -1.0489
 9576TIP3    H252924   6.694   0.036  11.897  1.6980  3.0762  0.2630
 9577TIP3   OH252925   6.369   5.823  11.621 -0.4431  0.2106  1.0069
 9577TIP3    H152926   6.334   5.737  11.597 -0.2075  0.6303 -1.0557
 9577TIP3    H252927   6.294   5.882  11.619 -0.0038  0.8440 -2.0520
 9578TIP3   OH252928   6.094   0.930  11.630  0.0628 -0.1003  0.6645
 9578TIP3    H152929   6.123   0.885  11.709 -0.7954 -0.2207  0.9181
 9578TIP3    H252930   5.999   0.934  11.638  0.0018  0.2752 -0.1553
 9579TIP3   OH252931   2.118   0.959  10.940 -0.1283 -0.0514  0.2192
 9579TIP3    H152932   2.049   0.939  11.003  0.6117 -0.1675  1.0168
 9579TIP3    H252933   2.143   1.049  10.960 -1.7655  0.9213 -1.7475
 9580TIP3   OH252934   1.499   3.601  12.071  0.0317 -0.0114  0.0260
 9580TIP3    H152935   1.467   3.655  12.144 -0.9531 -0.1783 -0.2637
 9580TIP3    H252936   1.419   3.568  12.029  0.5431  0.6504 -1.5603
 9581TIP3   OH252937   1.986   3.086  11.290  0.1266  0.2542  0.3692
 9581TIP3    H152938   2.060   3.101  11.350 -0.7747 -0.6803  1.7885
 9581TIP3    H252939   1.986   3.162  11.232  1.2803  1.0157  1.3219
 9582TIP3   OH252940   2.367   6.545  12.958 -0.2744  0.2483 -0.0516
 9582TIP3    H152941   2.357   6.640  12.962  0.0172  0.2482  0.8632
 9582TIP3    H252942   2.284   6.511  12.990 -0.3383  0.1930 -0.2736
 9583TIP3   OH252943   2.558   0.622  11.880  0.3495 -0.1694  0.0750
 9583TIP3    H152944   2.473   0.662  11.858  0.8673  0.8857 -0.0969
 9583TIP3    H252945   2.591   0.590  11.796  0.3027 -0.2143  0.0735
 9584TIP3   OH252946   6.113   5.072  12.663  0.7171  0.0307  0.3547
 9584TIP3    H152947   6.024   5.094  12.635  0.5328 -0.7123  0.3274
 9584TIP3    H252948   6.123   5.113  12.748  0.3076  0.0385  0.3995
 9585TIP3   OH252949   3.467   4.662  13.005  0.1984 -0.2547 -0.5242
 9585TIP3    H152950   3.451   4.724  12.934 -0.5364 -2.2370 -2.1545
 9585TIP3    H252951   3.381   4.629  13.028  0.2407  1.2040  2.2260
 9586TIP3   OH252952   7.279   1.669  11.385  0.0715  0.2794 -0.3154
 9586TIP3    H152953   7.226   1.606  11.337 -1.1391 -0.3472  1.7326
 9586TIP3    H252954   7.216   1.726  11.430  1.1344  0.8950  0.4623
 9587TIP3   OH252955   3.164   4.519  12.774 -0.5621 -0.4724  0.2321
 9587TIP3    H152956   3.118   4.451  12.726  0.0620 -0.0514 -0.9858
 9587TIP3    H252957   3.255   4.488  12.779 -0.5400 -0.3346  0.8324
 9588TIP3   OH252958   4.002   6.276  11.912 -0.6696  0.1392 -0.1129
 9588TIP3    H152959   3.918   6.314  11.937 -0.7065 -0.4727  0.7586
 9588TIP3    H252960   4.067   6.343  11.935 -0.8879  0.4995 -0.5268
 9589TIP3   OH252961   0.709   1.006  12.016 -0.2016  0.3453  0.2792
 9589TIP3    H152962   0.800   1.002  11.988 -0.6953  1.1932 -1.6430
 9589TIP3    H252963   0.700   1.092  12.057 -0.3451  0.6996 -0.4684
 9590TIP3   OH252964   0.381   5.145  12.973  0.4566 -0.1981 -0.4524
 9590TIP3    H152965   0.381   5.240  12.971  0.9996 -0.1882 -0.1999
 9590TIP3    H252966   0.438   5.122  13.046 -0.7393 -0.7110  0.3539
 9591TIP3   OH252967   5.317   2.774  11.022  0.5702 -0.2114 -0.7220
 9591TIP3    H152968   5.364   2.793  10.940  1.2786  0.7243 -0.1255
 9591TIP3    H252969   5.374   2.714  11.069  0.1252 -0.8124 -0.9393
 9592TIP3   OH252970   4.580   5.496  12.012  0.2610  0.2036  0.0669
 9592TIP3    H152971   4.604   5.500  11.919  1.3183  0.2203  0.3302
 9592TIP3    H252972   4.484   5.495  12.012  0.2097  1.6987 -0.9824
 9593TIP3   OH252973   6.073   0.510  12.439 -0.4496  0.3509 -0.4922
 9593TIP3    H152974   5.988   0.548  12.461  0.1403  0.5673  1.5978
 9593TIP3    H252975   6.135   0.554  12.497  1.0741  0.0333 -1.8182
 9594TIP3   OH252976   0.042   2.088  11.093 -0.0387  0.5618 -0.5482
 9594TIP3    H152977  -0.052   2.075  11.081  0.0258  0.7528 -1.2765
 9594TIP3    H252978   0.061   2.170  11.048  0.5030  0.4687 -0.4964
 9595TIP3   OH252979   0.469   5.295  11.955  0.0174 -0.0016  0.1344
 9595TIP3    H152980   0.450   5.202  11.947 -1.1976  0.2000  0.5077
 9595TIP3    H252981   0.535   5.300  12.025  0.0381 -0.5747  0.1601
 9596TIP3   OH252982   2.996   7.545  11.422 -0.2718  0.4605 -0.1640
 9596TIP3    H152983   3.032   7.514  11.505 -2.0920 -2.1009 -0.2160
 9596TIP3    H252984   3.073   7.556  11.365  0.8585  0.6565  1.3338
 9597TIP3   OH252985   7.404   2.097  10.643 -0.2707  0.0672  0.4558
 9597TIP3    H152986   7.500   2.097  10.651 -0.0128  0.4538 -1.9057
 9597TIP3    H252987   7.377   2.015  10.684  1.1507 -0.4524  0.4430
 9598TIP3   OH252988   5.606   5.206  10.738 -0.3193 -0.0325  0.0227
 9598TIP3    H152989   5.670   5.257  10.788 -1.2788 -0.1326  1.3995
 9598TIP3    H252990   5.521   5.242  10.763 -0.8354  0.6651 -2.4013
 9599TIP3   OH252991   5.534   6.265  12.609 -0.1852  0.3182  0.0716
 9599TIP3    H152992   5.510   6.173  12.607 -0.5735  0.3603  1.4173
 9599TIP3    H252993   5.619   6.267  12.653 -0.8416  0.6812  1.3985
 9600TIP3   OH252994   2.060   7.646  11.953  0.3868  0.0728 -0.1717
 9600TIP3    H152995   2.016   7.591  11.888 -1.7185  1.7393 -0.2642
 9600TIP3    H252996   2.029   7.734  11.935  1.9496  0.9923  1.3591
 9601TIP3   OH252997   3.088   5.853  12.583 -0.6283 -0.0739  0.0880
 9601TIP3    H152998   2.996   5.871  12.566 -0.8488  0.4166  1.6098
 9601TIP3    H252999   3.124   5.937  12.612 -0.0236 -0.5414  0.7326
 9602TIP3   OH253000   4.363   5.403  11.181 -0.5365 -0.0019  0.7488
 9602TIP3    H153001   4.281   5.423  11.226 -0.7016 -0.7085  0.7714
 9602TIP3    H253002   4.376   5.309  11.195 -1.5029 -0.6589 -2.1208
 9603TIP3   OH253003   5.182   5.409  11.951  0.5034  0.3004 -0.4417
 9603TIP3    H153004   5.257   5.395  11.893  1.5560  1.0160  0.6843
 9603TIP3    H253005   5.167   5.323  11.992 -0.4607 -0.2926 -1.9692
 9604TIP3   OH253006   6.536   0.278  11.461 -0.3195 -0.1839  0.3956
 9604TIP3    H153007   6.566   0.196  11.421 -1.7644  0.0637 -1.3202
 9604TIP3    H253008   6.443   0.283  11.438 -0.3629  1.7209  0.8565
 9605TIP3   OH253009   5.355   0.641  11.866 -0.7365  0.4500 -0.0235
 9605TIP3    H153010   5.338   0.558  11.911 -1.2827  0.4767 -0.1716
 9605TIP3    H253011   5.268   0.677  11.849 -0.5352  0.5050 -0.9803
 9606TIP3   OH253012   6.445   1.246  10.583 -0.0311  0.5366 -0.7703
 9606TIP3    H153013   6.535   1.218  10.566 -0.1785 -2.2238  2.0950
 9606TIP3    H253014   6.452   1.341  10.596  2.5084  0.3934 -0.4949
 9607TIP3   OH253015   0.484   2.732  13.166 -0.2919  0.6531  0.8017
 9607TIP3    H153016   0.480   2.728  13.261 -0.4966  0.4291  0.7871
 9607TIP3    H253017   0.472   2.641  13.138 -0.3478  0.7327  0.5609
 9608TIP3   OH253018   1.922   4.583  10.760  0.3859  0.0455  0.0730
 9608TIP3    H153019   1.989   4.644  10.790  0.4962 -0.5369  1.0478
 9608TIP3    H253020   1.971   4.510  10.723  0.2763 -0.1261  0.2686
 9609TIP3   OH253021   2.737   1.615  12.290  0.0316 -0.0648 -0.3037
 9609TIP3    H153022   2.773   1.527  12.280 -0.8897 -0.3644 -1.0100
 9609TIP3    H253023   2.801   1.671  12.246  1.4547 -0.1470  1.4972
 9610TIP3   OH253024   5.980   6.884  12.886 -0.3372 -0.0222 -0.2436
 9610TIP3    H153025   6.063   6.914  12.923 -0.4103  3.2973 -2.3704
 9610TIP3    H253026   5.999   6.797  12.852  1.4772 -0.4368  1.5960
 9611TIP3   OH253027   0.942   1.799  11.391  0.6679  0.0249 -0.1241
 9611TIP3    H153028   0.994   1.860  11.443 -0.1242  0.0164  0.7053
 9611TIP3    H253029   0.973   1.713  11.418  1.8776  0.0295 -1.3907
 9612TIP3   OH253030   4.693   5.314  11.428  0.5067 -0.4373 -0.3363
 9612TIP3    H153031   4.706   5.249  11.358 -0.5529 -0.4725 -0.5159
 9612TIP3    H253032   4.633   5.378  11.390  1.3295  0.5236 -0.0597
 9613TIP3   OH253033   3.184   2.669  11.726 -0.1115 -0.5241  0.1649
 9613TIP3    H153034   3.119   2.614  11.680  0.3285 -0.3272 -0.7158
 9613TIP3    H253035   3.141   2.692  11.808 -1.3457 -0.0494 -0.5815
 9614TIP3   OH253036   4.871   6.749  12.442  0.9219  0.9675 -0.1614
 9614TIP3    H153037   4.804   6.780  12.504  0.4347 -0.8416  0.2652
 9614TIP3    H253038   4.942   6.717  12.497  1.4263  1.3334 -0.5885
 9615TIP3   OH253039   4.264   1.031  10.867 -0.1730  0.0198  0.0038
 9615TIP3    H153040   4.207   1.097  10.827  1.4633  2.2015  1.0491
 9615TIP3    H253041   4.352   1.065  10.856  0.6795 -1.5885  1.3507
 9616TIP3   OH253042   2.773   2.688  11.511 -0.2291 -0.1332  0.4204
 9616TIP3    H153043   2.783   2.736  11.429  0.4032  0.4673  0.8428
 9616TIP3    H253044   2.722   2.611  11.487 -0.4435  0.2643 -0.4492
 9617TIP3   OH253045   3.095   7.076  12.613 -0.2181  0.2985  0.0558
 9617TIP3    H153046   3.185   7.101  12.595  0.1242  0.2575  1.5353
 9617TIP3    H253047   3.076   7.006  12.551  0.8435  0.1731 -0.1406
 9618TIP3   OH253048   1.815   5.494  10.646  0.0447  0.2595  0.0730
 9618TIP3    H153049   1.824   5.450  10.730 -1.0727 -1.3699 -0.6241
 9618TIP3    H253050   1.904   5.519  10.622  0.7457 -1.7916  0.4248
 9619TIP3   OH253051   6.830   5.987  10.369  0.2140 -0.1952  0.6377
 9619TIP3    H153052   6.857   6.019  10.455 -0.9983 -0.4385  1.1185
 9619TIP3    H253053   6.844   6.061  10.310 -0.3443  0.4479  1.3098
 9620TIP3   OH253054   5.458   6.689  11.316  0.4959 -0.2042 -0.0697
 9620TIP3    H153055   5.382   6.745  11.329  0.2767 -0.3432 -0.7427
 9620TIP3    H253056   5.457   6.630  11.391 -0.2551 -0.4319 -0.2525
 9621TIP3   OH253057   2.500   2.302  11.120  0.4725  0.1471  0.4146
 9621TIP3    H153058   2.542   2.256  11.192  1.5014  0.2034 -0.1298
 9621TIP3    H253059   2.559   2.290  11.046 -0.6556 -0.0658 -0.4775
 9622TIP3   OH253060   4.933   2.893  12.593  0.2409 -0.8175  0.6310
 9622TIP3    H153061   5.000   2.917  12.529  0.6649 -1.3060  0.8918
 9622TIP3    H253062   4.980   2.851  12.664 -0.3419 -1.2222  0.7924
 9623TIP3   OH253063   6.342   3.909  11.818  0.2892 -0.0069 -0.1441
 9623TIP3    H153064   6.364   3.965  11.743 -0.6746  0.9277  0.2473
 9623TIP3    H253065   6.325   3.971  11.889 -0.7998 -0.7961  0.3065
 9624TIP3   OH253066   2.585   7.303  13.056  1.0321  0.7813  0.0890
 9624TIP3    H153067   2.551   7.371  13.113  1.3298  0.0766  1.1422
 9624TIP3    H253068   2.641   7.250  13.113  1.8516  0.4315 -1.0107
 9625TIP3   OH253069   0.683   0.272  11.181 -0.3799 -0.1931  0.0656
 9625TIP3    H153070   0.633   0.317  11.113  0.7942  0.7459 -0.2004
 9625TIP3    H253071   0.774   0.292  11.162 -0.0198  0.3382  2.0773
 9626TIP3   OH253072   7.604   2.382  11.029 -0.1599  0.2213  0.9162
 9626TIP3    H153073   7.692   2.401  10.994 -0.2564 -0.4881  0.2752
 9626TIP3    H253074   7.603   2.426  11.114  0.7726  0.3498  0.8767
 9627TIP3   OH253075   3.658   5.501  10.915  0.3417 -0.8364 -0.6389
 9627TIP3    H153076   3.620   5.564  10.854  0.8288 -0.4924 -0.5957
 9627TIP3    H253077   3.746   5.536  10.934  0.0193 -0.6636  0.6342
 9628TIP3   OH253078   0.801   1.551  13.041 -0.2630  0.0324  0.1505
 9628TIP3    H153079   0.727   1.576  13.097 -1.0610  0.6723 -1.1546
 9628TIP3    H253080   0.844   1.480  13.089 -0.8702  0.6187  1.6059
 9629TIP3   OH253081   5.577   6.085  11.138  0.1995 -0.3466  0.5445
 9629TIP3    H153082   5.482   6.071  11.131  0.1044  0.1299  0.7547
 9629TIP3    H253083   5.586   6.139  11.217  0.7274 -1.1434  1.0338
 9630TIP3   OH253084   2.538   6.646  13.448 -0.0097  0.4792 -0.0269
 9630TIP3    H153085   2.493   6.710  13.393 -0.8995 -2.3257 -2.8774
 9630TIP3    H253086   2.631   6.656  13.425 -0.1734  0.5735 -0.6546
 9631TIP3   OH253087   6.571   3.519  12.439 -0.0530  0.4986 -0.4771
 9631TIP3    H153088   6.501   3.576  12.471  0.1098  0.5846 -0.2642
 9631TIP3    H253089   6.531   3.465  12.372 -0.8336 -0.7925  0.9491
 9632TIP3   OH253090   2.276   3.446  10.779 -0.3986  0.4519  0.6670
 9632TIP3    H153091   2.334   3.444  10.855  0.6580  0.8467 -0.0877
 9632TIP3    H253092   2.336   3.451  10.704 -1.3830 -0.6212 -0.2305
 9633TIP3   OH253093   7.503   5.450  12.222  0.2931  0.1192  0.3610
 9633TIP3    H153094   7.587   5.462  12.179 -0.0938 -0.7907 -0.6874
 9633TIP3    H253095   7.443   5.508  12.175  0.2038  0.2982  0.6958
 9634TIP3   OH253096   1.174   3.129  10.915 -0.1370 -0.4289 -0.0589
 9634TIP3    H153097   1.203   3.072  10.845  0.4262  0.9033 -0.9496
 9634TIP3    H253098   1.253   3.173  10.945 -0.1431 -1.8711  2.3076
 9635TIP3   OH253099   7.163   6.794  11.706 -0.0217  0.0553  0.0007
 9635TIP3    H153100   7.205   6.811  11.622 -0.5885  0.9338 -0.1183
 9635TIP3    H253101   7.232   6.753  11.759  1.1874  1.9657  0.0032
 9636TIP3   OH253102   2.764   4.164  12.081  0.4301 -0.2392 -0.3326
 9636TIP3    H153103   2.848   4.197  12.114  0.1177 -1.1622  1.5053
 9636TIP3    H253104   2.735   4.102  12.148 -0.9219 -1.2031 -1.7567
 9637TIP3   OH253105   4.376   4.451  11.629 -0.1925  0.1501  0.1306
 9637TIP3    H153106   4.320   4.480  11.701  1.4846  3.5729  0.2553
 9637TIP3    H253107   4.320   4.458  11.551 -0.8321  0.5155  0.6138
 9638TIP3   OH253108   0.869   5.046  13.544 -0.2252 -0.2134  0.1008
 9638TIP3    H153109   0.812   5.123  13.544 -0.7777 -0.5853 -1.4276
 9638TIP3    H253110   0.945   5.072  13.492 -1.2086 -1.1983 -1.9443
 9639TIP3   OH253111   1.414   0.115  11.160  0.5718  0.1988 -0.0471
 9639TIP3    H153112   1.360   0.185  11.196  2.2720  0.1881  2.7876
 9639TIP3    H253113   1.392   0.038  11.212  1.3311 -0.4915 -0.7233
 9640TIP3   OH253114   0.988   3.117  12.376 -0.5013 -0.7860 -0.0161
 9640TIP3    H153115   0.954   3.060  12.445  0.5817 -0.5636  0.7235
 9640TIP3    H253116   0.921   3.185  12.365 -1.2818 -1.5426 -0.1223
 9641TIP3   OH253117   7.045   0.360  13.074 -0.4046  0.0543 -0.2672
 9641TIP3    H153118   6.962   0.387  13.112 -0.1989  0.9353 -0.4258
 9641TIP3    H253119   7.106   0.430  13.097  0.0532 -0.0802 -1.0425
 9642TIP3   OH253120   2.306   0.140  12.632 -0.4808 -0.1834 -0.0530
 9642TIP3    H153121   2.257   0.070  12.589 -2.1901  1.3372 -0.6968
 9642TIP3    H253122   2.317   0.110  12.722  0.6062 -2.1270 -0.7716
 9643TIP3   OH253123   2.626   1.366  12.094  0.7105  0.1052 -0.0264
 9643TIP3    H153124   2.687   1.434  12.064  0.0008  0.9645  0.4448
 9643TIP3    H253125   2.541   1.411  12.101 -0.0600 -1.1376 -0.9696
 9644TIP3   OH253126   3.741   6.360  12.445  0.0546  0.5335 -0.3000
 9644TIP3    H153127   3.806   6.418  12.406 -0.3536 -0.8956 -3.4902
 9644TIP3    H253128   3.658   6.408  12.438  0.3069  1.1943  1.0374
 9645TIP3   OH253129   4.662   4.910  11.355 -0.4779 -0.4509 -0.5781
 9645TIP3    H153130   4.732   4.868  11.405 -0.5780 -0.5927 -0.5556
 9645TIP3    H253131   4.642   4.847  11.286 -0.7553 -0.5192 -0.4355
 9646TIP3   OH253132   7.163   4.544  12.875  0.4110 -0.0405 -0.9193
 9646TIP3    H153133   7.208   4.471  12.833 -0.8058 -1.6654  0.4591
 9646TIP3    H253134   7.134   4.509  12.959 -1.4720  1.5959 -0.8141
 9647TIP3   OH253135   6.605   6.836  11.299  0.0537 -0.2477  0.4273
 9647TIP3    H153136   6.628   6.840  11.392  0.3747  0.5905  0.3282
 9647TIP3    H253137   6.688   6.849  11.254 -0.0238 -1.1355  0.0096
 9648TIP3   OH253138   7.402   3.679  11.344 -0.2209  0.4208 -1.4188
 9648TIP3    H153139   7.430   3.770  11.355 -0.5834  0.5540 -1.5544
 9648TIP3    H253140   7.482   3.628  11.350 -0.1982  0.6107  0.2261
 9649TIP3   OH253141   4.514   3.444  11.040 -0.3348  0.5772 -0.0990
 9649TIP3    H153142   4.570   3.370  11.015  3.4906  3.6437 -1.6173
 9649TIP3    H253143   4.547   3.472  11.125  0.0831  2.0852 -0.7301
 9650TIP3   OH253144   6.736   3.563  11.896  0.1433  0.3390  0.4762
 9650TIP3    H153145   6.678   3.493  11.927  2.8005 -2.1253  0.3792
 9650TIP3    H253146   6.680   3.640  11.891 -3.2831 -1.9481 -0.3849
 9651TIP3   OH253147   2.014   0.973  12.693  0.3698 -0.3678 -0.0995
 9651TIP3    H153148   2.066   0.899  12.724  0.3475 -0.2012  0.3553
 9651TIP3    H253149   2.050   0.994  12.607 -1.2745 -2.5144 -1.4318
 9652TIP3   OH253150   3.539   0.543  11.233  0.1107 -0.2378  0.0698
 9652TIP3    H153151   3.457   0.515  11.273  0.5468 -1.0379  0.4222
 9652TIP3    H253152   3.514   0.577  11.147 -0.5732 -0.5734  0.1337
 9653TIP3   OH253153   4.616   1.314  12.522 -0.2168 -0.4356  0.2406
 9653TIP3    H153154   4.670   1.392  12.506 -1.8273  0.6272 -0.2538
 9653TIP3    H253155   4.544   1.321  12.460 -0.0088 -2.7728 -0.3588
 9654TIP3   OH253156   6.749   1.667  10.654  0.0892 -0.3413 -0.2191
 9654TIP3    H153157   6.668   1.622  10.631  0.0745 -0.2756 -0.2954
 9654TIP3    H253158   6.818   1.609  10.624  0.0760 -0.8242  0.6552
 9655TIP3   OH253159   0.771   7.081  11.341  0.7526 -0.1248  0.1195
 9655TIP3    H153160   0.702   7.145  11.357  1.1614  0.2672  0.3351
 9655TIP3    H253161   0.734   6.998  11.373 -0.9822 -0.6810 -2.8983
 9656TIP3   OH253162   2.782   4.550  11.569 -0.1831 -0.0327 -0.2624
 9656TIP3    H153163   2.715   4.495  11.529  1.8361 -1.7648 -1.4773
 9656TIP3    H253164   2.752   4.639  11.553 -1.8881 -0.7308 -1.2712
 9657TIP3   OH253165   5.023   1.193  11.400  0.2251 -0.0420 -0.4585
 9657TIP3    H153166   4.944   1.159  11.357  0.0930  0.3626 -0.5378
 9657TIP3    H253167   5.034   1.137  11.478 -1.4578  1.3334  0.8378
 9658TIP3   OH253168   1.871   0.470  10.992 -0.1339 -0.1250  0.2358
 9658TIP3    H153169   1.900   0.380  10.980  0.1663 -0.0705  0.5612
 9658TIP3    H253170   1.912   0.518  10.920 -0.6958 -0.3352 -0.2343
 9659TIP3   OH253171   6.918   4.010  11.602  0.3252 -0.0128  0.1848
 9659TIP3    H153172   6.988   4.019  11.667  1.0681 -0.2285 -0.5767
 9659TIP3    H253173   6.946   3.938  11.546 -0.4169  0.0233 -0.2454
 9660TIP3   OH253174   3.682   0.983  10.809  0.3402 -0.1077 -0.1667
 9660TIP3    H153175   3.756   0.924  10.817 -0.3667 -0.9980 -0.0963
 9660TIP3    H253176   3.622   0.939  10.748 -0.4725  0.2425  0.3613
 9661TIP3   OH253177   4.932   6.899  10.797  0.3064  0.1532  0.2888
 9661TIP3    H153178   4.908   6.950  10.875  0.9830  0.2952  0.4183
 9661TIP3    H253179   4.959   6.814  10.831 -0.2882 -0.1064  0.1217
 9662TIP3   OH253180   5.345   6.081  10.538  0.5011 -0.7832 -0.1362
 9662TIP3    H153181   5.250   6.085  10.550  0.3151 -0.9727 -1.4586
 9662TIP3    H253182   5.373   6.011  10.598 -0.2796 -1.1809 -0.2174
 9663TIP3   OH253183   4.072   6.616  12.938 -0.0219 -0.2297 -0.0440
 9663TIP3    H153184   4.058   6.623  13.033  0.2369 -1.0572  0.0624
 9663TIP3    H253185   4.052   6.703  12.905  0.3925  0.2127  0.8332
 9664TIP3   OH253186   2.003   5.281  12.460  0.2646 -0.7378  0.2412
 9664TIP3    H153187   1.966   5.269  12.547 -2.3103 -0.9532 -0.8130
 9664TIP3    H253188   2.065   5.208  12.450  0.8848 -0.5052  1.9676
 9665TIP3   OH253189   1.177   6.951  11.486 -0.4602 -0.0039  0.5747
 9665TIP3    H153190   1.267   6.941  11.455 -0.6797 -1.6238  0.3801
 9665TIP3    H253191   1.131   6.994  11.413  0.3685  1.9092  1.1183
 9666TIP3   OH253192   6.675   1.090  10.569  0.1670 -0.9260 -0.3251
 9666TIP3    H153193   6.731   1.033  10.517  1.4399 -0.6404  0.6709
 9666TIP3    H253194   6.708   1.081  10.658 -0.4481  0.3549  0.0639
 9667TIP3   OH253195   3.733   3.615  11.303  0.0365  0.2484  0.1275
 9667TIP3    H153196   3.772   3.700  11.324  0.2710  0.3331 -0.6054
 9667TIP3    H253197   3.756   3.600  11.211 -2.9232  1.0470 -0.8749
 9668TIP3   OH253198   4.194   2.378  12.850  0.3453  0.6224  0.5134
 9668TIP3    H153199   4.137   2.429  12.794  1.3701  0.6591 -0.5259
 9668TIP3    H253200   4.152   2.381  12.936  0.1770  2.8949  0.4147
 9669TIP3   OH253201   3.585   3.975  13.038 -0.3646  0.0713  0.6848
 9669TIP3    H153202   3.671   3.964  13.079 -1.4038 -0.5110  2.8139
 9669TIP3    H253203   3.549   3.886  13.033 -1.0721  0.3725  0.3294
 9670TIP3   OH253204   4.230   0.782  10.947  0.0954 -0.3132 -0.3590
 9670TIP3    H153205   4.305   0.790  11.005  1.7772 -1.8673 -2.1487
 9670TIP3    H253206   4.222   0.869  10.907 -1.0120  0.7391  1.9644
 9671TIP3   OH253207   3.223   4.841  12.285 -0.1387 -0.4245 -0.1823
 9671TIP3    H153208   3.254   4.801  12.203 -1.3606  0.2173 -0.9852
 9671TIP3    H253209   3.227   4.935  12.268  0.3478 -0.2505  0.8050
 9672TIP3   OH253210   7.169   0.222  11.280 -0.4038 -0.1496  0.2434
 9672TIP3    H153211   7.249   0.242  11.328  0.8107 -1.8006 -1.0306
 9672TIP3    H253212   7.195   0.159  11.214 -3.2071 -2.7680  1.4096
 9673TIP3   OH253213   5.391   7.668  11.130  0.2877 -0.3595 -0.5354
 9673TIP3    H153214   5.328   7.636  11.195 -1.4282  1.1605 -1.3781
 9673TIP3    H253215   5.413   7.590  11.079 -1.5280 -0.8124 -0.7112
 9674TIP3   OH253216   4.854   7.202  11.439  0.2601 -0.0110  0.3144
 9674TIP3    H153217   4.877   7.153  11.518 -0.8033 -2.5441 -0.8402
 9674TIP3    H253218   4.763   7.229  11.453 -0.1397 -1.0105 -0.2562
 9675TIP3   OH253219   6.904   5.045  12.716 -0.2107  0.2492 -1.0222
 9675TIP3    H153220   6.834   5.039  12.781 -0.8475  0.2595 -1.6904
 9675TIP3    H253221   6.976   4.993  12.753 -1.2415 -1.3415 -1.1649
 9676TIP3   OH253222   5.215   7.433  11.978 -0.0009 -0.2769  0.4684
 9676TIP3    H153223   5.124   7.425  12.009  0.1808 -0.7669  0.8887
 9676TIP3    H253224   5.261   7.362  12.022  0.3421 -0.7857 -0.6900
 9677TIP3   OH253225   1.996   3.984  11.999  0.2864  0.4791 -0.2794
 9677TIP3    H153226   2.018   3.995  12.092 -1.1266  1.9511 -0.0569
 9677TIP3    H253227   1.911   4.028  11.990  1.0665  1.7034 -2.5650
 9678TIP3   OH253228   1.223   7.360  10.943  0.4730  0.0853  0.2378
 9678TIP3    H153229   1.311   7.397  10.951 -0.1407  1.6047  0.2398
 9678TIP3    H253230   1.191   7.391  10.858 -0.1348 -0.2772  0.3305
 9679TIP3   OH253231   4.287   3.324  10.972 -0.0928  0.7575 -0.0012
 9679TIP3    H153232   4.253   3.312  11.061  0.2816 -1.3213 -0.0897
 9679TIP3    H253233   4.372   3.367  10.984  0.5058 -0.5793  0.7668
 9680TIP3   OH253234   0.631   1.700  12.841 -0.6268 -0.7238  0.1752
 9680TIP3    H153235   0.701   1.648  12.802 -0.1173  0.5668 -0.7179
 9680TIP3    H253236   0.649   1.697  12.936  0.6696 -0.4038 -0.0346
 9681TIP3   OH253237   2.992   5.557  10.616  0.3392  0.4386 -0.5201
 9681TIP3    H153238   2.944   5.577  10.536 -0.8703  1.1896  0.3648
 9681TIP3    H253239   2.963   5.468  10.639  2.6126 -0.8787 -2.2197
 9682TIP3   OH253240   6.826   0.885  12.037 -0.7850  0.0411 -0.0296
 9682TIP3    H153241   6.769   0.948  11.992 -2.0385 -0.5657  0.6450
 9682TIP3    H253242   6.874   0.842  11.967  0.7594  2.3190 -0.4735
 9683TIP3   OH253243   0.139   2.014  12.610 -0.3922  0.3351  0.0700
 9683TIP3    H153244   0.120   1.921  12.596  0.1421  0.5037 -2.1630
 9683TIP3    H253245   0.061   2.047  12.655 -1.4578 -0.8033 -0.8499
 9684TIP3   OH253246   0.572   6.654  12.318 -0.2115  0.7642 -0.3258
 9684TIP3    H153247   0.479   6.639  12.302 -0.6776  0.4115  2.3454
 9684TIP3    H253248   0.582   6.749  12.314 -0.8695  0.8627  0.2837
 9685TIP3   OH253249   1.048   1.629  11.606  0.5568 -0.4550 -0.3184
 9685TIP3    H153250   1.030   1.705  11.661  0.2755  0.1629 -1.2406
 9685TIP3    H253251   1.139   1.640  11.578  0.6568 -0.6937 -0.0839
 9686TIP3   OH253252   2.272   0.114  11.093 -0.1830 -0.0398 -0.9776
 9686TIP3    H153253   2.273   0.056  11.170 -0.7845 -0.4785 -1.2897
 9686TIP3    H253254   2.359   0.103  11.054  0.5827  1.1259  0.3037
 9687TIP3   OH253255   4.299   6.873  11.021 -0.4905  0.2287  0.0972
 9687TIP3    H153256   4.332   6.962  11.008 -0.8252  0.6360  1.7531
 9687TIP3    H253257   4.263   6.874  11.110  0.1739 -1.7746  0.4302
 9688TIP3   OH253258   5.963   6.060  10.671  0.8990 -0.4810 -0.3863
 9688TIP3    H153259   5.933   6.017  10.591  0.4470  0.8072 -0.9400
 9688TIP3    H253260   5.931   6.150  10.663  2.2112  0.0955  0.5049
 9689TIP3   OH253261   1.124   4.358  12.852  0.2827  0.4625 -0.3158
 9689TIP3    H153262   1.033   4.355  12.882  0.4624 -0.0831  0.1823
 9689TIP3    H253263   1.161   4.436  12.894  0.6382 -0.5018  1.2175
 9690TIP3   OH253264   4.860   5.223  13.137 -0.5522  0.3406 -0.4387
 9690TIP3    H153265   4.927   5.158  13.157 -1.9608 -1.2130 -0.5034
 9690TIP3    H253266   4.890   5.265  13.056  0.2487 -0.4630 -0.5683
 9691TIP3   OH253267   0.045   2.409  10.741  0.5989 -0.2588  0.4390
 9691TIP3    H153268   0.022   2.407  10.648 -0.7750  1.4690  0.6719
 9691TIP3    H253269   0.071   2.500  10.757 -1.3548  0.0953  2.1522
 9692TIP3   OH253270   2.611   1.169  11.911  0.1500  0.2871 -0.0954
 9692TIP3    H153271   2.651   1.230  11.972 -0.2784  1.3563 -0.8399
 9692TIP3    H253272   2.616   1.213  11.826 -0.4082 -0.6005 -0.6111
 9693TIP3   OH253273   4.257   6.491  11.862 -0.1020 -0.5627 -0.2831
 9693TIP3    H153274   4.328   6.432  11.839 -1.1195 -2.0566  0.3125
 9693TIP3    H253275   4.300   6.562  11.912  0.9349 -1.5416  0.2568
 9694TIP3   OH253276   5.159   4.342  11.924 -0.7622 -0.4729 -0.0372
 9694TIP3    H153277   5.181   4.432  11.900  0.1325  0.2491  3.0177
 9694TIP3    H253278   5.067   4.332  11.899 -0.9583  1.3857 -0.1900
 9695TIP3   OH253279   0.966   1.476  12.367  0.3687 -0.0265 -1.0754
 9695TIP3    H153280   0.996   1.566  12.355  1.2722 -0.1291  0.1994
 9695TIP3    H253281   0.871   1.484  12.377  0.6280  1.1032  1.2466
 9696TIP3   OH253282   0.025   4.276  11.058  0.3085  0.1622  0.8954
 9696TIP3    H153283   0.010   4.267  10.964  3.2715  1.2955  0.2085
 9696TIP3    H253284   0.048   4.188  11.087  1.2728  0.1404  0.1213
 9697TIP3   OH253285   3.219   4.245  11.911  0.3009  0.4024 -0.4212
 9697TIP3    H153286   3.127   4.239  11.888  0.8891 -0.1358 -3.0111
 9697TIP3    H253287   3.251   4.155  11.906  1.1388  0.6868 -0.3913
 9698TIP3   OH253288   6.875   0.624  12.221 -0.0403 -0.1306 -0.1992
 9698TIP3    H153289   6.901   0.685  12.152  1.1973  0.5446  0.8036
 9698TIP3    H253290   6.958   0.585  12.250 -0.7691 -2.0343 -0.5571
 9699TIP3   OH253291   6.723   0.357  12.369  0.2010  0.2781  0.5124
 9699TIP3    H153292   6.789   0.361  12.300  1.0566  1.1137  1.3500
 9699TIP3    H253293   6.767   0.314  12.442 -0.6453 -0.4532  0.6102
 9700TIP3   OH253294   7.077   3.672  11.230  0.3577  1.1804 -0.0034
 9700TIP3    H153295   7.056   3.629  11.147  0.7896  1.4142 -0.2324
 9700TIP3    H253296   7.067   3.602  11.295  2.2802  0.3853 -0.5057
 9701TIP3   OH253297   3.815   3.909  13.133  0.0166 -0.4772  0.3885
 9701TIP3    H153298   3.817   3.835  13.194  1.5042  0.4243  1.5188
 9701TIP3    H253299   3.903   3.911  13.095  0.1016  0.8850  0.6162
 9702TIP3   OH253300   6.628   6.899  12.396 -0.3258  0.1879 -0.0213
 9702TIP3    H153301   6.587   6.817  12.369 -0.3071 -0.0868  0.7678
 9702TIP3    H253302   6.634   6.950  12.315 -1.2603 -0.1816 -0.3370
 9703TIP3   OH253303   2.276   2.826  12.435  0.0240  0.3201  0.2808
 9703TIP3    H153304   2.264   2.788  12.522 -1.3408 -0.8965 -0.3888
 9703TIP3    H253305   2.369   2.845  12.429  0.7719 -2.7010  0.7988
 9704TIP3   OH253306   7.657   0.795  11.870  0.5049 -0.0804 -0.5589
 9704TIP3    H153307   7.724   0.728  11.869  1.5634  0.9384 -0.4360
 9704TIP3    H253308   7.643   0.814  11.963  0.0368 -0.2983 -0.5838
 9705TIP3   OH253309   1.150   1.523  10.729 -1.0409  0.3680 -0.3440
 9705TIP3    H153310   1.091   1.596  10.749 -2.5203 -1.1252  1.0194
 9705TIP3    H253311   1.102   1.469  10.667 -0.9161 -0.5950  0.3714
 9706TIP3   OH253312   6.759   2.886  11.728  0.1221  0.4858  0.0143
 9706TIP3    H153313   6.703   2.964  11.731  1.6985  1.7266 -0.8982
 9706TIP3    H253314   6.847   2.921  11.710  0.5346 -1.6312 -2.7413
 9707TIP3   OH253315   2.352   4.281  11.450  0.0753  0.4818  0.9965
 9707TIP3    H153316   2.264   4.316  11.463 -0.1545  0.0541  0.5977
 9707TIP3    H253317   2.349   4.193  11.486  0.3806  0.5120  1.1025
 9708TIP3   OH253318   5.325   0.320  13.179 -0.7620  0.3769  0.3641
 9708TIP3    H153319   5.318   0.313  13.274 -1.7925  1.0864  0.3578
 9708TIP3    H253320   5.413   0.356  13.164 -1.0453  1.4424  1.1242
 9709TIP3   OH253321   6.378   3.956  12.359  0.0631  0.1104 -0.1490
 9709TIP3    H153322   6.388   4.039  12.312  0.6363  1.1307  1.6676
 9709TIP3    H253323   6.327   3.978  12.437  0.0032 -1.2995  0.2401
 9710TIP3   OH253324   1.503   4.723  11.876 -0.3602  0.2155 -0.0469
 9710TIP3    H153325   1.432   4.680  11.827 -0.0812  0.7613 -0.9623
 9710TIP3    H253326   1.459   4.767  11.948 -0.6855 -1.3565  0.7730
 9711TIP3   OH253327   7.318   3.673  13.257  0.3873 -0.2512  0.3992
 9711TIP3    H153328   7.334   3.616  13.332 -1.7875 -1.6766 -0.1343
 9711TIP3    H253329   7.244   3.728  13.284 -1.8183 -2.1771 -1.2804
 9712TIP3   OH253330   5.652   1.778  11.710 -0.4944  0.3734 -0.5718
 9712TIP3    H153331   5.625   1.864  11.743  0.4797  0.7298 -0.6713
 9712TIP3    H253332   5.663   1.791  11.616  0.2326  0.3021 -0.5023
 9713TIP3   OH253333   0.777   7.021  11.839 -0.0525  0.2844  0.8458
 9713TIP3    H153334   0.805   6.941  11.882 -0.3031 -0.4925 -0.3838
 9713TIP3    H253335   0.783   7.088  11.907  1.8679 -0.4206  1.4426
 9714TIP3   OH253336   4.674   5.681  11.028 -0.0998 -0.2942  0.3082
 9714TIP3    H153337   4.618   5.758  11.033 -0.4927 -0.6551  1.7034
 9714TIP3    H253338   4.763   5.717  11.020 -0.1378  0.3599  2.2858
 9715TIP3   OH253339   4.814   0.618  12.886 -0.5947 -0.3669 -0.3108
 9715TIP3    H153340   4.888   0.561  12.863  0.7943  0.3719  2.0116
 9715TIP3    H253341   4.854   0.694  12.927 -2.6169  0.5681  0.0475
 9716TIP3   OH253342   6.153   3.653  11.271  0.2642  0.3715  0.5395
 9716TIP3    H153343   6.158   3.570  11.319 -0.9914 -0.8986 -1.3663
 9716TIP3    H253344   6.088   3.705  11.320 -0.5813 -0.6691  0.5652
 9717TIP3   OH253345   0.828   2.884  11.952 -0.0101 -0.0625  0.2610
 9717TIP3    H153346   0.816   2.968  11.997  1.4357  0.8958 -1.0079
 9717TIP3    H253347   0.784   2.896  11.868 -1.6122 -1.3871  0.8497
 9718TIP3   OH253348   3.383   2.244  11.321  0.0752  0.2231  0.3852
 9718TIP3    H153349   3.414   2.238  11.412 -0.6499  0.2551  0.6419
 9718TIP3    H253350   3.423   2.324  11.288 -0.0093  0.4562  0.8292
 9719TIP3   OH253351   3.679   3.314  13.257  0.2066  0.0208  0.4048
 9719TIP3    H153352   3.636   3.399  13.246  0.7553  0.2051 -0.3921
 9719TIP3    H253353   3.751   3.332  13.318  0.0242  0.0109  0.6288
 9720TIP3   OH253354   0.355   4.828  10.995 -0.1346  0.4658  0.3263
 9720TIP3    H153355   0.400   4.828  11.079  0.2282 -1.6861  0.1956
 9720TIP3    H253356   0.269   4.866  11.014 -0.3591 -0.7243  1.8881
 9721TIP3   OH253357   6.187   6.422  11.367 -0.6194  0.2939 -0.2846
 9721TIP3    H153358   6.252   6.437  11.436  0.3691 -1.7847 -0.6747
 9721TIP3    H253359   6.186   6.504  11.317  0.8173  0.8003  0.4531
 9722TIP3   OH253360   6.918   3.076  11.372 -0.2448  0.2394 -0.1019
 9722TIP3    H153361   6.956   3.074  11.459 -0.6828 -1.5566  0.0957
 9722TIP3    H253362   6.988   3.107  11.315  0.5143  0.0034  0.6885
 9723TIP3   OH253363   7.280   2.791  12.828  0.6728 -0.0686 -0.8440
 9723TIP3    H153364   7.206   2.743  12.865 -0.3793  1.3291 -1.0175
 9723TIP3    H253365   7.356   2.735  12.843 -0.2409 -1.0331  0.3987
 9724TIP3   OH253366   3.869   6.791  10.506 -0.0534 -0.0306  0.3263
 9724TIP3    H153367   3.947   6.840  10.531  1.9718 -2.4839 -0.7257
 9724TIP3    H253368   3.823   6.776  10.588  1.5219 -0.0469  1.2485
 9725TIP3   OH253369   4.438   6.162  10.559  0.2275  0.1196 -0.1112
 9725TIP3    H153370   4.474   6.096  10.618  0.2560  0.7452  0.5894
 9725TIP3    H253371   4.507   6.176  10.494  0.2127 -0.5466 -0.2728
 9726TIP3   OH253372   4.047   1.043  12.151 -0.3912  0.1462 -0.0897
 9726TIP3    H153373   4.071   1.124  12.197 -0.6829  1.3873 -1.9966
 9726TIP3    H253374   4.118   0.982  12.171  0.4421  1.2545  0.4463
 9727TIP3   OH253375   2.595   2.166  12.967 -0.0648  0.2707 -0.2258
 9727TIP3    H153376   2.590   2.113  13.046  1.4378 -0.5994 -0.6736
 9727TIP3    H253377   2.505   2.195  12.952 -0.7119 -1.1240  0.7318
 9728TIP3   OH253378   3.775   7.516  11.272  0.1369 -0.2288 -0.1331
 9728TIP3    H153379   3.837   7.493  11.203  0.2626 -1.0194  0.2446
 9728TIP3    H253380   3.693   7.534  11.225  1.0050  2.5273 -0.8411
 9729TIP3   OH253381   4.595   6.446  11.600  0.3570 -0.3032  1.2267
 9729TIP3    H153382   4.639   6.409  11.677  0.7482 -1.7983  0.3101
 9729TIP3    H253383   4.531   6.380  11.575  0.9166 -0.2870 -0.3324
 9730TIP3   OH253384   3.098   3.477  11.535  0.0601  0.1676  0.1599
 9730TIP3    H153385   3.043   3.527  11.596 -0.9757 -0.5660 -0.1590
 9730TIP3    H253386   3.060   3.494  11.449 -0.5736 -1.4784  0.0794
 9731TIP3   OH253387   5.189   1.007  10.977 -0.4505  0.1334 -0.4725
 9731TIP3    H153388   5.155   0.957  11.052 -1.1941  2.5423  0.9307
 9731TIP3    H253389   5.171   0.952  10.901 -1.2286 -1.6870  0.9505
 9732TIP3   OH253390   0.035   0.022  12.934  0.1920 -0.4056  0.1045
 9732TIP3    H153391   0.068   0.080  13.004  1.4602  0.4288 -1.1227
 9732TIP3    H253392   0.076   0.056  12.855  1.0485 -3.0418 -0.6714
 9733TIP3   OH253393   0.030   5.069  10.366 -0.0535 -0.5927  0.4808
 9733TIP3    H153394   0.093   5.141  10.362 -0.7355 -0.0327 -0.8371
 9733TIP3    H253395   0.078   4.993  10.333 -0.0778 -0.1365 -0.6545
 9734TIP3   OH253396   3.758   5.013  11.344 -0.2836 -0.7179  0.3947
 9734TIP3    H153397   3.729   4.999  11.254  0.1693  0.3814  0.0614
 9734TIP3    H253398   3.818   5.087  11.339 -0.5665 -0.3673  1.6563
 9735TIP3   OH253399   2.652   1.543  11.046 -0.2269 -0.2559  0.5223
 9735TIP3    H153400   2.700   1.518  11.125 -0.4226 -3.3017 -0.2162
 9735TIP3    H253401   2.717   1.588  10.992  1.7090 -3.3915 -0.0241
 9736TIP3   OH253402   1.055   0.229  11.033 -0.2160 -0.1466  0.0593
 9736TIP3    H153403   1.111   0.305  11.016 -1.9484  1.3708  0.8017
 9736TIP3    H253404   1.112   0.167  11.079  1.0174  1.0760  0.2573
 9737TIP3   OH253405   3.045   6.364  11.716  0.3526 -0.1500  0.0542
 9737TIP3    H153406   3.063   6.293  11.655 -0.3654  0.6188 -1.1264
 9737TIP3    H253407   2.950   6.375  11.711  0.4127  0.6324  0.4882
 9738TIP3   OH253408   7.013   2.866  12.319 -0.6744  0.6121  0.6641
 9738TIP3    H153409   6.952   2.798  12.349  0.0723  0.1929  1.2630
 9738TIP3    H253410   7.059   2.893  12.398 -1.1891  2.0748  0.4940
 9739TIP3   OH253411   2.212   6.742  12.643 -0.6308 -0.5193 -0.1076
 9739TIP3    H153412   2.207   6.810  12.710  2.9746 -0.3239  0.1211
 9739TIP3    H253413   2.211   6.790  12.560 -0.0248 -0.3301 -0.0082
 9740TIP3   OH253414   7.607   0.399  11.273 -0.3138  0.4374  0.1876
 9740TIP3    H153415   7.658   0.415  11.193 -0.0005 -1.3211 -0.0052
 9740TIP3    H253416   7.670   0.410  11.344 -0.0640 -0.1203  0.0531
 9741TIP3   OH253417   2.953   0.198  12.221  0.7469 -0.2240  0.2976
 9741TIP3    H153418   3.022   0.256  12.190  0.4519  0.3024  0.5976
 9741TIP3    H253419   2.914   0.162  12.142  0.0091  1.0969  0.0261
 9742TIP3   OH253420   5.881   2.835  12.056  0.1904  0.3212 -0.0526
 9742TIP3    H153421   5.832   2.833  12.138 -0.0361 -0.6349 -0.2004
 9742TIP3    H253422   5.971   2.856  12.082  0.4560 -1.4493  0.6376
 9743TIP3   OH253423   3.303   2.197  12.350 -0.0148 -0.1936  0.4512
 9743TIP3    H153424   3.320   2.110  12.314  1.4329 -0.1432  0.9613
 9743TIP3    H253425   3.309   2.256  12.275 -0.1299 -0.4358  0.2523
 9744TIP3   OH253426   0.337   5.106  10.658  0.3921 -0.1467  0.1747
 9744TIP3    H153427   0.406   5.080  10.719  1.1202 -0.7613 -0.8748
 9744TIP3    H253428   0.344   5.044  10.586  0.2835  1.2150 -1.0619
 9745TIP3   OH253429   1.358   3.479  10.753 -0.1153  0.7436 -0.8092
 9745TIP3    H153430   1.445   3.454  10.783 -1.2135 -2.1352  0.2961
 9745TIP3    H253431   1.327   3.405  10.702 -1.4983  2.2038 -2.2322
 9746TIP3   OH253432   3.000   3.110  13.268  0.0355  0.4371  0.3372
 9746TIP3    H153433   3.040   3.197  13.281  0.9767  0.6784 -3.2184
 9746TIP3    H253434   3.071   3.057  13.231 -1.2235 -1.1018  0.0407
 9747TIP3   OH253435   1.663   4.641  10.683 -0.4469  0.7230  0.0015
 9747TIP3    H153436   1.678   4.729  10.718  0.4107  0.9757 -0.9584
 9747TIP3    H253437   1.750   4.601  10.682 -0.5775  0.4407 -1.0641
 9748TIP3   OH253438   1.549   4.941  13.268 -0.0389 -0.0486  0.3312
 9748TIP3    H153439   1.461   4.963  13.238 -0.4792  0.1546  1.6686
 9748TIP3    H253440   1.594   5.026  13.274 -0.8272  0.2997  2.7372
 9749TIP3   OH253441   5.953   2.286  11.236  0.2469 -0.8393  1.0114
 9749TIP3    H153442   5.903   2.333  11.303  0.3046 -2.0518  1.9288
 9749TIP3    H253443   6.026   2.247  11.284  1.6671  0.2286 -0.1628
 9750TIP3   OH253444   5.012   0.438  12.849  0.0756 -0.0836  0.3027
 9750TIP3    H153445   5.083   0.375  12.836 -0.8453 -0.8049 -1.4894
 9750TIP3    H253446   5.022   0.466  12.940  1.6930 -1.3374  0.5616
 9751TIP3   OH253447   3.096   5.656  11.594 -0.0233 -0.6876  0.0515
 9751TIP3    H153448   3.106   5.562  11.604  0.8685 -0.7638 -1.3172
 9751TIP3    H253449   3.141   5.693  11.669 -1.1377 -1.3367  1.0845
 9752TIP3   OH253450   0.437   6.229  12.028 -0.4097 -0.3629 -0.2414
 9752TIP3    H153451   0.530   6.214  12.010  0.0355  1.9407 -0.1661
 9752TIP3    H253452   0.411   6.158  12.086  1.2551 -1.1260 -0.3927
 9753TIP3   OH253453   6.226   5.760  12.699 -0.3968  0.5654  0.3191
 9753TIP3    H153454   6.286   5.687  12.683 -0.5840  0.0950  1.6805
 9753TIP3    H253455   6.237   5.781  12.791 -1.1093  1.5854  0.1867
 9754TIP3   OH253456   1.179   0.456  11.110  1.0800 -0.3856 -0.1444
 9754TIP3    H153457   1.241   0.434  11.179  0.3855  0.7413  0.8772
 9754TIP3    H253458   1.128   0.528  11.146 -0.6774 -1.1275 -1.0420
 9755TIP3   OH253459   1.631   3.234  11.905 -0.2509  0.0377 -0.1411
 9755TIP3    H153460   1.709   3.186  11.877  0.6468  2.2412 -1.6864
 9755TIP3    H253461   1.570   3.225  11.832 -0.0289  1.2511 -0.5011
 9756TIP3   OH253462   3.811   7.562  10.781 -0.2536  0.0898 -0.0744
 9756TIP3    H153463   3.724   7.551  10.820  0.3909  1.1313  1.7465
 9756TIP3    H253464   3.814   7.653  10.752  0.2596  0.0855 -0.0518
 9757TIP3   OH253465   4.159   2.432  12.306  0.0565  0.6043  0.5876
 9757TIP3    H153466   4.168   2.414  12.212 -0.9020  0.5097  0.5004
 9757TIP3    H253467   4.064   2.433  12.321  0.0852  3.2352  1.0651
 9758TIP3   OH253468   5.643   7.069  10.185 -0.7032  0.1721  0.4446
 9758TIP3    H153469   5.702   7.032  10.251 -0.1287  0.6810  0.2102
 9758TIP3    H253470   5.670   7.029  10.103 -1.0315  0.0041  0.4139
 9759TIP3   OH253471   1.874   2.433  11.272  0.1985 -0.0354  0.4701
 9759TIP3    H153472   1.892   2.347  11.234 -2.5952 -0.2968 -0.5285
 9759TIP3    H253473   1.923   2.495  11.217  0.5187 -0.8284 -0.1471
 9760TIP3   OH253474   0.969   6.719  11.614 -0.3082  0.2162  0.2266
 9760TIP3    H153475   1.003   6.773  11.542 -0.0091  0.7465  0.7584
 9760TIP3    H253476   0.880   6.751  11.628  0.3008  1.4880  1.4030
 9761TIP3   OH253477   3.127   3.941  11.024  0.6556 -0.6103  0.1368
 9761TIP3    H153478   3.138   4.032  11.053  0.3319 -0.1628 -1.0450
 9761TIP3    H253479   3.035   3.921  11.044  0.6056 -0.5194  0.0029
 9762TIP3   OH253480   1.142   2.239  13.432  0.2118 -0.0710  0.2071
 9762TIP3    H153481   1.126   2.315  13.376 -0.5892 -0.0408  0.4704
 9762TIP3    H253482   1.067   2.236  13.491  1.1586  0.0433  1.4533
 9763TIP3   OH253483   5.605   4.710  11.969 -0.1975  0.1607  0.1715
 9763TIP3    H153484   5.662   4.638  11.996  0.9644  0.8080 -0.5308
 9763TIP3    H253485   5.572   4.746  12.052  0.0976 -0.4540  0.5639
 9764TIP3   OH253486   2.054   7.386  12.612 -0.9777  0.0711 -0.1290
 9764TIP3    H153487   2.018   7.298  12.627  0.1063 -0.4492 -0.4410
 9764TIP3    H253488   2.045   7.401  12.518 -1.2726  0.3469 -0.0575
 9765TIP3   OH253489   1.520   1.537  11.984  0.7458 -0.7887 -0.4725
 9765TIP3    H153490   1.462   1.461  11.993 -0.2185 -0.1271 -0.9581
 9765TIP3    H253491   1.598   1.503  11.940  0.8399 -1.7382  0.3841
 9766TIP3   OH253492   2.940   3.553  11.332 -0.2283  0.5192 -0.1460
 9766TIP3    H153493   2.859   3.596  11.307 -0.3678  0.5243  0.3002
 9766TIP3    H253494   2.957   3.489  11.263 -1.2275 -0.2933  0.3383
 9767TIP3   OH253495   4.911   4.890  12.178 -0.3175 -0.2724  0.1642
 9767TIP3    H153496   4.922   4.982  12.201  1.2136 -0.2047 -0.7179
 9767TIP3    H253497   4.834   4.889  12.121  0.2247  0.6199 -0.6131
 9768TIP3   OH253498   1.602   7.514  13.237  0.3282 -0.1674  0.2791
 9768TIP3    H153499   1.615   7.468  13.320  3.1369  1.9161  1.1305
 9768TIP3    H253500   1.668   7.583  13.237  0.6222 -0.2045 -3.8062
 9769TIP3   OH253501   3.135   7.620  11.679  0.0467  0.3842  0.5018
 9769TIP3    H153502   3.220   7.659  11.699 -0.2057  1.3505 -0.2009
 9769TIP3    H253503   3.113   7.568  11.756  1.5445 -0.3870  0.4420
 9770TIP3   OH253504   2.473   3.273  11.866  0.5205  0.6294  0.0035
 9770TIP3    H153505   2.481   3.368  11.864  1.0746  0.5734 -1.5829
 9770TIP3    H253506   2.481   3.246  11.775 -0.7501 -0.8625  0.2909
 9771TIP3   OH253507   5.477   1.906  11.228  0.3048  0.4478  0.3711
 9771TIP3    H153508   5.499   1.999  11.233  0.1035  0.5496 -0.5087
 9771TIP3    H253509   5.541   1.869  11.167  0.4566 -0.0203  0.8004
 9772TIP3   OH253510   1.216   7.281  12.694  0.5805 -0.1230 -0.3958
 9772TIP3    H153511   1.271   7.203  12.707  0.2006 -0.1729  1.1663
 9772TIP3    H253512   1.279   7.350  12.670  1.5498  0.0396  2.2292
 9773TIP3   OH253513   3.750   2.939  10.510 -0.5058 -0.4125 -0.4824
 9773TIP3    H153514   3.819   2.999  10.481 -0.4331 -0.1718  0.1871
 9773TIP3    H253515   3.775   2.914  10.598 -1.4684 -0.0352 -0.0920
 9774TIP3   OH253516   3.506   4.455  11.315 -0.6738  0.1919  0.3303
 9774TIP3    H153517   3.445   4.473  11.386  0.1167 -3.1479  2.0593
 9774TIP3    H253518   3.593   4.461  11.355 -0.0332  1.0874 -1.1109
 9775TIP3   OH253519   0.670   5.124  10.569  0.0950 -0.1946 -0.1581
 9775TIP3    H153520   0.696   5.121  10.477 -0.5494  2.0632 -0.4817
 9775TIP3    H253521   0.666   5.032  10.596 -0.7224 -0.9859 -2.6846
 9776TIP3   OH253522   2.857   5.621  12.422 -0.1078  0.1299 -0.1943
 9776TIP3    H153523   2.841   5.531  12.450  0.2797  0.3531  0.8138
 9776TIP3    H253524   2.786   5.671  12.463  2.3332  0.9998  3.5805
 9777TIP3   OH253525   4.530   1.843  12.613  0.2320 -0.0363 -0.3868
 9777TIP3    H153526   4.446   1.876  12.583  0.2220 -0.1764 -0.5163
 9777TIP3    H253527   4.559   1.906  12.679  0.1195  0.1184 -0.4850
 9778TIP3   OH253528   6.029   5.280  10.628 -0.1138 -0.2438  0.0410
 9778TIP3    H153529   5.990   5.194  10.643  2.0018 -1.2439  0.2052
 9778TIP3    H253530   5.962   5.329  10.581 -1.0507 -2.2838 -0.8698
 9779TIP3   OH253531   7.210   5.263  12.331 -0.1069 -0.5473 -0.1825
 9779TIP3    H153532   7.264   5.189  12.303  0.1279 -0.1340 -0.8366
 9779TIP3    H253533   7.178   5.238  12.418  4.6917  0.9503  2.4039
 9780TIP3   OH253534   0.361   2.564  12.921 -0.2210  0.1323 -0.0504
 9780TIP3    H153535   0.271   2.538  12.941  0.5538 -0.7980  2.6069
 9780TIP3    H253536   0.370   2.651  12.959 -0.3729  0.8962 -1.6584
 9781TIP3   OH253537   5.956   6.924  12.600  0.1824 -0.3792  0.2917
 9781TIP3    H153538   5.967   6.942  12.694 -0.2124  0.4014  0.1942
 9781TIP3    H253539   5.862   6.917  12.588  0.2111 -0.1229 -0.1044
 9782TIP3   OH253540   1.681   1.624  12.197  0.0629  0.0055 -0.1172
 9782TIP3    H153541   1.757   1.566  12.208 -1.6669 -1.8723  4.0270
 9782TIP3    H253542   1.621   1.574  12.143 -0.0482 -0.6129  0.5603
 9783TIP3   OH253543   1.220   2.737  11.811  0.4107 -0.2417 -0.4207
 9783TIP3    H153544   1.256   2.791  11.882 -0.1042  1.1632 -1.1904
 9783TIP3    H253545   1.196   2.800  11.743  1.1870 -1.5775 -1.9945
 9784TIP3   OH253546   5.737   4.905  11.785 -0.1216  0.1135 -0.1738
 9784TIP3    H153547   5.671   4.845  11.821  0.6165 -0.3820  0.3767
 9784TIP3    H253548   5.802   4.914  11.855  0.0445  1.1546 -0.4440
 9785TIP3   OH253549   0.931   1.230  12.587 -0.3164 -0.0207  0.4625
 9785TIP3    H153550   0.964   1.243  12.676 -0.4812 -0.9114  0.6716
 9785TIP3    H253551   0.943   1.136  12.571 -0.7323  0.0432 -0.2754
 9786TIP3   OH253552   1.159   3.932  11.563 -0.1018 -0.2177  0.0209
 9786TIP3    H153553   1.128   3.856  11.513  0.1200  0.0472 -0.5332
 9786TIP3    H253554   1.083   3.962  11.611 -0.6155  0.1713 -1.0017
 9787TIP3   OH253555   0.133   0.399  12.285 -0.4365 -0.5019  0.3187
 9787TIP3    H153556   0.223   0.430  12.292 -0.3235 -0.7214 -0.1340
 9787TIP3    H253557   0.139   0.304  12.295 -0.6099 -0.5238  0.2295
 9788TIP3   OH253558   4.764   3.906  12.279 -1.0350 -0.3094 -0.0197
 9788TIP3    H153559   4.845   3.957  12.285  0.4260 -2.5964  1.4368
 9788TIP3    H253560   4.709   3.939  12.350 -0.0512 -0.7980  1.0023
 9789TIP3   OH253561   6.290   5.981  12.179 -0.6369 -0.3466  0.0558
 9789TIP3    H153562   6.326   5.919  12.243 -0.3112  0.9473  1.1894
 9789TIP3    H253563   6.355   5.983  12.109 -0.0405 -0.3794  0.5946
 9790TIP3   OH253564   4.246   2.800  11.279  0.5110 -0.7838  0.1740
 9790TIP3    H153565   4.333   2.765  11.258 -0.1917 -3.1139  0.8823
 9790TIP3    H253566   4.255   2.838  11.366  0.7806 -1.2062  0.3328
 9791TIP3   OH253567   5.457   4.833  11.154 -0.8438  0.1042 -0.0506
 9791TIP3    H153568   5.549   4.827  11.182 -0.2665  1.1629 -1.5568
 9791TIP3    H253569   5.460   4.890  11.077 -2.4144 -1.8119 -1.6596
 9792TIP3   OH253570   5.064   5.336  11.264  0.4375 -0.0696  0.3574
 9792TIP3    H153571   5.139   5.380  11.304  0.4438 -1.1086  1.5762
 9792TIP3    H253572   5.014   5.406  11.222  0.3233  1.1590  2.3979
 9793TIP3   OH253573   7.454   2.218  12.398 -0.5299 -0.1674 -0.4269
 9793TIP3    H153574   7.452   2.144  12.337  1.1019 -1.0455  0.5081
 9793TIP3    H253575   7.503   2.185  12.473 -1.5591  1.2328  0.9041
 9794TIP3   OH253576   0.093   7.311  11.767  0.2527  0.5797  0.1020
 9794TIP3    H153577   0.136   7.326  11.682 -1.1696  1.0240 -0.5812
 9794TIP3    H253578  -0.001   7.316  11.747 -0.1655 -1.4102  1.3452
 9795TIP3   OH253579   6.558   4.771  10.517  0.2932 -0.4802  0.2598
 9795TIP3    H153580   6.609   4.849  10.540 -0.3538  0.2265 -0.6100
 9795TIP3    H253581   6.510   4.749  10.596 -0.7331  0.9818  0.0804
 9796TIP3   OH253582   3.384   3.297  12.384 -0.1134 -0.3076 -0.0259
 9796TIP3    H153583   3.387   3.391  12.402 -0.7703 -0.2265 -0.3309
 9796TIP3    H253584   3.421   3.289  12.296  1.5256 -0.5258  0.6466
 9797TIP3   OH253585   5.543   5.735  12.819 -0.3734 -0.0007  0.0364
 9797TIP3    H153586   5.553   5.651  12.863  3.2937 -0.3170 -1.0487
 9797TIP3    H253587   5.620   5.785  12.845 -1.1243  2.0537 -1.3922
 9798TIP3   OH253588   2.679   0.381  10.862  0.0338 -0.2341  0.8563
 9798TIP3    H153589   2.737   0.426  10.800  1.2105 -1.8693  0.6968
 9798TIP3    H253590   2.591   0.404  10.834  0.5492 -0.3855 -1.0273
 9799TIP3   OH253591   6.579   0.858  10.757  0.1358 -0.1047  0.5778
 9799TIP3    H153592   6.559   0.849  10.851 -0.6267  1.7344  0.6562
 9799TIP3    H253593   6.568   0.770  10.721  0.6021 -0.8807  2.2404
 9800TIP3   OH253594   7.304   0.090  10.597 -0.3458 -0.0407 -0.3972
 9800TIP3    H153595   7.277  -0.000  10.579 -0.9088 -0.1906  1.0871
 9800TIP3    H253596   7.254   0.115  10.674 -0.4384  1.6736 -0.9785
 9801TIP3   OH253597   1.207   5.416  10.700  0.7107  0.0062 -0.2513
 9801TIP3    H153598   1.202   5.390  10.608  0.0190 -0.4536 -0.0950
 9801TIP3    H253599   1.191   5.335  10.749  0.3223  0.3828  0.2609
 9802TIP3   OH253600   6.630   0.447  10.936 -0.2727 -0.3845 -0.1092
 9802TIP3    H153601   6.694   0.377  10.947  0.3593  0.1485 -0.3673
 9802TIP3    H253602   6.594   0.460  11.024  0.0491 -0.6127  0.0565
 9803TIP3   OH253603   1.794   7.126  10.828 -0.2849 -0.6150 -0.1276
 9803TIP3    H153604   1.840   7.210  10.829 -1.7241  0.2109 -0.6386
 9803TIP3    H253605   1.737   7.129  10.904 -1.2458 -0.5851 -0.8284
 9804TIP3   OH253606   3.880   5.921  11.145 -0.0102 -0.1935  0.2708
 9804TIP3    H153607   3.942   5.947  11.076  0.0204 -0.1509  0.3141
 9804TIP3    H253608   3.922   5.949  11.226  0.3433 -0.9962  0.3752
 9805TIP3   OH253609   5.247   2.747  10.398 -0.6072 -0.2290  0.1452
 9805TIP3    H153610   5.153   2.733  10.393 -0.5834  0.0658 -1.7220
 9805TIP3    H253611   5.256   2.836  10.433 -0.9794 -0.5931  1.2049
 9806TIP3   OH253612   1.633   1.810  11.455  0.2333  0.4539 -0.1973
 9806TIP3    H153613   1.551   1.859  11.446  0.2437  0.6904  0.9217
 9806TIP3    H253614   1.664   1.830  11.543  0.1419 -1.7117  0.3833
 9807TIP3   OH253615   7.307   0.421  12.199 -0.0079  0.0567  0.6696
 9807TIP3    H153616   7.398   0.427  12.230 -0.0837  0.2186  0.8551
 9807TIP3    H253617   7.303   0.335  12.157  0.7801  0.8075 -1.0962
 9808TIP3   OH253618   2.389   5.824  11.897 -0.1284  0.1357  0.4347
 9808TIP3    H153619   2.388   5.786  11.809 -0.8881 -0.0794  0.5358
 9808TIP3    H253620   2.297   5.826  11.924  0.2185 -1.1663  1.8233
 9809TIP3   OH253621   0.236   6.635  11.988  0.1524 -0.0081 -0.8400
 9809TIP3    H153622   0.223   6.720  12.029  1.1327 -0.0231 -0.4673
 9809TIP3    H253623   0.224   6.650  11.895  0.6668  0.6233 -0.8108
 9810TIP3   OH253624   3.450   6.697  10.525  0.0591  0.4790 -0.0915
 9810TIP3    H153625   3.524   6.677  10.467  1.2046  1.5007  0.9478
 9810TIP3    H253626   3.389   6.624  10.513  1.7000 -0.9369 -0.2212
 9811TIP3   OH253627   6.394   3.837  13.279  0.7716 -0.0116 -0.0422
 9811TIP3    H153628   6.408   3.790  13.197  3.0562  1.6332 -0.6863
 9811TIP3    H253629   6.402   3.929  13.256 -0.8953  0.6152  1.6630
 9812TIP3   OH253630   4.819   1.261  10.602 -0.1959  0.5307  0.2869
 9812TIP3    H153631   4.855   1.211  10.676  1.8749  0.3432 -0.7732
 9812TIP3    H253632   4.736   1.295  10.635 -0.4721 -1.4781  1.9119
 9813TIP3   OH253633   3.596   1.226  11.628 -0.3211  0.1186 -0.2105
 9813TIP3    H153634   3.522   1.261  11.678  1.0377  1.1514  1.1795
 9813TIP3    H253635   3.642   1.303  11.595 -0.1201 -0.5203 -1.4753
 9814TIP3   OH253636   6.554   7.259  11.507  0.0818  0.0739 -0.2056
 9814TIP3    H153637   6.632   7.272  11.560 -0.0571  0.3780 -0.0737
 9814TIP3    H253638   6.579   7.289  11.420 -0.3860  1.7726  0.2024
 9815TIP3   OH253639   4.423   1.294  11.653 -0.4607  0.1660 -0.0404
 9815TIP3    H153640   4.411   1.235  11.727 -2.0450  0.8405  0.2855
 9815TIP3    H253641   4.335   1.326  11.633  0.0547  0.6600 -1.6737
 9816TIP3   OH253642   5.465   5.445  12.194 -0.7052 -0.1316  0.1459
 9816TIP3    H153643   5.454   5.438  12.100  1.9204 -0.4112 -0.2296
 9816TIP3    H253644   5.457   5.538  12.213 -0.8276 -0.0219 -0.4390
 9817TIP3   OH253645   3.582   1.562  11.209  0.0156 -1.1015 -0.1524
 9817TIP3    H153646   3.659   1.614  11.232 -0.6435 -0.6966  1.2272
 9817TIP3    H253647   3.616   1.473  11.200  0.9260 -0.6690 -1.2508
 9818TIP3   OH253648   4.438   1.770  10.910  0.0769 -0.6119 -0.5056
 9818TIP3    H153649   4.386   1.803  10.838 -1.3264 -0.6143  0.4733
 9818TIP3    H253650   4.390   1.795  10.989  1.3974 -0.8779  0.4372
 9819TIP3   OH253651   5.177   2.844  12.261  0.1792 -0.0505 -0.4770
 9819TIP3    H153652   5.200   2.812  12.174  0.6793 -1.3271  0.1060
 9819TIP3    H253653   5.216   2.781  12.321  0.5532  1.2634  0.7099
 9820TIP3   OH253654   4.682   3.171  10.415 -0.1256 -0.5849  0.0082
 9820TIP3    H153655   4.653   3.082  10.397 -1.1519 -0.0213 -1.3280
 9820TIP3    H253656   4.759   3.183  10.360 -1.0306 -0.1031 -1.2055
 9821TIP3   OH253657   3.853   4.256  11.313  0.8187  0.0266 -0.2004
 9821TIP3    H153658   3.841   4.161  11.325 -0.6530  0.2676  0.5847
 9821TIP3    H253659   3.795   4.295  11.378  2.0431  1.4869  0.0688
 9822TIP3   OH253660   2.715   6.170  12.479  0.2769 -0.1050 -0.1208
 9822TIP3    H153661   2.647   6.114  12.517  0.4529 -0.0074  0.3400
 9822TIP3    H253662   2.678   6.199  12.396 -0.5850  0.6047  0.4985
 9823TIP3   OH253663   4.938   3.557  12.834 -0.0143 -0.0226  0.7077
 9823TIP3    H153664   4.942   3.462  12.829 -1.6770 -0.1063 -3.4879
 9823TIP3    H253665   5.027   3.584  12.855  0.8032 -2.4801  0.7353
 9824TIP3   OH253666   6.523   4.011  12.951  0.1177  0.3379  0.3416
 9824TIP3    H153667   6.500   4.031  13.041  0.0831 -3.6966  1.4312
 9824TIP3    H253668   6.618   4.000  12.952  0.3499  1.9144 -0.5825
 9825TIP3   OH253669   5.814   2.092  10.531 -0.3169  0.2434 -0.8406
 9825TIP3    H153670   5.810   2.143  10.612  2.5870 -0.7733  0.0669
 9825TIP3    H253671   5.742   2.030  10.538 -0.1318  0.1669  1.0216
 9826TIP3   OH253672   1.804   1.837  13.264  0.0398  0.2433  0.0459
 9826TIP3    H153673   1.717   1.816  13.231 -0.3368  0.7294  0.6927
 9826TIP3    H253674   1.790   1.913  13.321  1.2011  1.6404 -1.4410
 9827TIP3   OH253675   3.802   7.237  12.326 -0.4062 -0.2669  0.2578
 9827TIP3    H153676   3.749   7.316  12.310 -0.0768  0.1184  1.0011
 9827TIP3    H253677   3.740   7.165  12.316 -1.0324  0.1644  0.8843
 9828TIP3   OH253678   2.478   7.186  12.092 -0.1252 -0.4329  1.4141
 9828TIP3    H153679   2.486   7.100  12.133 -0.3442 -0.8531  0.5989
 9828TIP3    H253680   2.569   7.213  12.075 -0.0890 -1.3161  0.0499
 9829TIP3   OH253681   0.805   4.492  11.162  0.0562 -0.6067 -0.5393
 9829TIP3    H153682   0.784   4.404  11.193  0.6857 -0.3542  0.6959
 9829TIP3    H253683   0.811   4.484  11.067  2.2130 -2.3936 -0.3447
 9830TIP3   OH253684   3.701   1.756  12.831  0.1751 -0.3209  0.4318
 9830TIP3    H153685   3.647   1.679  12.817 -0.5674  0.2976 -0.2286
 9830TIP3    H253686   3.645   1.816  12.880  0.9360 -0.4024  1.4348
 9831TIP3   OH253687   2.712   7.317  12.135  0.3499  0.8850  0.5141
 9831TIP3    H153688   2.772   7.345  12.066 -0.2967  1.3934  0.1335
 9831TIP3    H253689   2.649   7.390  12.142 -1.3635 -0.4086 -0.4599
 9832TIP3   OH253690   5.615   1.587  10.573  0.1561 -0.1097 -0.2896
 9832TIP3    H153691   5.541   1.594  10.512  0.1848 -1.3648 -0.4944
 9832TIP3    H253692   5.683   1.642  10.533  0.3851 -1.3785 -1.7376
 9833TIP3   OH253693   1.250   4.862  12.834  0.9565  0.4385 -0.1189
 9833TIP3    H153694   1.229   4.781  12.881 -1.1330  1.3206  0.5844
 9833TIP3    H253695   1.206   4.931  12.884  1.7275  1.8776 -1.3467
 9834TIP3   OH253696   3.175   0.285  11.195 -0.3661  0.8740  0.1273
 9834TIP3    H153697   3.166   0.241  11.279  0.2062 -1.4731 -0.9503
 9834TIP3    H253698   3.112   0.241  11.138 -1.4398  3.0758 -0.4709
 9835TIP3   OH253699   6.964   6.044  10.618 -0.2964 -0.5903  0.3125
 9835TIP3    H153700   6.944   5.958  10.654  0.0414 -1.0612 -0.5763
 9835TIP3    H253701   7.020   6.086  10.683  0.0290 -1.2835  0.4885
 9836TIP3   OH253702   0.459   1.818  10.872 -0.0919  0.1786 -0.4908
 9836TIP3    H153703   0.513   1.742  10.854 -0.4833 -0.4723  0.9390
 9836TIP3    H253704   0.436   1.810  10.965 -1.0365  1.4563 -0.5833
 9837TIP3   OH253705   4.443   7.346  12.322  0.4369 -0.3140 -0.3855
 9837TIP3    H153706   4.527   7.392  12.318  0.1881  0.0671 -2.3046
 9837TIP3    H253707   4.464   7.261  12.361  1.3769  0.4370  0.7877
 9838TIP3   OH253708   4.787   7.225  12.653 -0.0595 -0.3577 -0.3450
 9838TIP3    H153709   4.864   7.217  12.710  0.2733 -1.8017 -0.9493
 9838TIP3    H253710   4.813   7.289  12.587 -0.5393  1.5337  1.1947
 9839TIP3   OH253711   4.871   3.283  11.355  0.0951  0.5676  0.4016
 9839TIP3    H153712   4.845   3.233  11.278  0.0034 -0.8916  1.3374
 9839TIP3    H253713   4.789   3.320  11.389  0.0115  0.4766  0.2973
 9840TIP3   OH253714   5.757   1.448  11.160  0.7137 -0.4557  0.0759
 9840TIP3    H153715   5.666   1.476  11.150  1.0350  0.6584  0.1839
 9840TIP3    H253716   5.750   1.358  11.193 -0.3372 -1.2121 -2.0535
 9841TIP3   OH253717   4.799   1.619  10.863 -0.2871 -0.3662  0.4997
 9841TIP3    H153718   4.705   1.636  10.860 -0.0927  0.6321 -0.2264
 9841TIP3    H253719   4.837   1.699  10.899  0.2382 -1.0415  1.5029
 9842TIP3   OH253720   2.906   6.640  12.105 -0.4857 -0.3215  0.1240
 9842TIP3    H153721   2.968   6.584  12.151  0.3071  1.1393  0.9336
 9842TIP3    H253722   2.827   6.637  12.159  0.6691  1.9550  2.1647
 9843TIP3   OH253723   3.025   0.522  12.837  0.2854  0.0151 -0.0782
 9843TIP3    H153724   2.990   0.498  12.751  0.8490 -0.1504 -0.2606
 9843TIP3    H253725   3.116   0.545  12.821  0.5748 -0.6331  0.5674
 9844TIP3   OH253726   6.362   6.668  11.253 -0.4605  0.1824 -0.1748
 9844TIP3    H153727   6.342   6.714  11.172 -1.3492 -0.3207 -0.2515
 9844TIP3    H253728   6.458   6.670  11.259 -0.3666 -0.1048 -1.4291
 9845TIP3   OH253729   3.259   5.193  10.807  0.3004 -1.2352 -0.0692
 9845TIP3    H153730   3.204   5.135  10.754 -2.1051  1.1169 -0.3886
 9845TIP3    H253731   3.317   5.236  10.744 -1.7302  0.6597 -0.8094
 9846TIP3   OH253732   3.472   4.673  11.043 -0.3984 -0.6599  0.0993
 9846TIP3    H153733   3.451   4.721  10.964  2.3884 -0.1311 -0.4256
 9846TIP3    H253734   3.540   4.611  11.016  0.8743 -0.2242  2.0978
 9847TIP3   OH253735   0.223   3.655  11.638 -0.3259  0.2042 -0.0866
 9847TIP3    H153736   0.175   3.710  11.700 -0.1060  0.5866 -0.2494
 9847TIP3    H253737   0.175   3.572  11.637  0.9291 -0.6529  2.2970
 9848TIP3   OH253738   1.800   0.044  13.228 -0.0658 -0.0724 -0.1978
 9848TIP3    H153739   1.881   0.047  13.178 -0.1284  0.0394 -0.2924
 9848TIP3    H253740   1.828   0.037  13.320  0.0477 -0.8741 -0.2866
 9849TIP3   OH253741   3.117   4.512  12.127 -0.8802 -0.1100 -0.0850
 9849TIP3    H153742   3.154   4.574  12.065 -0.6234 -0.0341  0.1404
 9849TIP3    H253743   3.032   4.488  12.090 -0.5950 -0.3122 -0.6228
 9850TIP3   OH253744   3.320   6.032  11.334  0.2461 -0.1563 -0.5262
 9850TIP3    H153745   3.236   6.052  11.293 -0.3834 -0.1168  0.7293
 9850TIP3    H253746   3.370   6.114  11.327 -0.3229  0.2318 -0.1120
 9851TIP3   OH253747   3.036   3.153  11.868  0.5494  0.7036  0.5287
 9851TIP3    H153748   3.016   3.066  11.903  1.0540  0.9253  1.3976
 9851TIP3    H253749   3.075   3.200  11.942  0.1317  1.7248  0.1121
 9852TIP3   OH253750   1.935   5.124  10.894  0.3949  0.5108  0.2115
 9852TIP3    H153751   1.973   5.106  10.807  0.8148  0.8618  0.3209
 9852TIP3    H253752   1.919   5.218  10.894  0.2234  0.4811  0.4505
 9853TIP3   OH253753   4.796   4.520  11.116  0.4854 -0.0159 -0.0591
 9853TIP3    H153754   4.791   4.426  11.131  0.6311 -0.0225 -0.0437
 9853TIP3    H253755   4.802   4.530  11.021 -0.5688  0.0307 -0.1245
 9854TIP3   OH253756   3.813   4.829  11.559  0.1247  0.4017  0.2581
 9854TIP3    H153757   3.811   4.762  11.491  0.9542  1.2199 -0.5930
 9854TIP3    H253758   3.791   4.910  11.514 -0.5983  0.7642  1.2228
 9855TIP3   OH253759   3.453   6.774  12.426  0.1737 -0.1932 -0.2185
 9855TIP3    H153760   3.455   6.844  12.491 -0.2330 -1.6764  1.4720
 9855TIP3    H253761   3.366   6.734  12.436  1.3490 -2.7217  0.9136
 9856TIP3   OH253762   7.478   7.131  12.256  0.3437 -0.7694  0.1039
 9856TIP3    H153763   7.524   7.070  12.314 -1.1924 -2.1690 -0.0641
 9856TIP3    H253764   7.398   7.154  12.304  1.2811  1.9301  0.5757
 9857TIP3   OH253765   6.225   5.393  10.816  0.1275  0.4565 -0.4134
 9857TIP3    H153766   6.198   5.319  10.764 -0.2066  0.3290 -0.0606
 9857TIP3    H253767   6.187   5.469  10.772 -1.8182  0.1941  0.7129
 9858TIP3   OH253768   6.710   3.249  12.046 -0.4353 -0.3124  0.2104
 9858TIP3    H153769   6.641   3.315  12.051  1.4626  1.8301 -0.2656
 9858TIP3    H253770   6.767   3.267  12.121  0.5215 -0.9493 -0.3340
 9859TIP3   OH253771   3.905   3.594  12.012 -0.3534 -0.3536  0.2063
 9859TIP3    H153772   3.886   3.645  12.091 -0.0836  0.3488 -0.1715
 9859TIP3    H253773   3.950   3.516  12.044  0.8952  0.5193  0.6525
 9860TIP3   OH253774   3.367   5.974  10.658 -0.2116  0.0145 -0.2188
 9860TIP3    H153775   3.442   6.030  10.678 -0.3836  0.5776 -1.1153
 9860TIP3    H253776   3.292   6.025  10.688 -0.2771 -0.3321  0.2134
 9861TIP3   OH253777   5.611   5.810  11.202 -1.2557  0.1143 -0.4666
 9861TIP3    H153778   5.614   5.906  11.206  3.4401  0.2134 -0.3335
 9861TIP3    H253779   5.609   5.790  11.109 -0.8607  0.3950 -0.5389
 9862TIP3   OH253780   6.044   7.298  10.811 -0.0764 -0.1034 -0.6148
 9862TIP3    H153781   6.115   7.341  10.858  0.6078 -1.5220 -0.3045
 9862TIP3    H253782   5.965   7.344  10.838  0.7112  1.5224 -0.9951
 9863TIP3   OH253783   1.420   1.137  12.295  0.7442  0.5124  0.4650
 9863TIP3    H153784   1.339   1.183  12.319 -0.8672 -2.0530  0.2807
 9863TIP3    H253785   1.440   1.168  12.207  0.4776  1.7933  0.8309
 9864TIP3   OH253786   4.886   4.287  11.831 -0.2204 -0.2993 -0.1600
 9864TIP3    H153787   4.870   4.220  11.765 -1.2630 -1.0412  0.8008
 9864TIP3    H253788   4.837   4.363  11.800 -1.5257 -0.9519  0.2177
 9865TIP3   OH253789   5.992   4.687  11.381  0.6113  0.3487  0.4052
 9865TIP3    H153790   6.004   4.646  11.466  1.4633  0.4287  0.3242
 9865TIP3    H253791   6.025   4.776  11.392  0.2579  0.5215  0.1261
 9866TIP3   OH253792   3.992   5.152  11.272 -0.0465  0.2030  0.3444
 9866TIP3    H153793   4.058   5.177  11.207  0.0627  0.3397  0.5065
 9866TIP3    H253794   4.035   5.086  11.326 -0.2788 -0.2184  0.0231
 9867TIP3   OH253795   1.823   5.579  12.602  0.3667 -0.2872 -0.1824
 9867TIP3    H153796   1.891   5.634  12.563  0.0040  0.4382  0.1735
 9867TIP3    H253797   1.765   5.556  12.529  0.3366  0.0954 -0.2853
 9868TIP3   OH253798   7.061   6.266  10.355  0.0510 -0.2847  0.0673
 9868TIP3    H153799   7.013   6.294  10.277 -2.2909  1.5008  2.0112
 9868TIP3    H253800   6.999   6.213  10.404  1.3604 -1.0892  0.9254
 9869TIP3   OH253801   5.367   2.586  10.755  0.1290 -0.8804 -0.2177
 9869TIP3    H153802   5.432   2.637  10.804 -1.0825 -0.1299  0.6665
 9869TIP3    H253803   5.404   2.578  10.668 -0.2734  2.9283 -0.9165
 9870TIP3   OH253804   4.794   2.153  12.567 -0.1421 -0.5892 -0.2816
 9870TIP3    H153805   4.886   2.167  12.544 -0.8816  1.5318 -2.3730
 9870TIP3    H253806   4.746   2.174  12.487 -2.5785  0.4925  1.3440
 9871TIP3   OH253807   2.281   1.034  11.193  0.0048  0.3575  0.1318
 9871TIP3    H153808   2.294   1.121  11.230  1.3627  0.7967 -1.2878
 9871TIP3    H253809   2.335   1.033  11.114 -0.6802 -1.4732 -0.3603
 9872TIP3   OH253810   7.423   2.040  11.898 -0.0366 -0.4018  0.0744
 9872TIP3    H153811   7.442   2.128  11.866 -0.1898 -0.2535  0.3953
 9872TIP3    H253812   7.329   2.039  11.912 -0.1418 -0.8495 -0.6270
 9873TIP3   OH253813   3.954   3.306  10.711  0.3017  0.0370 -0.1732
 9873TIP3    H153814   3.921   3.240  10.650 -2.6132  1.4031 -0.2627
 9873TIP3    H253815   3.973   3.258  10.792  1.0720 -1.2996 -1.1176
 9874TIP3   OH253816   0.455   7.554  11.490  0.3686 -0.1382  0.1734
 9874TIP3    H153817   0.375   7.604  11.509  0.7507  0.0173  1.4808
 9874TIP3    H253818   0.510   7.615  11.441  0.8585  0.8162  1.8089
 9875TIP3   OH253819   1.404   7.337  11.750 -0.2650 -0.4715  0.2095
 9875TIP3    H153820   1.418   7.369  11.839  0.2332  0.5310 -0.2105
 9875TIP3    H253821   1.385   7.416  11.699  0.9680 -0.8391 -0.8694
 9876TIP3   OH253822   6.906   7.477  10.864 -0.5936 -0.5332  0.7339
 9876TIP3    H153823   6.963   7.402  10.846 -1.0246 -0.7966  0.4378
 9876TIP3    H253824   6.966   7.549  10.881 -0.1713 -0.8749  0.7173
 9877TIP3   OH253825   4.475   0.237  12.172 -0.7286  0.0434  0.3558
 9877TIP3    H153826   4.493   0.146  12.193 -1.8619 -0.6084 -1.2891
 9877TIP3    H253827   4.397   0.234  12.116 -1.3424  2.0980  0.9996
 9878TIP3   OH253828   7.192   5.648  13.048 -0.3809 -0.2079  0.5181
 9878TIP3    H153829   7.155   5.644  12.959  0.6958 -1.4966  0.0936
 9878TIP3    H253830   7.221   5.739  13.058 -0.1953 -0.1244 -0.5923
 9879TIP3   OH253831   4.303   2.956  11.481  0.7228 -0.0943 -0.0215
 9879TIP3    H153832   4.259   2.955  11.566 -1.3751 -0.4917 -1.0296
 9879TIP3    H253833   4.326   3.047  11.466 -0.8947  0.3486  0.0408
 9880TIP3   OH253834   6.674   6.714  12.632 -0.0408 -0.0426 -0.4839
 9880TIP3    H153835   6.711   6.754  12.712 -1.2480  0.7864 -0.3181
 9880TIP3    H253836   6.720   6.630  12.625 -0.0364 -0.2277  1.1969
 9881TIP3   OH253837   6.447   0.355  12.646 -0.1261  0.2261  0.3703
 9881TIP3    H153838   6.446   0.434  12.700  0.2783 -0.7051  1.8037
 9881TIP3    H253839   6.537   0.323  12.653 -0.2858 -0.3664 -0.1952
 9882TIP3   OH253840   5.938   4.570  10.797 -0.3619  0.3586  0.6860
 9882TIP3    H153841   5.944   4.561  10.892  0.6076 -0.3626  0.5709
 9882TIP3    H253842   5.859   4.521  10.773  0.3465 -0.9620  0.9558
 9883TIP3   OH253843   0.962   2.455  11.082 -0.1481 -0.4271  0.8848
 9883TIP3    H153844   1.057   2.446  11.072 -0.2171 -0.7407  0.4953
 9883TIP3    H253845   0.940   2.532  11.030 -0.2912 -1.1596 -0.1820
 9884TIP3   OH253846   0.740   0.436  12.985 -0.6644 -0.2367  0.1892
 9884TIP3    H153847   0.744   0.406  13.076 -1.8404  0.4944  0.5049
 9884TIP3    H253848   0.712   0.359  12.935  0.2014 -0.6990  0.4002
 9885TIP3   OH253849   4.821   4.228  12.184 -0.4186  0.0078 -0.5982
 9885TIP3    H153850   4.843   4.312  12.144  1.6864 -0.3111 -0.2335
 9885TIP3    H253851   4.787   4.250  12.270  1.9438  0.4720  0.2744
 9886TIP3   OH253852   3.708   0.789  11.999  0.0664  0.0619 -0.3199
 9886TIP3    H153853   3.773   0.794  12.070  1.7835 -0.3314 -1.7926
 9886TIP3    H253854   3.668   0.703  12.009  0.0201  0.1541  0.3756
 9887TIP3   OH253855   5.010   3.807  11.606  0.2949 -0.2252  0.3389
 9887TIP3    H153856   5.006   3.808  11.702 -0.1324 -0.1259  0.3229
 9887TIP3    H253857   4.966   3.727  11.581  0.2251 -0.1482  0.2164
 9888TIP3   OH253858   6.361   2.979  12.631 -0.1236  0.0412 -0.0009
 9888TIP3    H153859   6.328   2.982  12.721 -0.9597 -1.6095 -0.2292
 9888TIP3    H253860   6.443   2.930  12.638 -0.6683 -0.9149 -0.2664
 9889TIP3   OH253861   4.479   5.164  11.550 -0.5249  0.5665 -0.2552
 9889TIP3    H153862   4.557   5.212  11.524  1.1625 -2.2839 -0.9486
 9889TIP3    H253863   4.419   5.174  11.476  0.1766  0.7883 -0.8056
 9890TIP3   OH253864   4.722   7.551  13.119 -0.2781  0.1845 -0.4315
 9890TIP3    H153865   4.645   7.574  13.067 -0.6251 -0.2439 -0.1093
 9890TIP3    H253866   4.788   7.526  13.053 -0.2913  0.8837 -0.7226
 9891TIP3   OH253867   0.370   5.662  11.549  0.0386  0.4634  0.1327
 9891TIP3    H153868   0.434   5.649  11.479 -1.7526 -2.2666 -1.1734
 9891TIP3    H253869   0.396   5.599  11.617 -0.3033  0.5031  0.3037
 9892TIP3   OH253870   3.404   0.199  12.742  0.0169 -0.0027  0.0129
 9892TIP3    H153871   3.322   0.249  12.741 -0.1703 -0.2577 -1.9272
 9892TIP3    H253872   3.469   0.260  12.777 -0.3893  1.3352 -1.4214
 9893TIP3   OH253873   2.076   0.264  10.985  0.0709 -0.2106 -0.1240
 9893TIP3    H153874   2.134   0.218  11.046  0.4906  0.8430  0.3083
 9893TIP3    H253875   2.118   0.349  10.973 -1.1062  0.3655 -0.2364
 9894TIP3   OH253876   5.739   6.202  10.936 -0.1039  0.1003 -0.0278
 9894TIP3    H153877   5.685   6.140  10.986  0.4661 -2.0336 -1.9216
 9894TIP3    H253878   5.696   6.210  10.852  1.4062 -0.0702 -0.8626
 9895TIP3   OH253879   2.689   1.091  11.158 -0.2912  0.3347 -0.3707
 9895TIP3    H153880   2.618   1.137  11.112 -1.0426 -2.5768 -2.4396
 9895TIP3    H253881   2.769   1.134  11.128 -1.0212  2.5243  0.6024
 9896TIP3   OH253882   1.173   3.910  12.994 -0.5590  0.2495 -0.5154
 9896TIP3    H153883   1.180   3.886  12.901 -1.9113  1.3082 -0.9250
 9896TIP3    H253884   1.079   3.915  13.010 -0.3313  0.9688  0.6704
 9897TIP3   OH253885   2.676   1.370  11.292 -0.1587  0.3066  0.5282
 9897TIP3    H153886   2.611   1.319  11.243  0.8773 -1.2929  0.7362
 9897TIP3    H253887   2.633   1.390  11.375 -0.5033 -0.4877  0.5498
 9898TIP3   OH253888   3.249   0.290  12.379  0.4028 -0.4202 -0.1633
 9898TIP3    H153889   3.246   0.360  12.314  1.5125 -0.1877  0.0112
 9898TIP3    H253890   3.312   0.227  12.344  0.8208 -0.4169  0.5601
 9899TIP3   OH253891   1.597   2.589  11.661  0.1494  0.0821 -0.2232
 9899TIP3    H153892   1.595   2.577  11.566  1.0342 -1.4422 -0.0919
 9899TIP3    H253893   1.690   2.602  11.681  0.2690 -1.6857  0.6029
 9900TIP3   OH253894   1.805   3.271  11.452  0.1387 -0.0698  0.3996
 9900TIP3    H153895   1.777   3.184  11.425 -0.0236 -0.0586  0.5305
 9900TIP3    H253896   1.744   3.295  11.522  0.8841 -0.3193  1.1499
 9901TIP3   OH253897   5.661   0.332  10.390  0.4250 -0.1202  0.3552
 9901TIP3    H153898   5.619   0.389  10.455 -0.0749  0.8409 -0.7667
 9901TIP3    H253899   5.699   0.393  10.326  1.3159 -1.0316 -0.0178
 9902TIP3   OH253900   1.520   6.990  11.717 -0.0172  0.4476 -0.2516
 9902TIP3    H153901   1.494   7.037  11.638 -0.3522 -0.8076 -0.9110
 9902TIP3    H253902   1.604   6.951  11.695  1.3422  2.4700  1.0386
 9903TIP3   OH253903   5.333   1.502  10.558  0.0381  0.0843 -0.3782
 9903TIP3    H153904   5.325   1.538  10.646 -0.2903  1.1894 -0.8421
 9903TIP3    H253905   5.243   1.492  10.527  0.1191  2.0487 -1.4759
 9904TIP3   OH253906   7.606   7.558  11.123  0.2902  0.4985 -0.2670
 9904TIP3    H153907   7.661   7.631  11.150 -0.8100  1.2990 -0.1158
 9904TIP3    H253908   7.551   7.539  11.199 -1.5119  1.5201 -1.2427
 9905TIP3   OH253909   3.347   3.855  12.822 -0.2756  0.1401  0.0567
 9905TIP3    H153910   3.412   3.828  12.887  1.4601  1.1131 -1.1856
 9905TIP3    H253911   3.399   3.883  12.746 -2.2031 -0.4319 -1.5584
 9906TIP3   OH253912   6.620   3.644  11.098 -0.1460  0.5104  0.2645
 9906TIP3    H153913   6.634   3.550  11.100  0.3043  0.5688  0.1388
 9906TIP3    H253914   6.622   3.667  11.005 -1.0259  0.5419  0.2411
 9907TIP3   OH253915   2.908   3.423  10.833 -0.8318 -0.0378 -0.3106
 9907TIP3    H153916   2.869   3.389  10.752 -2.1133  0.0312  0.2685
 9907TIP3    H253917   2.976   3.484  10.802 -0.6082 -0.7702 -1.3340
 9908TIP3   OH253918   1.513   1.184  12.812 -0.1558 -0.3691  0.4704
 9908TIP3    H153919   1.478   1.261  12.857 -0.6006 -0.6560  0.6236
 9908TIP3    H253920   1.455   1.172  12.737 -0.8945 -1.3190  1.1631
 9909TIP3   OH253921   7.299   6.905  12.486  0.1007 -0.2853 -0.2081
 9909TIP3    H153922   7.344   6.986  12.510  0.6509 -0.5916 -0.1926
 9909TIP3    H253923   7.367   6.838  12.488 -0.6462 -1.0333  1.2258
 9910TIP3   OH253924   6.502   3.994  10.730 -1.1221 -0.4194  0.0701
 9910TIP3    H153925   6.448   4.029  10.801 -2.0700  0.4726 -1.0500
 9910TIP3    H253926   6.554   3.925  10.771 -0.5640  1.0273  1.9453
 9911TIP3   OH253927   2.270   4.561  11.265  0.5376  0.2867  0.1885
 9911TIP3    H153928   2.338   4.493  11.269  1.7615  1.5230  3.3037
 9911TIP3    H253929   2.309   4.631  11.212  0.4984 -0.1488 -0.4312
 9912TIP3   OH253930   0.324   0.733  13.155  0.5587  0.0948  0.5654
 9912TIP3    H153931   0.384   0.673  13.110 -0.5876 -0.4861 -0.2504
 9912TIP3    H253932   0.321   0.810  13.098 -0.3251 -0.3395  0.0090
 9913TIP3   OH253933   7.604   7.609  12.483 -0.6900 -0.1017 -0.5108
 9913TIP3    H153934   7.639   7.591  12.396 -1.1020  0.4329 -0.7915
 9913TIP3    H253935   7.599   7.705  12.488  0.1080 -0.0938  0.4082
 9914TIP3   OH253936   6.641   4.794  10.191 -0.4941 -0.1531  0.3860
 9914TIP3    H153937   6.546   4.792  10.181 -0.4998 -1.6114  0.4588
 9914TIP3    H253938   6.674   4.756  10.109 -0.0743 -1.3837  1.0936
 9915TIP3   OH253939   0.361   7.393  12.137 -0.4742  0.7762 -0.3307
 9915TIP3    H153940   0.364   7.482  12.171  0.1070 -0.0311  1.9314
 9915TIP3    H253941   0.305   7.346  12.200 -0.0307 -0.6471 -0.9653
 9916TIP3   OH253942   6.356   2.451  11.413 -0.1457 -0.6740  0.2617
 9916TIP3    H153943   6.406   2.529  11.390  0.3517 -0.8670  0.6646
 9916TIP3    H253944   6.319   2.471  11.499  1.9241 -1.7577  1.4715
 9917TIP3   OH253945   4.220   6.192  10.813 -0.2630  0.2185 -0.5013
 9917TIP3    H153946   4.261   6.202  10.727  0.5716  1.1697 -0.0095
 9917TIP3    H253947   4.257   6.262  10.865  0.3277 -1.1893  1.0596
 9918TIP3   OH253948   5.474   7.253  10.305  0.1798  0.3680 -0.4719
 9918TIP3    H153949   5.511   7.341  10.307  0.4163  0.2612 -0.0341
 9918TIP3    H253950   5.536   7.202  10.253  1.0127  0.0361  0.7933
 9919TIP3   OH253951   0.185   2.492  11.075 -0.1572 -0.7204  0.4963
 9919TIP3    H153952   0.186   2.445  11.159 -0.4449 -1.8714 -0.1226
 9919TIP3    H253953   0.213   2.581  11.097 -1.4217 -0.6582  2.0031
 9920TIP3   OH253954   1.747   1.939  11.211  0.6248 -0.2442  0.3217
 9920TIP3    H153955   1.753   1.844  11.223 -3.1791 -0.6106  0.5885
 9920TIP3    H253956   1.724   1.973  11.298 -1.6676  0.3422 -0.4221
 9921TIP3   OH253957   5.703   6.487  11.248 -0.8569  0.2018  0.1859
 9921TIP3    H153958   5.662   6.558  11.299 -0.5543  1.2731 -1.0081
 9921TIP3    H253959   5.718   6.418  11.312 -2.1447  0.7875  1.1909
 9922TIP3   OH253960   1.842   3.050  11.845  0.3827 -0.0093 -0.1899
 9922TIP3    H153961   1.832   2.958  11.823  0.8931 -0.1531  0.1653
 9922TIP3    H253962   1.909   3.082  11.783  2.5864 -0.6578  1.7102
 9923TIP3   OH253963   3.315   5.852  12.351 -0.0683  0.0899 -0.8200
 9923TIP3    H153964   3.251   5.863  12.421 -0.8997 -1.0230 -1.3576
 9923TIP3    H253965   3.282   5.778  12.300  0.2468  1.1487 -2.6631
 9924TIP3   OH253966   6.171   4.328  12.084  0.1208  0.1494  0.2307
 9924TIP3    H153967   6.145   4.352  11.995  0.5768 -1.5203 -0.3883
 9924TIP3    H253968   6.258   4.366  12.096  0.2714 -0.0440 -0.2376
 9925TIP3   OH253969   2.255   3.731  12.775  0.8516  0.2727 -0.2264
 9925TIP3    H153970   2.340   3.689  12.761 -1.4627 -4.8336 -1.6235
 9925TIP3    H253971   2.215   3.733  12.688 -0.3408  3.1593  0.2681
 9926TIP3   OH253972   4.370   6.861  12.653  0.4068  0.4646 -0.0698
 9926TIP3    H153973   4.314   6.938  12.654  0.1942  0.3050  1.3773
 9926TIP3    H253974   4.330   6.800  12.715  0.0042 -1.2582 -1.8839
 9927TIP3   OH253975   1.848   3.199  12.395 -0.5036 -0.3685 -0.2722
 9927TIP3    H153976   1.836   3.285  12.355  1.4848  0.4252  0.6822
 9927TIP3    H253977   1.763   3.179  12.434 -0.3695  2.5396  1.9107
 9928TIP3   OH253978   0.571   3.514  11.507  0.2883  0.4672 -0.3134
 9928TIP3    H153979   0.511   3.586  11.527 -1.4840 -1.2864  1.0961
 9928TIP3    H253980   0.639   3.519  11.575  0.4821  1.1052 -0.5490
 9929TIP3   OH253981   5.004   3.053  10.384  0.3172  0.2696 -0.4608
 9929TIP3    H153982   4.983   2.961  10.370  0.9204  0.2680 -1.4452
 9929TIP3    H253983   5.098   3.054  10.402 -0.0887  0.4677  1.9527
 9930TIP3   OH253984   0.233   2.874  12.434 -0.3609  0.0659  0.3884
 9930TIP3    H153985   0.237   2.949  12.494 -0.9022 -0.1585  0.7168
 9930TIP3    H253986   0.238   2.797  12.491  0.7807 -0.1584  0.0064
 9931TIP3   OH253987   4.526   1.132  10.900 -0.7660 -0.1418  0.1477
 9931TIP3    H153988   4.492   1.130  10.990 -0.9997  0.5925  0.0793
 9931TIP3    H253989   4.577   1.052  10.893 -0.1243  0.1538  1.1835
 9932TIP3   OH253990   5.282   3.264  12.458  0.2757 -0.1785  0.0581
 9932TIP3    H153991   5.310   3.329  12.393 -0.0511 -0.6569 -0.5696
 9932TIP3    H253992   5.321   3.294  12.540  0.6335  0.4757 -0.3435
 9933TIP3   OH253993   6.520   1.266  11.726 -0.2967 -0.3112  0.3119
 9933TIP3    H153994   6.434   1.265  11.685  0.1896  0.8476 -0.7958
 9933TIP3    H253995   6.562   1.185  11.698  0.3360  0.8155 -2.2697
 9934TIP3   OH253996   6.443   4.204  12.226 -0.2100 -0.5211 -0.5805
 9934TIP3    H153997   6.450   4.218  12.132 -0.0081 -0.9861 -0.6371
 9934TIP3    H253998   6.527   4.232  12.261 -0.9531  1.5416 -0.2823
 9935TIP3   OH253999   4.834   5.126  11.616 -0.1750  0.3730 -0.1539
 9935TIP3    H154000   4.864   5.212  11.587  0.2931  0.8175  1.5194
 9935TIP3    H254001   4.868   5.065  11.550 -0.1034  1.4014 -1.1038
 9936TIP3   OH254002   0.078   7.279  12.036  0.1278  0.1874 -0.3925
 9936TIP3    H154003   0.022   7.347  12.075 -1.3228 -1.2145  0.0613
 9936TIP3    H254004   0.072   7.294  11.941 -0.3921  0.5384 -0.3066
 9937TIP3   OH254005   1.416   4.961  12.660 -0.3852  0.5200 -0.0408
 9937TIP3    H154006   1.353   4.929  12.724  0.3951  0.8132  0.9085
 9937TIP3    H254007   1.492   4.904  12.671  0.4526  1.7060  0.6286
 9938TIP3   OH254008   5.795   6.964  10.637  0.4875  0.4460 -0.1805
 9938TIP3    H154009   5.736   7.034  10.665  0.4826  0.3673  0.0132
 9938TIP3    H254010   5.881   6.993  10.667  0.4374  0.2163  0.1956
 9939TIP3   OH254011   6.509   3.552  13.195  0.9735  0.1229 -0.4900
 9939TIP3    H154012   6.461   3.483  13.149  0.0751  0.1330  0.3971
 9939TIP3    H254013   6.463   3.632  13.172  0.9954  0.2222 -0.1918
 9940TIP3   OH254014   7.175   2.935  12.553  0.7951 -0.0193  0.3598
 9940TIP3    H154015   7.190   3.027  12.575  0.6089 -0.1181  0.9352
 9940TIP3    H254016   7.111   2.905  12.618  0.1102 -0.2989 -0.4173
 9941TIP3   OH254017   5.904   2.526  11.992 -0.0108  0.0119 -0.5683
 9941TIP3    H154018   5.821   2.573  11.992 -0.5193 -0.8552 -0.0475
 9941TIP3    H254019   5.971   2.594  11.980 -0.7428  0.7954 -0.2828
 9942TIP3   OH254020   3.620   3.292  12.546  0.4249 -0.4936  0.3062
 9942TIP3    H154021   3.658   3.375  12.575 -0.0910 -0.5718  1.2570
 9942TIP3    H254022   3.541   3.316  12.498  0.0625 -0.4330  0.9173
 9943TIP3   OH254023   2.879   3.103  11.626  0.0161  0.0598 -0.1358
 9943TIP3    H154024   2.901   3.153  11.705  0.9814 -1.0340  0.3200
 9943TIP3    H254025   2.854   3.017  11.659 -0.8812 -0.0118 -0.9574
 9944TIP3   OH254026   6.643   7.090  12.182  0.3036 -0.0984  0.1689
 9944TIP3    H154027   6.694   7.032  12.126  0.9850 -0.1067  0.7811
 9944TIP3    H254028   6.699   7.166  12.196 -1.0718  1.3383 -1.6615
 9945TIP3   OH254029   2.849   4.876  12.426 -0.7679  0.1704 -0.5855
 9945TIP3    H154030   2.860   4.928  12.347 -0.1029 -0.2136 -0.7553
 9945TIP3    H254031   2.914   4.806  12.418 -0.6441  0.1666  0.3289
 9946TIP3   OH254032   4.251   3.563  11.700 -0.5723 -0.4117  0.2462
 9946TIP3    H154033   4.263   3.470  11.682  3.8136  0.0542 -0.2432
 9946TIP3    H254034   4.268   3.606  11.616  0.5777  0.9391  1.1261
 9947TIP3   OH254035   0.909   5.950  11.504 -0.4155 -0.3792 -0.1921
 9947TIP3    H154036   0.953   5.999  11.434 -0.9897  0.1230 -0.2123
 9947TIP3    H254037   0.977   5.896  11.542  0.1019 -0.0076 -0.5741
 9948TIP3   OH254038   3.801   6.858  12.180  0.6159  0.2625  0.3664
 9948TIP3    H154039   3.825   6.914  12.106 -0.1791  1.0959  0.7329
 9948TIP3    H254040   3.719   6.895  12.213  0.9286 -0.1387  1.6291
 9949TIP3   OH254041   7.403   2.055  12.166  0.0522 -0.4569 -0.0149
 9949TIP3    H154042   7.431   2.069  12.076  0.6228 -0.6262  0.1357
 9949TIP3    H254043   7.307   2.059  12.162  0.0885 -0.0615 -0.5595
 9950TIP3   OH254044   6.496   1.477  11.910 -0.0903  0.0707  0.2237
 9950TIP3    H154045   6.573   1.530  11.890  0.6885 -1.2976 -0.4755
 9950TIP3    H254046   6.500   1.404  11.849 -3.0149  0.9558 -1.2326
 9951TIP3   OH254047   0.760   1.922  10.915  0.1774  0.6079  0.0525
 9951TIP3    H154048   0.800   2.000  10.954  1.1403  0.2944 -0.2888
 9951TIP3    H254049   0.702   1.889  10.984  1.5358  0.3065  1.0933
 9952TIP3   OH254050   5.739   3.803  11.007 -0.4814  0.0154  0.6453
 9952TIP3    H154051   5.752   3.897  10.995  0.5801 -0.4015 -2.1366
 9952TIP3    H254052   5.735   3.791  11.102 -0.2105  2.7940  1.0717
 9953TIP3   OH254053   4.942   0.682  10.498  0.0631 -0.4296  0.3753
 9953TIP3    H154054   4.910   0.772  10.506  2.8144  0.9199 -2.0582
 9953TIP3    H254055   4.881   0.641  10.435 -0.0609  0.3662 -0.0379
 9954TIP3   OH254056   1.102   7.632  11.487  0.4419 -1.1120  0.0999
 9954TIP3    H154057   1.008   7.616  11.479 -0.2167  2.3434 -0.4769
 9954TIP3    H254058   1.113   7.659  11.578  0.6576 -0.4309 -0.1248
 9955TIP3   OH254059   5.283   6.689  10.382 -0.2731 -0.1547 -0.3199
 9955TIP3    H154060   5.270   6.691  10.477  1.0665  0.2696 -0.1310
 9955TIP3    H254061   5.319   6.775  10.361 -1.3859  0.0884 -1.3585
 9956TIP3   OH254062   4.556   5.766  11.825  0.1514  0.1172  0.1694
 9956TIP3    H154063   4.591   5.693  11.774 -0.0097  1.1079 -1.4214
 9956TIP3    H254064   4.630   5.796  11.878  0.6564 -0.2142 -0.3321
 9957TIP3   OH254065   1.351   3.939  12.012 -0.2746 -0.6263  0.3627
 9957TIP3    H154066   1.369   3.847  11.992 -0.1168 -0.7234  0.9233
 9957TIP3    H254067   1.256   3.946  12.009 -0.3303 -0.9812  1.0066
 9958TIP3   OH254068   0.923   5.195  11.205 -0.4004  0.3375  0.0043
 9958TIP3    H154069   1.007   5.218  11.164  0.5212 -0.6486  1.2918
 9958TIP3    H254070   0.857   5.235  11.147  0.9347  1.0808 -1.0646
 9959TIP3   OH254071   5.815   6.895  10.316 -0.4920  0.0136 -0.1089
 9959TIP3    H154072   5.881   6.930  10.375 -0.0194  0.4170 -0.8626
 9959TIP3    H254073   5.830   6.800  10.317 -0.6363 -0.0047  0.5805
 9960TIP3   OH254074   1.400   7.160  11.543  0.1220  0.1841  0.5375
 9960TIP3    H154075   1.398   7.224  11.614 -0.1062  0.6379  0.1231
 9960TIP3    H254076   1.317   7.172  11.497 -1.1616 -2.2111  2.0281
 9961TIP3   OH254077   0.646   4.880  12.790 -0.6008 -0.4721 -0.4878
 9961TIP3    H154078   0.738   4.873  12.815 -0.8390 -0.3811  0.4689
 9961TIP3    H254079   0.637   4.970  12.758 -0.5923 -0.1069  0.4944
 9962TIP3   OH254080   5.417   5.694  12.260  0.1496  0.2408 -0.3272
 9962TIP3    H154081   5.498   5.744  12.272 -0.9339  1.9551  0.2376
 9962TIP3    H254082   5.369   5.706  12.343 -0.8366 -0.4637 -0.7726
 9963TIP3   OH254083   6.462   5.883  12.963 -0.1469 -0.1171 -0.1588
 9963TIP3    H154084   6.404   5.815  12.997  0.4021 -0.2055  0.6596
 9963TIP3    H254085   6.513   5.910  13.040  0.7593  0.0777 -0.8175
 9964TIP3   OH254086   4.611   0.510  11.571  0.3039  0.1874 -0.6976
 9964TIP3    H154087   4.518   0.509  11.548  0.3385  1.1264 -0.9237
 9964TIP3    H254088   4.620   0.586  11.629  0.9374  0.1109 -0.6965
 9965TIP3   OH254089   7.167   6.094  12.390 -0.0468  0.4744 -0.0152
 9965TIP3    H154090   7.152   6.040  12.313  2.2507  1.1902 -1.0550
 9965TIP3    H254091   7.107   6.168  12.379  1.0471  1.1559 -1.7732
 9966TIP3   OH254092   2.913   4.835  12.063  0.0785 -0.5604  0.3829
 9966TIP3    H154093   2.983   4.898  12.048  0.6674 -1.1695  0.5010
 9966TIP3    H254094   2.854   4.847  11.988 -0.5405  1.0479  1.0878
 9967TIP3   OH254095   2.312   2.159  11.789 -0.1259  0.0320 -0.0973
 9967TIP3    H154096   2.339   2.100  11.860 -0.0833  0.4866  0.2672
 9967TIP3    H254097   2.259   2.104  11.732 -2.4109  0.2587  1.6515
 9968TIP3   OH254098   7.581   6.885  12.119 -0.2829  0.2945  0.0222
 9968TIP3    H154099   7.676   6.891  12.108 -0.3363  2.0639  0.2836
 9968TIP3    H254100   7.559   6.960  12.173 -1.5527 -1.4082  2.0437
 9969TIP3   OH254101   6.185   6.325  10.667 -0.0996 -0.8972 -0.1411
 9969TIP3    H154102   6.114   6.386  10.685  0.8523  0.9556 -2.1919
 9969TIP3    H254103   6.221   6.303  10.753  0.5331  2.7519  0.7006
 9970TIP3   OH254104   0.080   6.123  12.207  0.2368  0.4709  0.7270
 9970TIP3    H154105   0.106   6.215  12.210  1.3977  0.1486  0.9378
 9970TIP3    H254106  -0.013   6.125  12.183 -0.5804  1.8443  3.5724
 9971TIP3   OH254107   6.638   4.336  12.407 -0.1462 -0.4146 -0.2327
 9971TIP3    H154108   6.680   4.284  12.475  0.6079 -0.4455 -0.7089
 9971TIP3    H254109   6.555   4.365  12.446  0.4816 -0.0419  0.8592
 9972TIP3   OH254110   5.058   3.923  11.358  0.2933 -0.3257  0.5697
 9972TIP3    H154111   5.040   3.887  11.445  0.7483  0.3195  0.9353
 9972TIP3    H254112   4.978   3.970  11.335  0.1582 -0.5282  0.6250
 9973TIP3   OH254113   4.843   0.726  11.976 -0.0030  0.7149  0.2600
 9973TIP3    H154114   4.892   0.645  11.990 -1.2454 -0.2753 -0.7914
 9973TIP3    H254115   4.804   0.745  12.061  0.9686  0.6797  0.7268
 9974TIP3   OH254116   7.431   0.198  12.665 -0.3561 -0.3076  0.4548
 9974TIP3    H154117   7.402   0.107  12.655 -0.0832 -0.2487 -1.2761
 9974TIP3    H254118   7.491   0.212  12.591 -1.5634  1.6936 -0.2297
 9975TIP3   OH254119   5.154   2.513  10.919 -0.3090 -0.2200  0.3321
 9975TIP3    H154120   5.068   2.523  10.877  0.3303  0.1114 -0.9556
 9975TIP3    H254121   5.216   2.546  10.854  0.8185 -0.6783  1.1467
 9976TIP3   OH254122   2.539   2.237  12.589  0.5567 -0.0380  0.3391
 9976TIP3    H154123   2.498   2.157  12.621  1.8799 -1.1172 -0.5576
 9976TIP3    H254124   2.530   2.300  12.661 -1.6258 -0.5567  0.5896
 9977TIP3   OH254125   2.754   6.213  11.381 -0.2163  0.1418 -0.6204
 9977TIP3    H154126   2.668   6.202  11.341 -0.3155 -0.8803 -0.1506
 9977TIP3    H254127   2.804   6.138  11.350 -0.8456 -1.7793  2.5585
 9978TIP3   OH254128   6.600   3.158  11.741  0.2030  0.9685  0.0548
 9978TIP3    H154129   6.552   3.156  11.824 -0.1996  1.0168 -0.1740
 9978TIP3    H254130   6.681   3.204  11.762 -0.2860  1.7863  0.2224
 9979TIP3   OH254131   6.981   3.303  11.939 -0.1699  0.5274  0.6036
 9979TIP3    H154132   6.944   3.365  12.003 -0.0331  0.8937  0.3316
 9979TIP3    H254133   7.019   3.233  11.993 -0.6581  0.4866  0.9036
 9980TIP3   OH254134   4.658   2.447  10.827  0.2136  0.5593 -0.6599
 9980TIP3    H154135   4.587   2.385  10.812 -1.2900  1.0346  3.3034
 9980TIP3    H254136   4.729   2.395  10.865 -0.6057  0.9562  1.5549
 9981TIP3   OH254137   7.487   5.008  12.839 -0.3501  0.0282  0.0382
 9981TIP3    H154138   7.448   4.926  12.807 -0.8369  0.4984 -0.6181
 9981TIP3    H254139   7.424   5.040  12.904 -0.7557  0.4579 -0.5502
 9982TIP3   OH254140   3.961   4.302  12.075  0.4737  0.4531  0.5232
 9982TIP3    H154141   3.964   4.396  12.093  2.0509  0.5859 -0.2606
 9982TIP3    H254142   4.015   4.263  12.145 -0.6700  0.0491  1.2038
 9983TIP3   OH254143   3.979   6.351  12.972 -0.6812 -0.7459  0.1312
 9983TIP3    H154144   3.919   6.341  12.898 -1.7205 -0.4847  0.9254
 9983TIP3    H254145   4.026   6.433  12.954 -1.2989 -0.4140  0.0167
 9984TIP3   OH254146   1.337   2.571  11.630  0.2128  0.2956  0.3313
 9984TIP3    H154147   1.295   2.651  11.663  0.8147  0.7498  0.0213
 9984TIP3    H254148   1.430   2.588  11.639  0.4344  0.6695 -2.0800
 9985TIP3   OH254149   4.222   4.365  11.324  0.2539 -0.1484  0.8924
 9985TIP3    H154150   4.219   4.366  11.228  0.5925 -1.0604  0.8572
 9985TIP3    H254151   4.234   4.272  11.346 -0.2488 -0.0043  1.8304
 9986TIP3   OH254152   2.626   2.605  12.229 -0.0177  0.0680  0.7971
 9986TIP3    H154153   2.583   2.565  12.304 -0.7834 -1.2281 -0.2930
 9986TIP3    H254154   2.567   2.675  12.201 -0.8458 -0.9055  0.0598
 9987TIP3   OH254155   0.406   5.168  11.079 -0.3086  0.2750 -0.3279
 9987TIP3    H154156   0.386   5.120  11.159  0.5989 -0.9229 -0.7893
 9987TIP3    H254157   0.335   5.232  11.070 -1.2971 -0.6762  0.5531
 9988TIP3   OH254158   4.970   3.295  10.499 -0.3631  0.0424  0.0646
 9988TIP3    H154159   4.905   3.271  10.565  0.3221 -0.4388  0.5682
 9988TIP3    H254160   4.980   3.216  10.445 -2.1150  0.9072 -1.6566
 9989TIP3   OH254161   0.180   4.954  11.359  0.0238 -0.0096 -0.4954
 9989TIP3    H154162   0.248   5.021  11.357  0.3400 -0.3382 -0.8678
 9989TIP3    H254163   0.105   4.997  11.400  0.9787 -0.1075  1.4735
 9990TIP3   OH254164   3.260   6.893  11.202  0.0780 -0.3133  0.5231
 9990TIP3    H154165   3.250   6.825  11.269  3.6721 -2.0503 -0.4209
 9990TIP3    H254166   3.269   6.844  11.120 -1.2838  1.6019 -0.8447
 9991TIP3   OH254167   2.399   2.522  10.635  0.9846  0.0943  0.3665
 9991TIP3    H154168   2.460   2.510  10.709 -0.6320 -1.7395  1.5065
 9991TIP3    H254169   2.315   2.491  10.668 -0.0418  0.2229 -1.9355
 9992TIP3   OH254170   3.896   4.452  12.940 -0.3302 -0.3483 -0.5173
 9992TIP3    H154171   3.942   4.438  13.023  2.6701  0.2845 -1.9584
 9992TIP3    H254172   3.911   4.371  12.891 -1.0216 -0.2383 -0.9204
 9993TIP3   OH254173   3.015   0.571  11.190 -0.1206  0.7218 -0.2060
 9993TIP3    H154174   2.982   0.501  11.133  0.7259 -0.2662  0.4885
 9993TIP3    H254175   2.997   0.651  11.141 -2.3880  0.1630 -0.4155
 9994TIP3   OH254176   0.019   1.546  12.824 -0.4486  0.2080  0.4053
 9994TIP3    H154177   0.063   1.507  12.748 -0.2624  0.9088  0.1476
 9994TIP3    H254178   0.079   1.528  12.897 -0.6378 -0.4870  0.4021
 9995TIP3   OH254179   5.176   5.370  10.976 -0.3972 -0.4769  0.1375
 9995TIP3    H154180   5.160   5.458  11.008  1.5261 -0.0895  0.1725
 9995TIP3    H254181   5.187   5.317  11.056  2.5398  0.1272  0.2684
 9996TIP3   OH254182   4.318   5.911  11.367 -0.7275  0.0676 -0.0870
 9996TIP3    H154183   4.362   5.965  11.432 -0.7119  0.9190 -0.7864
 9996TIP3    H254184   4.249   5.967  11.332 -1.7079 -0.8908  0.2490
 9997TIP3   OH254185   0.310   5.122  12.672 -0.5048 -0.3989 -0.1744
 9997TIP3    H154186   0.357   5.115  12.755 -1.2345 -0.5431  0.2380
 9997TIP3    H254187   0.219   5.139  12.698 -0.8827 -1.2223 -0.9307
 9998TIP3   OH254188   0.388   5.945  12.171  0.0284  0.3618 -0.3429
 9998TIP3    H154189   0.416   5.911  12.256  2.1762  2.0155 -0.3109
 9998TIP3    H254190   0.315   6.004  12.192  0.7488  1.0059  0.4269
 9999TIP3   OH254191   1.348   1.614  12.184 -0.1192 -0.0637  0.1040
 9999TIP3    H154192   1.278   1.556  12.153 -0.8986  0.4518  0.8397
 9999TIP3    H254193   1.395   1.639  12.105 -0.6510 -0.5799 -0.3853
10000TIP3   OH254194   6.129   5.427  11.701  0.4161 -0.2239  0.2577
10000TIP3    H154195   6.086   5.369  11.639  0.1779 -0.5851  0.7534
10000TIP3    H254196   6.147   5.507  11.651 -2.2813  0.5741  0.4270
10001TIP3   OH254197   4.106   4.584  11.687 -0.7383 -0.2660 -0.0120
10001TIP3    H154198   4.031   4.635  11.715 -0.7844 -0.5259  0.3393
10001TIP3    H254199   4.075   4.536  11.610 -1.3435 -1.3830  0.9000
10002TIP3   OH254200   0.184   5.573  12.395  0.0623  0.0470 -0.3498
10002TIP3    H154201   0.212   5.493  12.440 -0.5083  0.9261  1.6332
10002TIP3    H254202   0.169   5.544  12.304  0.8061 -1.8751  0.0813
10003TIP3   OH254203   3.275   5.205  12.978 -0.4994  0.2083 -0.0268
10003TIP3    H154204   3.328   5.242  13.048  0.6006 -1.0920 -0.1443
10003TIP3    H254205   3.185   5.230  13.001 -0.0546  0.7135  1.2623
10004TIP3   OH254206   3.586   1.704  12.290  0.6025 -0.2352  0.6459
10004TIP3    H154207   3.522   1.676  12.225  0.3729 -1.1492  1.2437
10004TIP3    H254208   3.557   1.662  12.371  2.9224 -2.1524  0.5891
10005TIP3   OH254209   6.070   2.955  13.155  0.0518  0.3169 -0.2576
10005TIP3    H154210   6.130   3.030  13.163  1.2411 -0.3815 -2.0956
10005TIP3    H254211   6.120   2.881  13.190 -1.2878  0.3900  1.9809
10006TIP3   OH254212   3.084   3.378  13.325  0.5567  0.2364 -0.5167
10006TIP3    H154213   3.088   3.405  13.416 -1.7244 -0.2064 -0.2357
10006TIP3    H254214   3.028   3.444  13.283 -1.0646 -1.3135 -0.8646
10007TIP3   OH254215   4.240   4.889  12.698  0.5370 -0.6349  0.3825
10007TIP3    H154216   4.272   4.906  12.787  0.3161 -0.5558  0.4478
10007TIP3    H254217   4.151   4.855  12.710  0.1806  0.1958  0.1560
10008TIP3   OH254218   1.472   0.294  10.728 -0.4705  0.4309  0.4601
10008TIP3    H154219   1.437   0.205  10.725  0.8611 -0.1706  1.6068
10008TIP3    H254220   1.395   0.350  10.736 -1.2990 -0.6645  0.3963
10009TIP3   OH254221   7.651   4.825  12.619  0.4827 -0.2553  0.0412
10009TIP3    H154222   7.585   4.769  12.578 -1.6460  1.2274  1.3048
10009TIP3    H254223   7.708   4.764  12.667 -0.3458 -1.5128 -0.5366
10010TIP3   OH254224   4.644   2.738  10.942  0.3590 -0.4615 -0.2649
10010TIP3    H154225   4.637   2.643  10.956 -0.4025 -0.9310 -3.2392
10010TIP3    H254226   4.604   2.753  10.856 -1.4519  2.8624  0.9619
10011TIP3   OH254227   0.604   7.260  11.766  0.1414  0.1638  0.1961
10011TIP3    H154228   0.639   7.283  11.680 -2.1447 -0.7321 -1.0729
10011TIP3    H254229   0.587   7.344  11.808 -0.4852  0.6659 -1.0203
10012TIP3   OH254230   3.744   2.071  12.025  0.0907  0.1535 -1.0560
10012TIP3    H154231   3.755   2.051  12.118  1.3696  1.8940 -0.7907
10012TIP3    H254232   3.723   2.164  12.022 -0.8311 -0.0567 -2.4899
10013TIP3   OH254233   1.132   1.320  13.154 -0.2318 -0.6663 -0.6849
10013TIP3    H154234   1.038   1.316  13.175 -0.1877  1.3598  0.1543
10013TIP3    H254235   1.139   1.389  13.088  0.6470 -0.8716 -0.8168
10014TIP3   OH254236   7.228   4.436  11.174  0.8169 -0.1046  0.2482
10014TIP3    H154237   7.147   4.480  11.149 -0.7400 -2.9989 -0.2439
10014TIP3    H254238   7.217   4.418  11.268  1.0391 -0.2366  0.2476
10015TIP3   OH254239   4.704   6.064  12.716  0.5456  0.0403  0.4181
10015TIP3    H154240   4.639   6.131  12.738  1.4292  1.1835 -0.2894
10015TIP3    H254241   4.672   5.984  12.758 -1.8094  0.3114 -0.6669
10016TIP3   OH254242   4.628   4.346  11.711 -0.1485  0.2634 -0.4062
10016TIP3    H154243   4.602   4.259  11.683  0.3329  0.0652 -0.2428
10016TIP3    H254244   4.563   4.404  11.672 -1.5906 -0.3120  1.0091
10017TIP3   OH254245   6.632   0.819  11.824  0.2079 -0.3577  0.1763
10017TIP3    H154246   6.631   0.725  11.842 -0.5697 -0.6025 -1.0578
10017TIP3    H254247   6.549   0.837  11.782  0.3920  0.8813  0.2859
10018TIP3   OH254248   6.535   0.579  10.694  0.5735 -0.0264  0.2751
10018TIP3    H154249   6.525   0.526  10.615  1.7054  0.2858 -0.0989
10018TIP3    H254250   6.555   0.516  10.764  1.3959 -0.1568 -0.0650
10019TIP3   OH254251   5.774   4.983  11.004  0.4763 -0.3005  0.0665
10019TIP3    H154252   5.816   4.932  10.934 -0.2187 -1.7849  0.6798
10019TIP3    H254253   5.825   4.963  11.082  0.1630 -0.0898  0.3274
10020TIP3   OH254254   5.575   4.725  12.538 -0.2808  0.1504 -0.1874
10020TIP3    H154255   5.584   4.764  12.625 -1.6301  0.4176 -0.1377
10020TIP3    H254256   5.483   4.740  12.515 -0.3459 -1.2698 -1.0025
10021TIP3   OH254257   2.813   5.136  12.935  0.2073 -0.3769 -0.5254
10021TIP3    H154258   2.847   5.119  12.847  1.3828  3.4641 -0.9705
10021TIP3    H254259   2.748   5.204  12.923 -1.1896 -1.2803  1.4128
10022TIP3   OH254260   6.873   6.840  11.243  0.2191 -0.3564 -0.0159
10022TIP3    H154261   6.900   6.908  11.304  1.2360 -0.4773 -0.2980
10022TIP3    H254262   6.955   6.815  11.199 -0.1376 -1.7267  0.0652
10023TIP3   OH254263   5.020   6.693  12.160  0.0713 -0.2822  0.0452
10023TIP3    H154264   5.005   6.786  12.145 -0.7583 -0.3358  0.5041
10023TIP3    H254265   5.038   6.687  12.254  2.1919 -0.3350 -0.3091
10024TIP3   OH254266   1.377   1.883  11.363 -0.3761  0.1106 -0.6239
10024TIP3    H154267   1.324   1.956  11.395 -1.6789 -0.9999 -0.1669
10024TIP3    H254268   1.370   1.887  11.268 -1.1074  0.1074 -0.5704
10025TIP3   OH254269   0.700   3.563  10.516  0.1480  0.1574  0.2868
10025TIP3    H154270   0.627   3.622  10.536 -0.3183 -0.1827 -0.3732
10025TIP3    H254271   0.658   3.478  10.498  0.8204 -0.4570  1.4624
10026TIP3   OH254272   3.832   5.048  12.923  0.5404 -0.5239  0.0587
10026TIP3    H154273   3.895   5.120  12.925  0.8182 -0.7552 -0.3129
10026TIP3    H254274   3.770   5.069  12.993  1.7638 -0.9682  1.3352
10027TIP3   OH254275   5.290   6.797  11.723 -0.5853  0.2479 -0.4159
10027TIP3    H154276   5.313   6.746  11.644  1.2805  1.4267 -0.6998
10027TIP3    H254277   5.374   6.812  11.766 -1.3506  1.3622  0.7250
10028TIP3   OH254278   7.040   0.946  11.644  0.1829 -0.0334  0.5573
10028TIP3    H154279   6.966   0.887  11.655  0.6447 -0.6507  0.4212
10028TIP3    H254280   7.096   0.927  11.720  1.6313 -1.7138 -0.8290
10029TIP3   OH254281   5.060   2.313  11.245 -0.5905  0.5903  0.1714
10029TIP3    H154282   5.025   2.340  11.329  0.0785  2.4270 -0.1078
10029TIP3    H254283   5.128   2.377  11.225 -0.3813 -0.1095 -1.5242
10030TIP3   OH254284   3.366   2.188  12.029 -0.4704  0.4767  0.4714
10030TIP3    H154285   3.289   2.223  11.985 -0.3472  2.6311  1.8090
10030TIP3    H254286   3.417   2.266  12.053  2.4695 -0.8620 -0.8862
10031TIP3   OH254287   1.174   5.553  12.957  0.4332 -0.1974 -0.9430
10031TIP3    H154288   1.222   5.620  13.006  1.0612  1.0924 -3.1461
10031TIP3    H254289   1.213   5.470  12.984  0.7435  0.4492  0.6758
10032TIP3   OH254290   5.853   4.352  11.259  0.1429 -0.5555  0.3142
10032TIP3    H154291   5.936   4.386  11.227 -0.1336 -0.4103 -0.2689
10032TIP3    H254292   5.816   4.424  11.311  0.3588 -0.6082  0.5456
10033TIP3   OH254293   2.811   7.573  11.738  0.3725  0.2704  0.2638
10033TIP3    H154294   2.868   7.636  11.694  0.3698  0.9332  1.1684
10033TIP3    H254295   2.857   7.551  11.819  0.8134 -1.6444 -0.4540
10034TIP3   OH254296   3.877   7.582  10.496  0.1387 -0.1805  0.1790
10034TIP3    H154297   3.896   7.635  10.418 -1.3216 -0.4844 -0.4174
10034TIP3    H254298   3.908   7.494  10.474  0.5282 -0.0710  0.2894
10035TIP3   OH254299   4.460   6.361  12.459  0.0582 -0.0461  0.0455
10035TIP3    H154300   4.371   6.329  12.446  1.0568 -2.9744 -0.3597
10035TIP3    H254301   4.496   6.305  12.528  1.6646  0.9206  0.0373
10036TIP3   OH254302   6.957   3.354  12.882 -0.7684  0.4309  0.6937
10036TIP3    H154303   7.032   3.295  12.887 -1.2361 -0.1483  1.0732
10036TIP3    H254304   6.951   3.392  12.970 -0.7815  0.6527  0.5984
10037TIP3   OH254305   1.120   2.365  11.488 -0.2225  0.1926 -0.7331
10037TIP3    H154306   1.032   2.402  11.487 -0.5844 -0.6274 -0.2485
10037TIP3    H254307   1.170   2.424  11.545 -0.9477 -0.3808  0.5314
10038TIP3   OH254308   4.189   2.913  11.732  0.4561 -0.2004  0.0681
10038TIP3    H154309   4.162   2.998  11.769  0.3821 -0.0470 -0.3235
10038TIP3    H254310   4.107   2.872  11.705  0.4429 -0.6446  0.7659
10039TIP3   OH254311   0.815   3.070  10.600 -0.7814 -0.3791 -0.2567
10039TIP3    H154312   0.786   3.042  10.513 -1.5251 -1.0289  0.1864
10039TIP3    H254313   0.847   2.989  10.641  0.0406  0.0128 -0.1030
10040TIP3   OH254314   0.910   4.979  11.563 -0.5650 -0.1943 -0.2793
10040TIP3    H154315   1.001   4.957  11.583 -0.2627 -0.6347 -1.9331
10040TIP3    H254316   0.864   4.974  11.647  1.4997  3.2752  1.3064
10041TIP3   OH254317   2.576   1.682  11.571 -0.5999  0.5318 -0.0286
10041TIP3    H154318   2.512   1.691  11.501  0.0017 -0.4326 -0.7220
10041TIP3    H254319   2.530   1.713  11.649 -2.7752 -2.2827 -0.0468
10042TIP3   OH254320   1.878   4.620  11.690  0.5022  0.6960 -0.4113
10042TIP3    H154321   1.840   4.539  11.656  0.3869  0.8922 -0.7530
10042TIP3    H254322   1.932   4.592  11.764 -2.0897  0.6078  1.5690
10043TIP3   OH254323   4.741   3.695  12.705 -0.0371 -0.1885  0.1897
10043TIP3    H154324   4.667   3.716  12.762  0.4559 -0.3188  0.9003
10043TIP3    H254325   4.798   3.641  12.760  1.8101  1.9354  0.5430
10044TIP3   OH254326   5.664   7.034  12.454 -0.0762  0.0727 -0.0026
10044TIP3    H154327   5.594   7.100  12.459 -0.4050 -0.1882 -1.0214
10044TIP3    H254328   5.665   6.994  12.541 -0.4800  0.8059  0.3492
10045TIP3   OH254329   3.031   1.216  11.705 -0.2949  0.5346  0.3555
10045TIP3    H154330   2.939   1.233  11.685 -0.4303 -0.9243 -0.4050
10045TIP3    H254331   3.033   1.124  11.730  0.9337  0.6152  0.6080
10046TIP3   OH254332   6.109   1.158  10.614  0.0485  1.0015 -0.2285
10046TIP3    H154333   6.066   1.145  10.530  1.5348 -0.0970 -0.8666
10046TIP3    H254334   6.172   1.086  10.621 -0.9950  0.2300  2.4897
10047TIP3   OH254335   1.346   1.844  12.351  0.0052 -0.2480  0.2511
10047TIP3    H154336   1.437   1.874  12.357  0.1796 -0.9509  2.1412
10047TIP3    H254337   1.348   1.775  12.285  0.8204 -0.1310  0.1388
10048TIP3   OH254338   6.211   7.004  12.992 -0.0652  0.3062 -0.5192
10048TIP3    H154339   6.248   6.947  13.060 -0.5372 -2.6709 -2.5260
10048TIP3    H254340   6.255   7.088  13.004  2.0441 -0.9753  1.5920
10049TIP3   OH254341   5.982   3.819  11.435  0.5253  0.5049  0.5423
10049TIP3    H154342   5.935   3.893  11.472  0.0986  1.0934 -1.0925
10049TIP3    H254343   5.941   3.742  11.473 -1.1123  1.0345 -0.0883
10050TIP3   OH254344   5.700   5.326  11.410 -0.1094 -0.2878  0.2504
10050TIP3    H154345   5.654   5.409  11.399  2.2504  1.1301  0.5221
10050TIP3    H254346   5.642   5.274  11.467 -2.6628  0.2479 -1.6857
10051TIP3   OH254347   4.701   5.272  12.146 -0.2823  0.3585  0.5406
10051TIP3    H154348   4.640   5.209  12.107 -0.5331  0.8191  0.1710
10051TIP3    H254349   4.681   5.355  12.102  0.5248  0.5468  0.5129
10052TIP3   OH254350   7.294   3.233  11.948 -0.2257 -0.7092  0.6089
10052TIP3    H154351   7.208   3.205  11.981 -0.0047 -2.6391 -0.2892
10052TIP3    H254352   7.347   3.153  11.950  1.9660  0.6844  2.2834
10053TIP3   OH254353   1.969   5.400  11.165 -0.4283 -0.4042 -0.6302
10053TIP3    H154354   1.897   5.438  11.216  0.8726 -0.0327  1.0196
10053TIP3    H254355   1.963   5.306  11.182  0.2449 -0.2429  0.5913
10054TIP3   OH254356   6.659   4.895  12.610  0.0519 -0.4909  0.1600
10054TIP3    H154357   6.622   4.895  12.698 -1.3669  0.1526 -0.4020
10054TIP3    H254358   6.735   4.953  12.616  0.4460 -1.0818  1.1234
10055TIP3   OH254359   7.114   1.977  12.172 -0.2606 -0.3907  0.6426
10055TIP3    H154360   7.144   1.894  12.135 -0.7498 -0.7454  1.0446
10055TIP3    H254361   7.100   1.959  12.265  3.4836  1.1403  1.7003
10056TIP3   OH254362   5.532   0.119  10.870 -0.1867 -0.1179  0.2193
10056TIP3    H154363   5.502   0.210  10.871 -0.8625 -0.3129 -0.6437
10056TIP3    H254364   5.498   0.081  10.951 -1.0261  0.0661 -0.0341
10057TIP3   OH254365   6.077   7.150  11.088 -0.5284  0.2795  0.2771
10057TIP3    H154366   6.010   7.216  11.104 -1.4715 -0.8945  1.4292
10057TIP3    H254367   6.028   7.069  11.072  0.5966 -0.3577 -0.0827
10058TIP3   OH254368   5.570   4.019  11.863  0.0372  0.2310  0.3319
10058TIP3    H154369   5.607   3.938  11.898 -0.5573 -1.0200 -1.7665
10058TIP3    H254370   5.477   4.014  11.887  0.2692  1.0605  1.4873
10059TIP3   OH254371   6.334   2.206  11.593 -0.5363  0.1691  0.5124
10059TIP3    H154372   6.401   2.275  11.590 -1.1303  0.7120 -1.2488
10059TIP3    H254373   6.385   2.124  11.592  0.1614  0.5478 -2.1297
10060TIP3   OH254374   7.185   5.598  12.369  0.5323  0.6014  0.2472
10060TIP3    H154375   7.222   5.511  12.353 -0.5579  0.1674  0.0438
10060TIP3    H254376   7.152   5.595  12.458 -2.5244 -0.3472 -0.8048
10061TIP3   OH254377   1.673   2.632  10.793  0.2834  0.1391 -0.4401
10061TIP3    H154378   1.657   2.537  10.794 -1.1610  0.3169 -2.1304
10061TIP3    H254379   1.766   2.640  10.815  0.3953 -1.6628 -0.0740
10062TIP3   OH254380   3.211   4.526  11.223  0.1865  0.0032  0.8822
10062TIP3    H154381   3.278   4.593  11.212 -1.0059  1.1449  0.3470
10062TIP3    H254382   3.195   4.494  11.134  1.7270 -2.0339  1.2652
10063TIP3   OH254383   6.465   2.898  12.163 -0.2888 -0.2476  0.0696
10063TIP3    H154384   6.500   2.870  12.247 -1.2224 -1.9010 -0.0509
10063TIP3    H254385   6.381   2.941  12.184  1.2925  3.0693  0.2927
10064TIP3   OH254386   6.930   0.339  12.200  0.0932 -0.5990 -0.1576
10064TIP3    H154387   6.983   0.393  12.259 -0.0378 -2.5503  1.8914
10064TIP3    H254388   6.992   0.276  12.163  0.1335  0.4710 -2.0613
10065TIP3   OH254389   3.960   2.806  11.614  0.3371 -0.2857 -0.2700
10065TIP3    H154390   3.916   2.740  11.560 -0.8040  0.1630  0.0777
10065TIP3    H254391   3.959   2.885  11.561  1.1079 -0.3652 -0.4181
10066TIP3   OH254392   3.691   4.529  10.934 -0.4753  0.7860  0.1018
10066TIP3    H154393   3.672   4.437  10.953  0.4567  0.9024  1.7196
10066TIP3    H254394   3.673   4.538  10.840 -0.8671 -0.9663 -0.0179
10067TIP3   OH254395   4.931   3.702  10.762  0.6133 -0.5316  0.1684
10067TIP3    H154396   4.859   3.639  10.771  0.0754  0.1455  0.7659
10067TIP3    H254397   5.010   3.651  10.783  0.1165 -0.8449  1.3564
10068TIP3   OH254398   5.060   4.341  11.084  0.0823 -0.6889 -0.0596
10068TIP3    H154399   5.007   4.269  11.050 -0.6640 -0.7417  1.1801
10068TIP3    H254400   5.050   4.336  11.179  1.7656 -0.2752  0.1742
10069TIP3   OH254401   6.286   7.479  11.173  0.0615 -0.1542  0.6935
10069TIP3    H154402   6.281   7.554  11.231  0.1768 -0.4341  1.0703
10069TIP3    H254403   6.253   7.406  11.225 -0.9381 -0.1961  0.0255
10070TIP3   OH254404   5.841   5.812  12.600 -0.3402  0.4229 -0.7182
10070TIP3    H154405   5.933   5.799  12.578  0.6201  1.4721  2.1983
10070TIP3    H254406   5.829   5.907  12.597 -0.7247  0.4546  0.9076
10071TIP3   OH254407   3.354   0.857  12.243  0.1887 -0.0312 -0.3562
10071TIP3    H154408   3.341   0.834  12.334 -1.3264 -1.9451 -0.9999
10071TIP3    H254409   3.308   0.940  12.232  1.9392  1.1865  0.9800
10072TIP3   OH254410   6.552   4.766  11.438 -0.5434  0.5054  0.4230
10072TIP3    H154411   6.549   4.822  11.361 -1.9284 -1.9601 -1.4527
10072TIP3    H254412   6.637   4.785  11.478  0.5050  1.4554 -2.0493
10073TIP3   OH254413   6.149   3.374  12.013  0.0487  0.6391 -0.0128
10073TIP3    H154414   6.091   3.417  11.950 -0.2302 -0.2916 -0.4110
10073TIP3    H254415   6.193   3.305  11.963 -1.2450 -1.0694  1.0825
10074TIP3   OH254416   3.969   0.512  11.724 -0.1953 -0.3389  0.0741
10074TIP3    H154417   4.004   0.458  11.794  2.3973  0.8575 -0.1836
10074TIP3    H254418   3.881   0.537  11.753  0.5671 -0.3910  2.5949
10075TIP3   OH254419   7.314   5.046  13.032 -0.3698 -0.3503 -0.0250
10075TIP3    H154420   7.241   4.988  13.009 -0.0946 -0.4201 -0.7367
10075TIP3    H254421   7.354   5.004  13.109 -0.1491 -1.1439 -0.5523
10076TIP3   OH254422   7.580   4.513  11.656  0.2642 -0.4084 -0.2837
10076TIP3    H154423   7.572   4.546  11.566 -1.2065  0.9540  0.3035
10076TIP3    H254424   7.634   4.578  11.701  1.4860 -1.3788 -0.2652
10077TIP3   OH254425   2.061   0.889  11.299  0.2271  0.3288  0.7770
10077TIP3    H154426   2.013   0.946  11.239  0.3405  0.2377  0.6003
10077TIP3    H254427   2.153   0.904  11.280  0.2475 -0.7078 -0.0254
10078TIP3   OH254428   1.292   1.396  10.942 -0.0455 -0.3353  0.5219
10078TIP3    H154429   1.300   1.488  10.965  0.9814 -0.6674  1.5508
10078TIP3    H254430   1.229   1.395  10.869 -0.2729  1.1346  0.6726
10079TIP3   OH254431   5.613   7.413  10.637 -0.6982 -0.0629  0.2432
10079TIP3    H154432   5.648   7.447  10.555 -1.2639  0.2618  0.1312
10079TIP3    H254433   5.540   7.471  10.658  0.1082  0.5256  1.5524
10080TIP3   OH254434   1.118   4.258  12.313  0.1960 -0.1945  0.9865
10080TIP3    H154435   1.077   4.194  12.372 -0.0068  0.2203  1.3011
10080TIP3    H254436   1.111   4.342  12.359  0.7952 -0.0013  0.7432
10081TIP3   OH254437   6.460   4.504  11.654  0.3957  0.5501 -0.1385
10081TIP3    H154438   6.501   4.417  11.659 -0.0495  0.3036 -0.6824
10081TIP3    H254439   6.408   4.502  11.573  0.3229  1.2995 -0.1210
10082TIP3   OH254440   3.529   2.559  10.697  0.1752 -0.0785  0.5767
10082TIP3    H154441   3.613   2.562  10.743  0.4905  0.4784 -0.0189
10082TIP3    H254442   3.539   2.488  10.633  0.8854  1.1931 -0.7724
10083TIP3   OH254443   1.529   0.953  11.290 -0.1406 -0.2272 -0.1454
10083TIP3    H154444   1.617   0.976  11.319 -0.4536 -1.9166  2.4796
10083TIP3    H254445   1.485   1.038  11.277  1.4350  0.6218 -0.1394
10084TIP3   OH254446   3.699   7.458  13.145 -0.4062  0.3913 -0.2396
10084TIP3    H154447   3.625   7.511  13.115 -1.1605 -1.0201 -1.0011
10084TIP3    H254448   3.677   7.433  13.234  0.8623  2.8802  0.8575
10085TIP3   OH254449   3.097   4.850  11.207 -0.2679 -0.0157 -0.9442
10085TIP3    H154450   3.022   4.879  11.259  1.7751  0.2982  2.0495
10085TIP3    H254451   3.157   4.810  11.270  1.6640 -1.2370 -3.3592
10086TIP3   OH254452   4.283   3.297  11.634  0.0999 -0.2603  0.2981
10086TIP3    H154453   4.330   3.266  11.712  0.4855  0.9184  0.5543
10086TIP3    H254454   4.335   3.262  11.560  0.2934 -0.5592  0.5713
10087TIP3   OH254455   2.266   3.514  11.124 -0.7567 -0.7789 -0.2837
10087TIP3    H154456   2.239   3.604  11.104  1.0917 -0.6205 -2.4121
10087TIP3    H254457   2.199   3.482  11.185 -2.2128  1.5757 -0.5263
10088TIP3   OH254458   5.672   7.292  12.915  0.2792  0.2807 -0.1058
10088TIP3    H154459   5.712   7.211  12.946 -1.0794 -0.2741  0.2701
10088TIP3    H254460   5.594   7.263  12.868 -0.2663  1.3722  0.1104
10089TIP3   OH254461   1.872   2.125  11.471  0.7196  0.1544 -1.0537
10089TIP3    H154462   1.853   2.218  11.464  1.2394  0.6137  2.2666
10089TIP3    H254463   1.856   2.103  11.563 -0.2534 -3.2674 -1.8781
10090TIP3   OH254464   3.191   3.586  10.715  0.0189 -0.5739 -0.2459
10090TIP3    H154465   3.173   3.604  10.807 -0.0587 -2.1183  0.0704
10090TIP3    H254466   3.139   3.651  10.667 -0.6110 -0.2994  0.7871
10091TIP3   OH254467   0.936   5.314  10.682 -0.0267 -0.1926  0.3685
10091TIP3    H154468   0.907   5.285  10.595  0.7151 -0.4801  0.2030
10091TIP3    H254469   0.987   5.240  10.716  0.8556  0.4330  0.4599
10092TIP3   OH254470   2.104   7.137  10.869 -0.0898 -0.5472 -0.0104
10092TIP3    H154471   2.146   7.162  10.952  0.6636 -0.7294 -0.3221
10092TIP3    H254472   2.058   7.215  10.840  1.9599  0.4285 -0.8197
10093TIP3   OH254473   3.184   5.579  12.300  0.0714  0.1186 -0.0779
10093TIP3    H154474   3.126   5.635  12.248  0.2688 -0.3490 -0.8153
10093TIP3    H254475   3.243   5.539  12.236  2.1521  1.6493  0.7804
10094TIP3   OH254476   1.371   7.488  12.592 -0.2527 -0.4408  0.1669
10094TIP3    H154477   1.440   7.509  12.530  1.5753 -1.5926  1.7038
10094TIP3    H254478   1.290   7.506  12.544  1.0589 -0.3608 -2.1890
10095TIP3   OH254479   7.362   5.996  11.650 -0.1604 -0.2908  0.0220
10095TIP3    H154480   7.405   6.077  11.623 -1.7164  0.5248 -0.1758
10095TIP3    H254481   7.361   6.000  11.746  0.1806 -0.3028  0.0251
10096TIP3   OH254482   6.949   2.265  11.537 -0.4278  0.0150 -0.2577
10096TIP3    H154483   6.947   2.276  11.442  1.3961 -2.2839 -0.6430
10096TIP3    H254484   6.937   2.171  11.551 -0.3550  0.2680  1.7955
10097TIP3   OH254485   0.698   2.817  11.566  0.0186  0.0220 -0.3365
10097TIP3    H154486   0.634   2.823  11.495  0.3349 -2.8704 -0.9870
10097TIP3    H254487   0.644   2.810  11.645 -0.3491  1.4535 -0.4207
10098TIP3   OH254488   0.119   0.532  11.838 -0.4917 -0.0022  0.0638
10098TIP3    H154489   0.201   0.483  11.831  0.2378  1.1430  0.4087
10098TIP3    H254490   0.104   0.567  11.750  0.6194  1.6725  0.4911
10099TIP3   OH254491   1.808   1.981  10.755 -0.2900 -0.0758  0.3569
10099TIP3    H154492   1.819   1.971  10.850 -0.9330 -0.2602  0.4153
10099TIP3    H254493   1.714   1.983  10.742 -0.2339  1.8844 -0.0772
10100TIP3   OH254494   1.456   7.123  12.281 -0.1517  0.0807 -0.2037
10100TIP3    H154495   1.471   7.151  12.191 -2.1781  0.1693 -0.5519
10100TIP3    H254496   1.471   7.202  12.334  2.5651 -0.3230 -0.2232
10101TIP3   OH254497   2.362   1.232  11.372 -0.1779 -0.0404 -0.4675
10101TIP3    H154498   2.454   1.211  11.383 -0.0814  0.6129  0.0120
10101TIP3    H254499   2.321   1.203  11.454 -0.2189  0.6389 -0.2421
10102TIP3   OH254500   2.766   3.693  12.654  0.4580  0.5093 -0.4154
10102TIP3    H154501   2.808   3.609  12.675 -2.0454 -0.2059  2.4599
10102TIP3    H254502   2.680   3.669  12.619 -0.8779  1.7096  1.7622
10103TIP3   OH254503   7.333   2.506  11.477 -0.0168  0.6484  0.0373
10103TIP3    H154504   7.355   2.481  11.387 -0.5347 -2.2745  0.6167
10103TIP3    H254505   7.415   2.541  11.512 -0.0398  2.7569 -1.7664
10104TIP3   OH254506   6.555   7.377  11.193  0.2472  0.0410 -0.5805
10104TIP3    H154507   6.603   7.386  11.111  1.1543 -0.0877 -0.0739
10104TIP3    H254508   6.479   7.434  11.183  0.4352  0.1433 -1.4494
10105TIP3   OH254509   5.309   0.795  12.902 -0.7916  0.2383  0.1282
10105TIP3    H154510   5.324   0.884  12.934 -1.7456 -0.2344  2.0779
10105TIP3    H254511   5.290   0.745  12.981 -0.1374 -1.7478 -0.9143
10106TIP3   OH254512   7.229   5.117  10.432 -0.0620 -0.5362 -0.2197
10106TIP3    H154513   7.318   5.085  10.445 -0.9497 -2.4028  1.8992
10106TIP3    H254514   7.184   5.044  10.390 -0.5934  0.4718 -1.4655
10107TIP3   OH254515   3.803   7.615  12.759  0.3158  0.4652 -0.4042
10107TIP3    H154516   3.727   7.572  12.719 -0.3522  0.7563  0.5078
10107TIP3    H254517   3.807   7.700  12.715  0.2079  0.3898 -0.5645
10108TIP3   OH254518   5.689   2.986  10.891  0.3228 -0.0765 -0.1199
10108TIP3    H154519   5.745   3.048  10.845  2.7416 -0.1421  2.4418
10108TIP3    H254520   5.750   2.922  10.928 -1.5118 -0.6881  2.0859
10109TIP3   OH254521   6.217   4.381  11.790 -0.1305  0.1142 -0.1813
10109TIP3    H154522   6.218   4.475  11.809 -0.5421  0.6757 -2.5278
10109TIP3    H254523   6.188   4.376  11.698 -1.7611 -2.4053  0.3663
10110TIP3   OH254524   6.288   2.891  11.724 -0.1281 -0.2112 -0.6611
10110TIP3    H154525   6.331   2.926  11.646 -0.6081  0.2564 -0.7182
10110TIP3    H254526   6.194   2.898  11.706 -0.2431 -0.8026 -0.3511
10111TIP3   OH254527   6.512   5.516  11.126  0.0031  0.3984  0.0506
10111TIP3    H154528   6.483   5.426  11.112 -1.5422  0.5470  1.8627
10111TIP3    H254529   6.450   5.569  11.076 -0.3325  0.5356  0.6057
10112TIP3   OH254530   7.367   3.194  11.441  0.6813 -0.0935 -0.0235
10112TIP3    H154531   7.282   3.231  11.419  1.0994  0.5689 -0.5660
10112TIP3    H254532   7.405   3.168  11.357  0.4644 -1.6311  0.3338
10113TIP3   OH254533   1.721   1.144  12.132  1.2168 -0.3756 -0.3099
10113TIP3    H154534   1.742   1.201  12.206  2.7139  0.6615 -1.4625
10113TIP3    H254535   1.786   1.074  12.137  0.4422 -1.0787  0.1327
10114TIP3   OH254536   4.679   7.482  12.345 -0.1351 -0.4090 -0.2891
10114TIP3    H154537   4.755   7.425  12.355 -0.3302 -0.4172  1.4199
10114TIP3    H254538   4.710   7.569  12.368 -0.7817 -0.5349  1.1947
10115TIP3   OH254539   6.207   3.091  10.809  0.5743  0.2227  1.1138
10115TIP3    H154540   6.224   3.173  10.764  2.2569 -0.3652  0.6006
10115TIP3    H254541   6.225   3.023  10.744 -1.3957 -0.5882  1.3255
10116TIP3   OH254542   7.601   3.677  12.257  0.3077 -0.2802 -0.4156
10116TIP3    H154543   7.661   3.642  12.323 -1.0129 -0.0417  0.9754
10116TIP3    H254544   7.541   3.733  12.307 -0.5178  0.1911 -1.8884
10117TIP3   OH254545   3.512   1.553  12.846 -0.1174  0.1303 -0.2945
10117TIP3    H154546   3.434   1.553  12.903 -0.8476 -1.0419 -1.2382
10117TIP3    H254547   3.539   1.461  12.843  0.0664  0.2158 -1.6126
10118TIP3   OH254548   5.324   7.474  10.547  0.0746 -0.2844  0.0864
10118TIP3    H154549   5.312   7.565  10.576  2.1714  0.0348  0.0679
10118TIP3    H254550   5.391   7.480  10.478  0.0251 -1.8238 -0.1148
10119TIP3   OH254551   5.312   4.751  12.489 -0.2606  0.3429  0.3427
10119TIP3    H154552   5.268   4.799  12.559  0.4543 -0.0090  1.0500
10119TIP3    H254553   5.265   4.667  12.485 -0.1019  0.2374  0.6281
10120TIP3   OH254554   6.338   1.754  11.111 -0.1372  0.4192 -0.0090
10120TIP3    H154555   6.371   1.842  11.093 -0.0108  0.4473  0.3563
10120TIP3    H254556   6.291   1.763  11.194 -1.3316  0.4527 -0.6627
10121TIP3   OH254557   2.686   3.722  10.578  0.6294 -0.1779  0.1627
10121TIP3    H154558   2.671   3.760  10.491  2.5878  1.8848  0.6429
10121TIP3    H254559   2.651   3.787  10.639  0.0044 -1.2456  0.9813
10122TIP3   OH254560   0.822   5.649  12.275 -0.4153 -0.3583  0.0239
10122TIP3    H154561   0.819   5.744  12.280  0.9116 -0.3349  0.7715
10122TIP3    H254562   0.743   5.625  12.226 -0.6185  1.1306 -0.4237
10123TIP3   OH254563   1.136   3.863  10.934  0.7255  0.3443  0.2187
10123TIP3    H154564   1.223   3.896  10.913  0.5346  0.7295  0.0202
10123TIP3    H254565   1.139   3.846  11.028  0.7971  1.0380  0.3469
10124TIP3   OH254566   6.736   2.994  11.063 -0.3598  0.3228 -0.3075
10124TIP3    H154567   6.824   2.982  11.025 -0.7200 -1.1780 -0.7170
10124TIP3    H254568   6.734   2.935  11.138 -1.5296 -0.8375 -1.2081
10125TIP3   OH254569   2.097   5.526  12.319  0.3894 -0.2232  0.0926
10125TIP3    H154570   2.068   5.615  12.340  0.5674  0.0522 -0.7459
10125TIP3    H254571   2.069   5.473  12.393  3.0669  1.0446  2.2249
10126TIP3   OH254572   4.131   6.651  11.196 -0.0064  0.5716 -0.1904
10126TIP3    H154573   4.063   6.692  11.143 -0.3965  0.1670 -0.0110
10126TIP3    H254574   4.164   6.721  11.253 -1.7055  0.3160  1.1761
10127TIP3   OH254575   0.871   2.494  12.812 -0.1690  0.1430 -0.3429
10127TIP3    H154576   0.787   2.485  12.856 -0.0670 -2.2818 -0.5277
10127TIP3    H254577   0.931   2.522  12.881 -0.8046  0.3505  0.1343
10128TIP3   OH254578   2.646   4.831  12.926  0.1927 -0.6377 -0.0189
10128TIP3    H154579   2.664   4.780  13.006  1.2776  0.1289  0.2336
10128TIP3    H254580   2.639   4.921  12.956 -1.3896 -0.5647 -0.5236
10129TIP3   OH254581   4.501   2.414  10.478 -0.4951 -0.4087 -0.5441
10129TIP3    H154582   4.439   2.471  10.433 -0.2575  0.3748  0.1014
10129TIP3    H254583   4.587   2.448  10.453 -0.3554  0.8823  1.4868
10130TIP3   OH254584   2.048   2.670  12.370 -0.0912  0.4052  0.6474
10130TIP3    H154585   2.095   2.587  12.373 -0.5253  0.0355 -1.1862
10130TIP3    H254586   2.116   2.737  12.376  0.8252 -0.1186 -2.3329
10131TIP3   OH254587   7.019   6.856  12.523  0.5710 -0.0727 -0.1664
10131TIP3    H154588   6.982   6.944  12.531  0.5037 -0.1381  0.2373
10131TIP3    H254589   7.114   6.870  12.523  0.6157 -0.1455  1.8358
10132TIP3   OH254590   5.125   1.615  12.560 -0.1356 -0.2437 -0.0551
10132TIP3    H154591   5.170   1.690  12.601  0.6352 -0.7498  0.0347
10132TIP3    H254592   5.136   1.544  12.623  0.4434 -0.8362 -0.8091
10133TIP3   OH254593   7.603   5.630  12.547  0.1307  0.1485 -0.2366
10133TIP3    H154594   7.645   5.648  12.463  0.4012  1.6655  0.1958
10133TIP3    H254595   7.664   5.570  12.592  1.2315  1.3024 -0.1378
10134TIP3   OH254596   6.891   5.354  11.447  0.4141  0.2634 -0.5089
10134TIP3    H154597   6.956   5.350  11.377 -1.2206 -0.6690 -2.0603
10134TIP3    H254598   6.810   5.322  11.407 -1.4354  2.8277  0.8527
10135TIP3   OH254599   5.265   5.747  13.077  0.3152  0.1355  0.2637
10135TIP3    H154600   5.207   5.768  13.150  0.9552  1.6687  0.3770
10135TIP3    H254601   5.248   5.655  13.058 -0.3006 -0.1262  1.9465
10136TIP3   OH254602   0.559   1.264  12.684  0.4073  0.1609  0.0622
10136TIP3    H154603   0.577   1.178  12.721  0.9656 -0.9784 -2.6171
10136TIP3    H254604   0.500   1.247  12.610 -0.0635  2.1820 -0.0994
10137TIP3   OH254605   0.615   1.395  12.345  0.3133  0.1360 -0.5171
10137TIP3    H154606   0.581   1.318  12.391  0.6463  0.2742 -0.0320
10137TIP3    H254607   0.559   1.403  12.268 -0.1443 -0.1966 -0.2278
10138TIP3   OH254608   6.531   0.405  11.199 -0.0942 -0.4369 -0.0329
10138TIP3    H154609   6.584   0.355  11.262  0.5003 -0.9733 -0.9473
10138TIP3    H254610   6.514   0.488  11.244  0.1680 -0.8701  0.9106
10139TIP3   OH254611   7.393   7.493  10.584 -0.6688 -0.0957  0.0402
10139TIP3    H154612   7.465   7.556  10.587 -1.9940  1.4355  2.0444
10139TIP3    H254613   7.436   7.407  10.584  1.1568  0.7689  0.7838
10140TIP3   OH254614   4.301   5.081  12.136  0.6523 -0.7032  0.0163
10140TIP3    H154615   4.222   5.027  12.123 -0.3767 -0.0032  2.6616
10140TIP3    H254616   4.348   5.036  12.207  0.0418  1.4648  1.9070
10141TIP3   OH254617   1.737   6.019  12.306  0.0732 -0.3920  0.0207
10141TIP3    H154618   1.729   6.063  12.391  0.2974 -0.7573  0.2306
10141TIP3    H254619   1.675   5.947  12.310 -0.1249 -0.2382 -0.2384
10142TIP3   OH254620   6.081   2.761  12.767 -0.7253 -0.1998  0.2711
10142TIP3    H154621   6.097   2.667  12.776  1.9645  0.1024 -0.5051
10142TIP3    H254622   6.124   2.786  12.686  0.4725  2.0352  1.4771
10143TIP3   OH254623   2.620   3.102  12.089 -0.5565  0.3250 -0.0938
10143TIP3    H154624   2.670   3.159  12.030  0.3852 -0.5200 -0.1441
10143TIP3    H254625   2.529   3.128  12.076 -0.0804  2.5938  0.7278
10144TIP3   OH254626   2.709   2.031  12.476  0.0076  0.1426 -0.1720
10144TIP3    H154627   2.752   2.082  12.407  1.3127  0.4278  0.8209
10144TIP3    H254628   2.621   2.013  12.441  0.0818  1.6396 -1.2353
10145TIP3   OH254629   0.286   2.610  12.439 -0.2882  0.9120  1.1610
10145TIP3    H154630   0.354   2.674  12.417 -0.4975  0.4555 -1.0296
10145TIP3    H254631   0.212   2.632  12.384 -1.0671 -0.0595  1.7708
10146TIP3   OH254632   3.588   6.105  10.806  0.2320  0.2239 -0.1899
10146TIP3    H154633   3.572   6.187  10.759  0.8877 -0.7384 -2.1888
10146TIP3    H254634   3.680   6.085  10.790 -0.2684 -1.6548 -1.0333
10147TIP3   OH254635   0.839   4.894  11.282  0.1481  0.4347  0.2780
10147TIP3    H154636   0.877   4.936  11.206 -1.5401 -0.2748 -1.0300
10147TIP3    H254637   0.848   4.958  11.353 -0.9158  2.3560 -1.2426
10148TIP3   OH254638   1.905   6.319  11.148 -0.2660  0.0639  0.2959
10148TIP3    H154639   1.815   6.343  11.169 -1.5323 -2.4422 -1.7020
10148TIP3    H254640   1.934   6.386  11.087 -0.8557  0.7347  0.7344
10149TIP3   OH254641   4.699   7.549  11.244 -0.0815  0.1063  0.6133
10149TIP3    H154642   4.697   7.496  11.324  0.3095  0.7988  1.0917
10149TIP3    H254643   4.768   7.510  11.190  0.7787  0.6074  1.3170
10150TIP3   OH254644   5.666   5.829  11.754 -0.1538  0.2442 -0.2732
10150TIP3    H154645   5.757   5.818  11.782 -0.2547 -1.3671 -0.4811
10150TIP3    H254646   5.655   5.765  11.684 -0.8957  1.8105 -1.6630
10151TIP3   OH254647   6.336   0.056  12.174 -0.4653 -0.3755 -0.4158
10151TIP3    H154648   6.288   0.013  12.245 -0.8466  0.5708 -0.0890
10151TIP3    H254649   6.351  -0.014  12.110 -1.2532 -0.9495  0.0097
10152TIP3   OH254650   0.976   0.918  11.589 -0.5089  0.2369  0.1442
10152TIP3    H154651   0.977   0.834  11.635  0.2771  1.4269  2.4145
10152TIP3    H254652   1.032   0.903  11.512 -1.1165 -1.5440 -0.0131
10153TIP3   OH254653   3.525   7.081  10.343  0.2511 -0.5705 -0.1688
10153TIP3    H154654   3.598   7.026  10.315 -1.1430 -2.9686  0.5319
10153TIP3    H254655   3.502   7.046  10.429 -0.8442  1.0445  0.2290
10154TIP3   OH254656   1.855   2.632  11.735  0.4650  0.7945 -0.1725
10154TIP3    H154657   1.885   2.572  11.804  0.5947  2.6459  1.4596
10154TIP3    H254658   1.922   2.626  11.667  0.1312 -1.3667 -0.3780
10155TIP3   OH254659   5.941   3.116  11.028 -0.4883 -0.1616  0.1568
10155TIP3    H154660   5.965   3.201  11.065  1.6322 -0.1181 -1.1587
10155TIP3    H254661   5.920   3.134  10.937 -2.1153 -0.7721  0.3887
10156TIP3   OH254662   5.011   6.183  11.367  0.2055 -0.2069  0.4066
10156TIP3    H154663   5.045   6.205  11.280  1.7559 -1.1595  0.7344
10156TIP3    H254664   5.060   6.241  11.426  0.0570 -0.4393  0.7568
10157TIP3   OH254665   3.467   6.954  10.614 -0.9756 -0.1023  0.0715
10157TIP3    H154666   3.388   6.946  10.666 -1.0093 -0.6423 -0.0597
10157TIP3    H254667   3.464   6.880  10.553 -0.4142 -0.0838  0.0130
10158TIP3   OH254668   0.570   2.629  10.983  0.3406  0.4257  0.4532
10158TIP3    H154669   0.597   2.677  11.061 -1.3671 -0.6920  1.8044
10158TIP3    H254670   0.519   2.555  11.016 -0.5148 -0.0461 -1.7172
10159TIP3   OH254671   0.166   3.869  10.625  0.1011  0.1582 -0.3712
10159TIP3    H154672   0.096   3.827  10.675  0.7332 -1.6330 -0.9356
10159TIP3    H254673   0.124   3.945  10.584 -1.1250 -0.0212  0.5131
10160TIP3   OH254674   5.814   3.465  10.190 -0.2090 -0.6971 -0.3828
10160TIP3    H154675   5.794   3.555  10.163  1.1077 -0.7394 -1.6066
10160TIP3    H254676   5.731   3.418  10.178 -1.1186  0.4757  0.9691
10161TIP3   OH254677   5.369   2.272  11.744 -0.3972 -0.6003  0.0682
10161TIP3    H154678   5.452   2.296  11.703 -0.4450 -3.1245 -1.7299
10161TIP3    H254679   5.316   2.351  11.738  1.6713  0.9500  0.8790
10162TIP3   OH254680   3.717   0.220  11.640  0.3196  0.1641  0.4045
10162TIP3    H154681   3.731   0.255  11.552 -1.6653 -0.5926 -0.2925
10162TIP3    H254682   3.621   0.218  11.650  0.4566 -1.1506  1.9922
10163TIP3   OH254683   0.554   3.327  12.880  0.5964 -0.4235  0.5955
10163TIP3    H154684   0.642   3.364  12.881  0.5058 -0.2032  0.5002
10163TIP3    H254685   0.547   3.284  12.794  0.9605 -1.3031  0.9870
10164TIP3   OH254686   2.599   3.799  12.876  0.7391 -0.3696 -0.0552
10164TIP3    H154687   2.622   3.709  12.853  1.7388 -0.6193  1.7964
10164TIP3    H254688   2.571   3.795  12.967  0.0146  1.0933 -0.1742
10165TIP3   OH254689   7.056   0.473  12.793  0.4970 -0.4109  0.1817
10165TIP3    H154690   7.004   0.408  12.841 -0.9983  0.7725  0.2311
10165TIP3    H254691   7.034   0.556  12.834  1.0093  0.3424 -1.0294
10166TIP3   OH254692   2.529   0.101  10.976 -0.1611  0.2410 -0.2955
10166TIP3    H154693   2.576   0.119  11.058 -1.7363  0.3867  0.5982
10166TIP3    H254694   2.508   0.188  10.941  0.0134  0.1702 -0.5870
10167TIP3   OH254695   0.643   1.989  12.444  0.1424 -0.0429  0.5217
10167TIP3    H154696   0.574   1.925  12.428  0.0209  0.4213 -0.9516
10167TIP3    H254697   0.717   1.938  12.478 -0.5420 -0.6962  1.0491
10168TIP3   OH254698   6.760   4.213  11.461  0.9202 -0.1276 -0.4659
10168TIP3    H154699   6.715   4.149  11.406 -1.3866  0.5249  0.5479
10168TIP3    H254700   6.812   4.160  11.522  0.3893 -0.9765 -0.7389
10169TIP3   OH254701   1.511   5.396  12.695 -0.0124  0.0941  0.2003
10169TIP3    H154702   1.480   5.336  12.627 -1.4428  0.0200  0.8750
10169TIP3    H254703   1.513   5.342  12.775 -0.2985  0.6692  0.6024
10170TIP3   OH254704   4.089   2.792  10.509  0.0419 -0.0203 -0.1120
10170TIP3    H154705   4.012   2.762  10.559  0.3709 -0.0536  0.3777
10170TIP3    H254706   4.097   2.885  10.530 -1.7518  0.8425 -2.6285
10171TIP3   OH254707   0.211   1.004  11.375 -0.7466  0.1865  0.6312
10171TIP3    H154708   0.149   1.047  11.435  0.0665  0.9626  0.9348
10171TIP3    H254709   0.229   0.920  11.417 -1.1003  0.2279  0.8747
10172TIP3   OH254710   3.684   5.689  12.335  0.4685  0.0012 -0.1456
10172TIP3    H154711   3.654   5.775  12.363  1.1495  0.2153 -0.0764
10172TIP3    H254712   3.646   5.628  12.399 -0.4051  0.1925 -0.4685
10173TIP3   OH254713   6.370   0.552  11.618  0.0416  0.2209 -0.5479
10173TIP3    H154714   6.313   0.493  11.667 -0.4688  1.1411 -0.0050
10173TIP3    H254715   6.428   0.589  11.683 -0.6042  1.4128 -0.6151
10174TIP3   OH254716   4.114   5.628  10.965 -0.7435  0.0046  0.0853
10174TIP3    H154717   4.170   5.684  11.018 -1.2573 -0.1025  0.7526
10174TIP3    H254718   4.113   5.544  11.011 -1.1466 -0.1087 -0.1199
10175TIP3   OH254719   5.649   5.019  12.073  0.0380  0.1088  0.0444
10175TIP3    H154720   5.685   5.106  12.092  1.7082 -0.7195  0.8734
10175TIP3    H254721   5.582   5.006  12.140  1.6894 -0.3028  1.7269
10176TIP3   OH254722   3.809   2.129  11.159 -0.0088 -0.3324 -0.0561
10176TIP3    H154723   3.790   2.103  11.249  0.0310 -1.6365 -0.4108
10176TIP3    H254724   3.726   2.117  11.113  0.3617 -1.1612 -0.5197
10177TIP3   OH254725   3.639   3.812  10.819  0.1764 -0.0854  0.8711
10177TIP3    H154726   3.612   3.730  10.778  1.5910  0.2443 -0.8752
10177TIP3    H254727   3.558   3.852  10.851 -0.6308 -1.7207  0.9425
10178TIP3   OH254728   1.039   5.516  10.280  0.2743  0.3953 -1.2141
10178TIP3    H154729   1.045   5.600  10.235 -0.6519  0.5368 -1.0879
10178TIP3    H254730   1.011   5.538  10.369 -0.4673 -0.0774 -1.3211
10179TIP3   OH254731   0.499   6.392  11.533 -0.5461 -0.1705  0.1668
10179TIP3    H154732   0.452   6.383  11.616 -0.7763 -0.1922  0.0355
10179TIP3    H254733   0.434   6.427  11.472 -0.0985  0.9169  0.2702
10180TIP3   OH254734   5.225   4.238  10.689 -0.3365 -0.4202 -0.5986
10180TIP3    H154735   5.318   4.259  10.694 -0.5817  0.4727  1.3697
10180TIP3    H254736   5.220   4.146  10.715 -0.0128 -0.4297 -0.5664
10181TIP3   OH254737   0.752   5.622  12.711  0.0034 -0.0862  0.8953
10181TIP3    H154738   0.739   5.712  12.681 -1.8922 -0.8916 -0.9553
10181TIP3    H254739   0.664   5.591  12.732  0.5031 -1.8105  0.5663
10182TIP3   OH254740   2.478   7.092  11.060  0.3445 -0.0733 -0.0298
10182TIP3    H154741   2.438   7.175  11.036  1.4106  0.2182 -0.8869
10182TIP3    H254742   2.563   7.092  11.015  0.1147 -1.8836 -0.5544
10183TIP3   OH254743   3.279   4.971  11.809  0.0175  0.1868  0.8216
10183TIP3    H154744   3.196   5.013  11.834 -0.5452  0.2208 -0.9535
10183TIP3    H254745   3.341   5.043  11.802 -0.0601  0.2890  1.1740
10184TIP3   OH254746   0.179   2.963  11.159  0.4830  0.1669 -0.2922
10184TIP3    H154747   0.238   2.890  11.139  0.8314  0.9783 -2.4812
10184TIP3    H254748   0.221   3.009  11.231  0.5374 -1.4351  0.7598
10185TIP3   OH254749   2.854   3.086  12.707 -0.2304  0.7071 -0.1804
10185TIP3    H154750   2.868   2.992  12.721 -2.0017  0.3409 -0.6606
10185TIP3    H254751   2.895   3.104  12.623 -1.7954 -0.1653 -1.1894
10186TIP3   OH254752   4.591   7.211  10.675 -0.1611  0.4881 -0.3071
10186TIP3    H154753   4.585   7.301  10.643  0.0861  0.2264 -1.1090
10186TIP3    H254754   4.595   7.158  10.596 -1.4422 -0.3245  0.1324
10187TIP3   OH254755   3.234   0.907  11.083  0.0363 -0.0659  0.5932
10187TIP3    H154756   3.299   0.965  11.043 -0.1016 -1.1335 -1.2990
10187TIP3    H254757   3.152   0.956  11.079 -0.0494 -0.2955 -0.8473
10188TIP3   OH254758   5.793   0.891  11.349  0.0048  0.4018  0.0989
10188TIP3    H154759   5.805   0.959  11.282  0.5444  0.2534  0.0380
10188TIP3    H254760   5.843   0.816  11.316  3.1485  1.3622  2.1829
10189TIP3   OH254761   5.585   5.348  10.500  0.2744 -0.3248  0.1083
10189TIP3    H154762   5.615   5.293  10.573 -0.2211 -1.5603 -0.5812
10189TIP3    H254763   5.572   5.434  10.539  0.8854 -0.7349  1.2799
10190TIP3   OH254764   1.620   0.652  13.363  0.0987 -0.3099 -0.7125
10190TIP3    H154765   1.590   0.568  13.328  0.3594 -0.1948 -1.2335
10190TIP3    H254766   1.554   0.715  13.332 -0.8451 -0.5064  0.8259
10191TIP3   OH254767   5.601   4.941  10.403  0.5860  0.1296  0.4469
10191TIP3    H154768   5.686   4.986  10.400  0.6008  0.0809 -0.2364
10191TIP3    H254769   5.553   4.977  10.328 -0.4825  1.0747  1.5387
10192TIP3   OH254770   6.933   2.598  11.577 -0.0601  0.3839 -0.2531
10192TIP3    H154771   6.862   2.535  11.587  1.2912 -0.8181  3.2838
10192TIP3    H254772   6.935   2.645  11.661 -0.7175  5.0280 -2.5138
10193TIP3   OH254773   2.181   0.726  13.630 -0.7061  0.2184  0.3974
10193TIP3    H154774   2.244   0.780  13.581 -1.5456  0.4128 -0.4762
10193TIP3    H254775   2.102   0.780  13.635 -1.1125 -0.3950  0.6983
10194TIP3   OH254776   3.177   6.856  12.122  0.4859 -0.1557 -0.1150
10194TIP3    H154777   3.181   6.766  12.091  0.7672 -0.4692  0.8097
10194TIP3    H254778   3.171   6.849  12.217 -1.4021  0.7599 -0.1293
10195TIP3   OH254779   1.887   0.443  11.278  0.1216  0.5009  0.5859
10195TIP3    H154780   1.926   0.367  11.322 -0.4293 -0.8952 -1.2031
10195TIP3    H254781   1.906   0.428  11.185 -1.2891  1.8112  0.0621
10196TIP3   OH254782   0.436   6.940  11.641 -0.1944 -0.0518 -0.2823
10196TIP3    H154783   0.406   6.863  11.689  1.8018 -0.6685  0.0583
10196TIP3    H254784   0.436   6.913  11.550 -0.4229 -0.1224 -0.2621
10197TIP3   OH254785   7.515   4.196  12.100  0.0380 -0.1201  0.1792
10197TIP3    H154786   7.537   4.254  12.172  0.1860 -0.3891  0.3542
10197TIP3    H254787   7.487   4.254  12.029  0.5911  0.1809  0.2066
10198TIP3   OH254788   2.978   0.967  11.819  0.0059 -0.0572 -0.1634
10198TIP3    H154789   3.037   0.898  11.850 -0.1566  0.2416  0.8479
10198TIP3    H254790   2.925   0.989  11.896 -1.7771 -0.6736 -1.1749
10199TIP3   OH254791   2.288   5.109  12.906 -0.8046  0.0667 -0.4129
10199TIP3    H154792   2.224   5.048  12.867 -0.1283 -1.2558  0.4517
10199TIP3    H254793   2.334   5.056  12.971 -1.1389  1.8856  1.3935
10200TIP3   OH254794   4.512   7.148  11.230  0.2540  0.0671  0.9121
10200TIP3    H154795   4.544   7.059  11.214  0.6819  0.2708  0.6011
10200TIP3    H254796   4.508   7.188  11.143  1.0880  0.6882  1.1468
10201TIP3   OH254797   0.340   4.829  13.384 -0.4752  0.0787 -0.2661
10201TIP3    H154798   0.432   4.849  13.395 -0.6710  0.7032  0.3015
10201TIP3    H254799   0.294   4.907  13.415 -1.2784 -1.2470  2.1671
10202TIP3   OH254800   0.059   3.811  11.800 -0.4403  0.3478  0.4300
10202TIP3    H154801  -0.015   3.752  11.789 -1.9339  2.3555 -0.9805
10202TIP3    H254802   0.076   3.812  11.894 -0.9875 -1.5320  0.5893
10203TIP3   OH254803   6.864   4.324  10.431 -0.5607 -0.2125 -0.3918
10203TIP3    H154804   6.937   4.382  10.408  0.3140 -1.5238 -1.0705
10203TIP3    H254805   6.786   4.379  10.423  0.3240  1.1696  0.1605
10204TIP3   OH254806   1.537   0.305  13.478  0.5914 -0.1363 -0.0053
10204TIP3    H154807   1.514   0.220  13.516 -1.9031  0.4731 -0.0074
10204TIP3    H254808   1.480   0.314  13.402  1.0410  1.4101 -0.1998
10205TIP3   OH254809   5.375   7.056  11.055  0.0607 -0.5408  0.1424
10205TIP3    H154810   5.313   7.128  11.067  0.0977 -0.8040  2.2974
10205TIP3    H254811   5.457   7.099  11.033 -0.5447 -0.1294 -1.4964
10206TIP3   OH254812   4.740   6.537  12.354 -0.1449  0.3616 -1.0187
10206TIP3    H154813   4.662   6.528  12.408  0.5969  0.2494  0.0740
10206TIP3    H254814   4.777   6.622  12.380  2.2285 -1.2549  1.4752
10207TIP3   OH254815   0.903   5.479  12.515 -0.0210  0.1705 -0.3553
10207TIP3    H154816   0.857   5.535  12.577 -0.0056  0.4246 -0.5726
10207TIP3    H254817   0.886   5.519  12.430  0.6500  0.2905 -0.4339
10208TIP3   OH254818   1.563   4.170  10.506  0.3716 -0.3668  0.2507
10208TIP3    H154819   1.538   4.164  10.414  1.2767 -0.4501  0.0083
10208TIP3    H254820   1.538   4.259  10.532  0.5020 -0.2053 -0.1839
10209TIP3   OH254821   4.677   2.255  11.069 -0.4969  0.2165 -0.9957
10209TIP3    H154822   4.699   2.219  11.155 -1.4559 -1.0904 -1.2707
10209TIP3    H254823   4.759   2.254  11.020  0.0210  0.8187 -0.1754
10210TIP3   OH254824   3.443   3.472  10.981 -0.1316 -0.5074 -0.2066
10210TIP3    H154825   3.394   3.482  10.899  1.2314  0.4445 -0.9311
10210TIP3    H254826   3.511   3.408  10.960 -0.2897 -0.9034  0.4491
10211TIP3   OH254827   1.619   4.771  12.654  0.3373  0.4044 -0.4351
10211TIP3    H154828   1.602   4.742  12.564  1.3465  0.5485 -0.6821
10211TIP3    H254829   1.712   4.753  12.668 -0.1161 -1.0284  1.1020
10212TIP3   OH254830   0.846   3.464  10.738 -0.1849  0.3063 -0.0382
10212TIP3    H154831   0.831   3.476  10.644  0.0206  0.3106 -0.0718
10212TIP3    H254832   0.932   3.502  10.753  0.0600 -0.2593  0.0349
10213TIP3   OH254833   0.392   6.041  11.345 -0.5168 -0.5099 -0.1858
10213TIP3    H154834   0.329   6.009  11.409 -0.9475 -0.2345 -0.4690
10213TIP3    H254835   0.475   6.046  11.393 -0.7446 -0.7118  0.2297
10214TIP3   OH254836   7.453   3.490  11.011 -0.0884 -0.2012 -0.1424
10214TIP3    H154837   7.466   3.537  10.929 -0.9549 -1.6385 -1.1450
10214TIP3    H254838   7.539   3.492  11.053  0.0752  1.6276 -0.4473
10215TIP3   OH254839   5.305   6.048  12.926 -0.3324 -0.3653  0.4522
10215TIP3    H154840   5.258   6.097  12.993 -0.2962 -0.9887  0.9353
10215TIP3    H254841   5.389   6.026  12.967  1.3560  2.5312 -1.0533
10216TIP3   OH254842   4.303   1.501  11.985  0.8373 -0.4818  0.6491
10216TIP3    H154843   4.230   1.441  11.970  0.1672  0.1527  1.2809
10216TIP3    H254844   4.266   1.570  12.040  1.9036 -0.1158  0.9255
10217TIP3   OH254845   6.706   6.493  11.845  0.3286 -0.0657  0.2895
10217TIP3    H154846   6.722   6.507  11.752 -0.0822  0.4577  0.2869
10217TIP3    H254847   6.757   6.415  11.868  1.9352  0.8809  0.0607
10218TIP3   OH254848   6.143   5.963  11.269  0.2306  0.8745 -0.3016
10218TIP3    H154849   6.190   5.972  11.186 -1.3142 -0.3163 -1.3691
10218TIP3    H254850   6.100   6.047  11.282  3.5080  2.4938  1.3737
10219TIP3   OH254851   7.544   5.129  13.182 -0.2145 -0.5507  0.4147
10219TIP3    H154852   7.487   5.199  13.214 -0.5085 -0.6936  0.2098
10219TIP3    H254853   7.504   5.049  13.215 -2.2666 -0.9859 -2.6709
10220TIP3   OH254854   0.658   0.668  11.853  0.1676  0.0217 -0.2786
10220TIP3    H154855   0.702   0.664  11.938  0.4255 -1.9734 -0.4619
10220TIP3    H254856   0.729   0.673  11.790  0.4141 -4.3313 -0.6485
10221TIP3   OH254857   6.586   7.312  10.819  0.0550 -0.0063 -0.3004
10221TIP3    H154858   6.566   7.400  10.849  0.4957  0.3981 -1.1654
10221TIP3    H254859   6.646   7.324  10.746 -0.6887 -0.9822 -1.1076
10222TIP3   OH254860   0.996   0.681  13.527 -0.1845 -0.4797  0.8332
10222TIP3    H154861   1.067   0.648  13.473 -1.2540 -1.2697 -0.1218
10222TIP3    H254862   1.036   0.697  13.613  1.4567  0.4873 -0.0753
10223TIP3   OH254863   2.380   6.704  11.833 -0.3042 -0.2548 -1.0017
10223TIP3    H154864   2.378   6.786  11.783 -0.0495  0.2482 -0.2020
10223TIP3    H254865   2.327   6.643  11.782 -0.8429  0.5337 -1.3908
10224TIP3   OH254866   3.337   2.811  12.252 -0.1481 -0.3513 -0.5747
10224TIP3    H154867   3.302   2.775  12.334  1.2071 -1.1479 -0.3053
10224TIP3    H254868   3.358   2.734  12.199  0.4343  0.1116 -1.0333
10225TIP3   OH254869   6.561   1.504  11.316 -0.5646  0.0659  0.6551
10225TIP3    H154870   6.574   1.419  11.359  0.9058 -0.4025 -0.6019
10225TIP3    H254871   6.524   1.483  11.231  1.1750  0.5003 -0.2667
10226TIP3   OH254872   3.032   3.749  11.595  0.0268  0.1610  0.0580
10226TIP3    H154873   3.079   3.822  11.636  1.8708 -0.2950 -1.1566
10226TIP3    H254874   3.098   3.704  11.542 -1.6486 -0.8714 -1.2560
10227TIP3   OH254875   6.976   6.874  13.328  0.2561  0.0991  0.2019
10227TIP3    H154876   7.005   6.789  13.361 -1.8746 -0.7094  0.1309
10227TIP3    H254877   6.933   6.915  13.403  0.8999  0.9657  0.1147
10228TIP3   OH254878   4.133   0.304  12.300 -0.0436  0.1235 -0.1470
10228TIP3    H154879   4.182   0.306  12.218 -0.7257 -0.9051 -0.6024
10228TIP3    H254880   4.139   0.394  12.334 -1.7807  1.2530 -2.5662
10229TIP3   OH254881   7.528   3.724  12.662  0.0558 -0.2557  0.0179
10229TIP3    H154882   7.461   3.689  12.603  2.6704 -0.5197 -3.0731
10229TIP3    H254883   7.567   3.646  12.702 -0.1218 -0.2207  0.2661
10230TIP3   OH254884   2.111   1.545  11.421  0.4954 -0.1487  0.0800
10230TIP3    H154885   2.080   1.629  11.454  1.6160  0.8888 -1.3539
10230TIP3    H254886   2.045   1.519  11.357 -0.8605 -1.3781  1.8983
10231TIP3   OH254887   6.817   6.060  11.425 -0.2347 -0.5299  0.1532
10231TIP3    H154888   6.882   6.002  11.385 -1.5017 -1.0217 -1.2850
10231TIP3    H254889   6.863   6.099  11.500  0.7540 -3.0995  0.9933
10232TIP3   OH254890   2.579   5.862  13.273  0.0380 -0.0815  0.0374
10232TIP3    H154891   2.551   5.867  13.364 -1.1958  0.5500 -0.3430
10232TIP3    H254892   2.670   5.889  13.273  0.0415 -0.0779  1.0809
10233TIP3   OH254893   2.496   3.540  11.954  0.0904 -0.1133  0.1798
10233TIP3    H154894   2.406   3.573  11.961 -0.3328 -0.9807 -0.9637
10233TIP3    H254895   2.547   3.616  11.926 -0.5968 -0.0195 -0.8738
10234TIP3   OH254896   3.246   5.960  11.866  0.1060 -0.4331 -0.4906
10234TIP3    H154897   3.228   5.870  11.893 -1.4997  0.1013  0.3833
10234TIP3    H254898   3.294   5.951  11.784 -0.1667 -2.0928 -0.5117
10235TIP3   OH254899   4.759   3.865  10.640 -0.1999 -0.2225  0.1627
10235TIP3    H154900   4.818   3.803  10.683 -0.3472 -1.1701 -0.9688
10235TIP3    H254901   4.724   3.817  10.565 -1.5947  0.6893  0.2032
10236TIP3   OH254902   3.478   4.595  12.491  0.1639 -0.1742  0.0471
10236TIP3    H154903   3.509   4.542  12.565  0.5037  0.0385  0.0574
10236TIP3    H254904   3.390   4.562  12.474  0.6602 -1.2888 -0.4526
10237TIP3   OH254905   0.705   4.156  12.042  0.0158  0.0506 -0.2214
10237TIP3    H154906   0.644   4.195  12.103 -0.5202  0.0271 -0.7320
10237TIP3    H254907   0.751   4.230  12.002 -0.1820  0.1008 -0.3536
10238TIP3   OH254908   3.809   0.169  12.039  0.2868 -0.0173 -0.3310
10238TIP3    H154909   3.753   0.104  11.997  1.1360  0.1500 -1.7515
10238TIP3    H254910   3.873   0.118  12.089 -1.4187 -0.2166  1.8130
10239TIP3   OH254911   7.670   7.398  10.889 -0.1106  0.2492 -0.0104
10239TIP3    H154912   7.627   7.451  10.956 -2.7077  1.0956 -2.1723
10239TIP3    H254913   7.728   7.459  10.844  1.1780 -0.1784  1.0063
10240TIP3   OH254914   5.612   5.517  10.268 -0.2194  0.7252  0.4053
10240TIP3    H154915   5.594   5.490  10.358  0.4298 -1.3454 -0.0369
10240TIP3    H254916   5.670   5.449  10.234 -1.9347  0.4088 -2.1689
10241TIP3   OH254917   5.251   0.183  10.739 -0.1516  0.3681  0.4264
10241TIP3    H154918   5.189   0.167  10.667 -1.0186 -0.4052  1.3157
10241TIP3    H254919   5.222   0.125  10.809 -1.5000  3.4848  2.6842
10242TIP3   OH254920   5.816   5.745  11.381  0.3302  0.0905 -0.3774
10242TIP3    H154921   5.889   5.695  11.344  0.2433  0.0050 -0.4328
10242TIP3    H254922   5.762   5.767  11.305 -0.8460 -1.6845 -0.0966
10243TIP3   OH254923   0.016   3.902  11.444 -0.4324 -0.7068 -0.5274
10243TIP3    H154924  -0.021   3.977  11.491  0.5997 -1.1602  1.0688
10243TIP3    H254925  -0.014   3.826  11.494  0.0603 -1.2502 -1.0560
10244TIP3   OH254926   4.575   3.206  10.944 -0.4922  0.6628  0.2712
10244TIP3    H154927   4.581   3.156  11.025 -1.7911 -0.4827 -0.2974
10244TIP3    H254928   4.665   3.231  10.924  0.0102 -0.2320  1.3305
10245TIP3   OH254929   3.213   7.581  10.944  0.5414  0.0424 -0.4058
10245TIP3    H154930   3.277   7.649  10.965  0.6604  0.2272 -1.3307
10245TIP3    H254931   3.247   7.538  10.866 -1.1300  1.1064 -1.8127
10246TIP3   OH254932   5.309   7.201  12.092 -0.4139  0.3644  0.3939
10246TIP3    H154933   5.333   7.194  11.999  1.4849  2.2110  0.6847
10246TIP3    H254934   5.351   7.125  12.133 -0.3262  0.1516 -0.0828
10247TIP3   OH254935   3.866   4.909  11.986  0.0510 -0.1214 -0.7923
10247TIP3    H154936   3.908   4.921  12.071 -0.3857  0.0396 -0.5948
10247TIP3    H254937   3.903   4.978  11.931 -1.7056  1.6009  0.0603
10248TIP3   OH254938   3.715   5.048  12.680 -0.0908 -0.8395  0.0551
10248TIP3    H154939   3.717   5.015  12.769  0.0300 -0.4640  0.1912
10248TIP3    H254940   3.683   4.974  12.628 -0.4854 -0.9549  0.4529
10249TIP3   OH254941   7.131   6.382  12.724  0.0084  0.3937 -0.7656
10249TIP3    H154942   7.119   6.474  12.749 -2.8723 -0.0595 -0.0984
10249TIP3    H254943   7.093   6.377  12.636 -2.4363 -0.6123  0.2725
10250TIP3   OH254944   4.488   1.064  11.192  0.4758 -0.1759  0.6061
10250TIP3    H154945   4.487   1.017  11.275 -0.6207  0.8616  1.2068
10250TIP3    H254946   4.437   1.143  11.208  2.9896  1.7246 -0.1054
10251TIP3   OH254947   0.150   4.088  12.436 -0.2733  0.2131  1.2719
10251TIP3    H154948   0.074   4.068  12.491 -0.9356  1.3048  0.7969
10251TIP3    H254949   0.180   4.174  12.466  0.6423 -0.1068  1.3003
10252TIP3   OH254950   0.299   5.799  11.203  0.4533 -0.0199 -0.0473
10252TIP3    H154951   0.363   5.868  11.189 -0.8643  1.1193 -0.7939
10252TIP3    H254952   0.305   5.779  11.296  0.4457  1.5699  0.3278
10253TIP3   OH254953   2.604   5.746  12.560 -0.1259  0.3777  0.7193
10253TIP3    H154954   2.603   5.821  12.502 -0.4429 -0.0292  0.1910
10253TIP3    H254955   2.514   5.713  12.558  0.4092 -1.1223 -0.5206
10254TIP3   OH254956   7.180   1.766  12.008  0.1473  0.0090 -0.0898
10254TIP3    H154957   7.176   1.769  11.912  0.2210  1.1945 -0.0696
10254TIP3    H254958   7.243   1.696  12.028  0.4802  0.0676 -0.9084
10255TIP3   OH254959   3.488   3.960  12.626  0.3649 -0.0683  0.2497
10255TIP3    H154960   3.511   4.001  12.543  0.3006 -0.4807  0.0250
10255TIP3    H254961   3.557   3.896  12.641 -1.2799 -2.3610 -1.1522
10256TIP3   OH254962   7.647   6.429  11.486 -0.2930  0.2927 -0.2792
10256TIP3    H154963   7.680   6.503  11.537  0.1131 -0.6061  0.7990
10256TIP3    H254964   7.597   6.470  11.415 -1.0074  1.5759  0.9068
10257TIP3   OH254965   2.839   5.106  10.948 -0.2447  0.4252  0.4781
10257TIP3    H154966   2.813   5.198  10.960  1.3996  0.7310  2.2717
10257TIP3    H254967   2.810   5.063  11.029  1.4819  0.0162  0.9186
10258TIP3   OH254968   4.835   3.593  11.233 -0.3473  0.1414 -0.6808
10258TIP3    H154969   4.922   3.558  11.215 -1.6072 -2.7609 -1.6590
10258TIP3    H254970   4.809   3.635  11.151 -0.5024 -0.4739 -0.9535
10259TIP3   OH254971   6.179   2.452  12.495  0.9123  0.2206 -0.0978
10259TIP3    H154972   6.185   2.499  12.578  0.1159  3.4185 -1.6696
10259TIP3    H254973   6.260   2.475  12.449  1.1033 -1.0678 -0.4211
10260TIP3   OH254974   1.602   6.703  10.659 -0.0963  0.0059  0.4713
10260TIP3    H154975   1.659   6.757  10.604  1.1762  0.3161  2.0255
10260TIP3    H254976   1.565   6.764  10.722 -1.1868 -0.4249  0.2701
10261TIP3   OH254977   3.816   1.750  11.922  0.1070  0.3858 -0.0472
10261TIP3    H154978   3.776   1.717  11.841  1.3664  0.5817 -0.7783
10261TIP3    H254979   3.866   1.826  11.894 -0.2631  1.0706  1.1117
10262TIP3   OH254980   4.952   7.321  11.959 -0.2398  0.2094 -0.0707
10262TIP3    H154981   4.863   7.284  11.954  0.1993 -1.1755  1.6869
10262TIP3    H254982   4.965   7.361  11.873 -2.9734  1.4539 -0.0260
10263TIP3   OH254983   5.549   3.401  10.237 -0.1815 -0.1353  0.0530
10263TIP3    H154984   5.485   3.462  10.273 -1.2988 -1.0755 -0.2829
10263TIP3    H254985   5.501   3.320  10.223  0.6689 -0.4036 -1.7215
10264TIP3   OH254986   6.508   4.762  11.897 -0.2235 -0.7596 -0.9482
10264TIP3    H154987   6.546   4.846  11.874 -0.9794 -0.0408  0.3237
10264TIP3    H254988   6.577   4.698  11.876  1.2960  0.3984  0.2833
10265TIP3   OH254989   2.564   5.125  11.855 -0.0025  0.5521  0.0779
10265TIP3    H154990   2.608   5.046  11.886  0.1727  0.7784  0.4115
10265TIP3    H254991   2.633   5.192  11.854 -0.1164  0.6629 -0.3422
10266TIP3   OH254992   2.651   7.298  12.534  0.2320 -0.0796 -0.2564
10266TIP3    H154993   2.677   7.299  12.626  1.8015  0.1748 -0.6787
10266TIP3    H254994   2.562   7.334  12.534 -0.0105 -0.6146  1.2043
10267TIP3   OH254995   5.052   1.573  11.394  0.8308  0.3978 -0.6394
10267TIP3    H154996   5.020   1.541  11.310  0.5545  0.2060 -0.4610
10267TIP3    H254997   5.113   1.644  11.371 -1.1353  2.0710 -0.9448
10268TIP3   OH254998   4.223   6.857  11.331 -0.0607 -0.5109  0.4481
10268TIP3    H154999   4.316   6.836  11.335  0.3515  1.2729  1.3348
10268TIP3    H255000   4.214   6.937  11.383 -1.7419  0.4847 -1.2190
10269TIP3   OH255001   4.384   0.264  11.590  0.8230  0.5081  0.0747
10269TIP3    H155002   4.402   0.290  11.680  2.2850 -0.2700  0.0429
10269TIP3    H255003   4.360   0.172  11.596  2.5799 -0.0358 -0.4395
10270TIP3   OH255004   5.350   5.153  11.046 -0.3607  0.2245  0.0507
10270TIP3    H155005   5.410   5.080  11.036  0.8534  0.9026  1.7895
10270TIP3    H255006   5.356   5.202  10.964  2.0360  0.6502  0.4213
10271TIP3   OH255007   7.037   6.555  11.712 -0.3862  0.2567  0.2884
10271TIP3    H155008   7.059   6.517  11.798  1.0582 -1.3079 -0.7054
10271TIP3    H255009   7.022   6.648  11.730  2.0887  0.4401  1.9532
10272TIP3   OH255010   1.122   3.807  11.189  0.1474 -0.9242  0.1175
10272TIP3    H155011   1.175   3.731  11.214  0.0604 -0.9686  0.1666
10272TIP3    H255012   1.074   3.830  11.268  0.7006 -0.3861  0.3006
10273TIP3   OH255013   7.364   0.974  11.906  0.7042  0.1781 -0.0918
10273TIP3    H155014   7.453   0.947  11.930  0.4607  0.6355  1.4150
10273TIP3    H255015   7.373   1.066  11.881  0.6255  0.3060  0.3344
10274TIP3   OH255016   0.843   4.388  11.425  0.0598  0.7384 -0.5457
10274TIP3    H155017   0.787   4.316  11.398  0.5333  0.0163  0.3749
10274TIP3    H255018   0.924   4.347  11.455 -0.4772  1.4575  2.1125
10275TIP3   OH255019   6.388   1.661  10.832 -0.0379 -0.2131  0.2287
10275TIP3    H155020   6.382   1.691  10.923 -0.9672  0.9172 -0.1794
10275TIP3    H255021   6.300   1.675  10.797  0.3655 -0.4605 -0.9065
10276TIP3   OH255022   0.575   2.104  12.012 -0.0793 -0.0789 -0.2963
10276TIP3    H155023   0.584   2.186  12.061  0.3879  0.2679 -0.9442
10276TIP3    H255024   0.501   2.119  11.953 -0.0693 -0.1662 -0.3314
10277TIP3   OH255025   7.190   5.143  10.760 -0.3229  0.0767  0.8454
10277TIP3    H155026   7.221   5.166  10.847  0.8574  1.1350  0.1736
10277TIP3    H255027   7.257   5.177  10.701 -0.1462 -2.2669 -0.4073
10278TIP3   OH255028   1.506   1.369  12.495  0.4443 -0.1291  0.4375
10278TIP3    H155029   1.428   1.348  12.547 -1.2331  0.0978 -1.8239
10278TIP3    H255030   1.505   1.464  12.489  2.1053  0.0416  2.0349
10279TIP3   OH255031   5.446   4.664  10.711 -0.0904 -0.0641  0.3286
10279TIP3    H155032   5.526   4.634  10.755 -0.7886 -0.5269  1.3306
10279TIP3    H255033   5.477   4.710  10.633  1.1635 -0.0010  0.8399
10280TIP3   OH255034   7.337   6.588  11.487  0.2589 -0.0774  0.4087
10280TIP3    H155035   7.242   6.581  11.479  0.2029  0.1300  0.8818
10280TIP3    H255036   7.371   6.523  11.425 -0.1942 -0.4120  0.5063
10281TIP3   OH255037   6.402   2.706  10.756 -0.6736 -0.0035  0.1153
10281TIP3    H155038   6.432   2.626  10.799  0.6753  1.0497  1.2637
10281TIP3    H255039   6.482   2.745  10.721 -1.0515  1.5736  0.9167
10282TIP3   OH255040   3.509   2.837  10.903  0.2287  0.4622  0.2568
10282TIP3    H155041   3.482   2.774  10.970 -1.2860 -0.2901 -0.9905
10282TIP3    H255042   3.564   2.786  10.843 -0.8891  0.3121 -0.6831
10283TIP3   OH255043   0.823   3.399  12.778  0.0754  0.5312  0.8150
10283TIP3    H155044   0.912   3.429  12.800  2.0572  0.0425 -4.8129
10283TIP3    H255045   0.830   3.303  12.778 -0.0869  0.5052 -0.6138
10284TIP3   OH255046   1.397   1.733  11.798 -0.5140  0.4513 -0.4811
10284TIP3    H155047   1.418   1.649  11.839 -0.7307 -0.4124 -2.0931
10284TIP3    H255048   1.482   1.772  11.778 -0.3952 -0.2022 -1.3167
10285TIP3   OH255049   3.989   2.595  11.827 -0.6803 -0.5310  0.3924
10285TIP3    H155050   3.920   2.529  11.832 -1.1816 -0.0039  0.5600
10285TIP3    H255051   3.958   2.657  11.761  1.2121 -2.0782 -2.1055
10286TIP3   OH255052   6.147   0.355  11.722  0.1795  0.1246 -0.2049
10286TIP3    H155053   6.188   0.316  11.799  0.0385  1.9426  0.8484
10286TIP3    H255054   6.106   0.435  11.755 -0.1403  0.7958 -2.1217
10287TIP3   OH255055   1.840   0.279  12.545  0.5693 -0.2579 -0.3958
10287TIP3    H155056   1.934   0.281  12.563  0.2069 -0.3142  1.8634
10287TIP3    H255057   1.811   0.369  12.556  0.4280 -0.1209 -1.7321
10288TIP3   OH255058   3.543   5.762  10.568 -0.0681 -0.2167 -0.0286
10288TIP3    H155059   3.470   5.822  10.581 -0.4406 -0.2405 -1.8622
10288TIP3    H255060   3.619   5.818  10.556  0.3586 -0.1914  2.2441
10289TIP3   OH255061   4.919   5.314  12.639 -0.7269  0.3602 -0.7393
10289TIP3    H155062   4.969   5.389  12.606  0.2216  0.9479  1.8527
10289TIP3    H255063   4.847   5.305  12.576  0.2785  2.1177 -2.2680
10290TIP3   OH255064   7.647   1.885  11.440 -0.4697 -0.1028  0.0168
10290TIP3    H155065   7.617   1.794  11.442 -1.5727  0.2419 -0.0515
10290TIP3    H255066   7.568   1.936  11.421  0.0940  0.8909  0.2616
10291TIP3   OH255067   3.909   4.179  11.050 -0.1240 -0.0153  0.0522
10291TIP3    H155068   3.868   4.185  11.136 -0.8330 -0.7385 -0.2279
10291TIP3    H255069   3.875   4.099  11.012  0.0865  0.3552 -0.9621
10292TIP3   OH255070   1.990   2.046  13.473 -0.2054  0.5365  0.0441
10292TIP3    H155071   1.909   2.017  13.515  0.2579 -0.2525  0.4096
10292TIP3    H255072   2.052   1.975  13.487  0.1675  0.5444 -1.3842
10293TIP3   OH255073   0.221   7.293  10.519 -0.1475  0.0967  0.3033
10293TIP3    H155074   0.191   7.235  10.588  0.3375  1.5615  1.8280
10293TIP3    H255075   0.297   7.249  10.480 -1.4318 -1.5027 -0.4640
10294TIP3   OH255076   1.092   5.613  12.189  0.0191  0.2846 -0.5171
10294TIP3    H155077   1.052   5.600  12.103 -0.0549  2.4783 -0.8611
10294TIP3    H255078   1.021   5.648  12.243  0.0015 -1.2910  0.5679
10295TIP3   OH255079   1.652   1.432  11.495 -0.0223 -0.3927  0.8051
10295TIP3    H155080   1.573   1.381  11.515 -0.7156  0.7324  1.0518
10295TIP3    H255081   1.629   1.483  11.417 -0.0020  0.8587  1.5792
10296TIP3   OH255082   6.010   6.548  10.674 -0.2449  0.0545 -0.0317
10296TIP3    H155083   5.936   6.602  10.648 -0.7162 -1.2199 -1.4823
10296TIP3    H255084   6.086   6.592  10.636 -0.5127  0.2203 -0.3804
10297TIP3   OH255085   3.326   3.333  11.210 -0.8890 -0.7192 -0.0470
10297TIP3    H155086   3.268   3.275  11.161 -0.9266  0.0739 -0.9712
10297TIP3    H255087   3.360   3.394  11.145 -0.7738  0.2459  0.8886
10298TIP3   OH255088   4.606   1.921  11.140 -0.1039  0.3911 -0.4166
10298TIP3    H155089   4.510   1.923  11.142 -0.1400 -0.9769  0.0721
10298TIP3    H255090   4.632   1.921  11.232  0.3851  0.8430 -0.5466
10299TIP3   OH255091   5.163   3.080  10.690 -0.2129 -0.5178  0.1808
10299TIP3    H155092   5.195   3.128  10.766  2.2090 -2.5620  0.5840
10299TIP3    H255093   5.118   3.004  10.726 -0.8700 -0.4380 -0.4414
10300TIP3   OH255094   7.363   3.504  12.241 -0.1855  0.3380  0.2172
10300TIP3    H155095   7.306   3.494  12.164 -0.2815  3.9189 -0.3704
10300TIP3    H255096   7.451   3.492  12.207 -0.3423 -0.8721  0.1948
10301TIP3   OH255097   4.752   6.804  12.179  0.5211 -0.0876  0.0746
10301TIP3    H155098   4.773   6.785  12.270  0.7172  1.1571  0.3043
10301TIP3    H255099   4.676   6.861  12.183  0.0722 -0.6179 -0.5852
10302TIP3   OH255100   6.524   0.606  11.393 -0.5291 -0.2136 -0.3789
10302TIP3    H155101   6.614   0.601  11.424 -0.6614 -0.3690 -0.0146
10302TIP3    H255102   6.471   0.590  11.471 -0.8662 -1.5002 -0.8454
10303TIP3   OH255103   3.493   5.011  11.477 -0.5355  0.1838  0.8869
10303TIP3    H155104   3.478   4.918  11.494 -0.7548  0.2955  1.3243
10303TIP3    H255105   3.582   5.015  11.441  0.0663 -0.0462  2.2799
10304TIP3   OH255106   0.164   4.851  12.096  0.6209 -0.0766  0.1972
10304TIP3    H155107   0.245   4.885  12.135 -0.3134  0.7583  1.5197
10304TIP3    H255108   0.116   4.930  12.069  0.1921 -0.5504 -0.4421
10305TIP3   OH255109   2.073   3.731  11.732  0.4817  0.0907 -0.3780
10305TIP3    H155110   2.004   3.735  11.666 -0.5075  1.4006  0.6622
10305TIP3    H255111   2.114   3.646  11.719 -0.0570  0.0777 -2.2823
10306TIP3   OH255112   6.826   5.364  12.488 -0.0980 -0.0343 -0.1232
10306TIP3    H155113   6.829   5.387  12.395 -1.7007  2.0426  0.2682
10306TIP3    H255114   6.736   5.384  12.515 -0.3012 -2.6003  1.4297
10307TIP3   OH255115   6.410   2.043  12.276 -0.3035  0.2107  0.1246
10307TIP3    H155116   6.438   1.954  12.252 -0.8271 -0.1159  0.7067
10307TIP3    H255117   6.458   2.062  12.357  0.9976  1.0775 -0.8017
10308TIP3   OH255118   1.415   0.542  11.475  0.2903  0.1651  0.5227
10308TIP3    H155119   1.502   0.527  11.511  0.1639 -0.0811  0.7303
10308TIP3    H255120   1.431   0.567  11.384  0.4927 -1.9673 -0.0767
10309TIP3   OH255121   1.899   4.502  12.097  0.4261  0.3714 -0.3804
10309TIP3    H155122   1.919   4.577  12.153 -3.0210 -0.1094  1.7793
10309TIP3    H255123   1.834   4.536  12.035 -0.2520 -0.4990 -0.1624
10310TIP3   OH255124   6.771   6.621  11.608  0.0658  0.5776  0.3025
10310TIP3    H155125   6.835   6.552  11.595 -1.0071 -0.3060 -0.5265
10310TIP3    H255126   6.701   6.601  11.546 -1.0597  1.4540  1.2366
10311TIP3   OH255127   2.570   3.164  13.311  0.2238 -0.7235 -0.1359
10311TIP3    H155128   2.511   3.219  13.260 -0.2351 -1.4337 -0.3856
10311TIP3    H255129   2.594   3.218  13.386  2.1144  0.9045 -1.8195
10312TIP3   OH255130   6.586   6.251  11.516 -0.0777 -0.3447  0.0025
10312TIP3    H155131   6.533   6.267  11.595 -2.9606 -0.1479 -1.7945
10312TIP3    H255132   6.571   6.159  11.496  2.3480 -0.9719  0.7365
10313TIP3   OH255133   4.199   6.963  12.888 -0.2744 -0.2061  0.3388
10313TIP3    H155134   4.192   7.054  12.918  1.2005  1.0403 -2.5773
10313TIP3    H255135   4.274   6.928  12.936 -0.1526  0.5054  0.6876
10314TIP3   OH255136   2.425   0.647  11.065  0.3806 -0.2156 -0.2686
10314TIP3    H155137   2.516   0.645  11.036  0.1190 -1.5434 -1.0938
10314TIP3    H255138   2.427   0.612  11.154  0.6316 -0.6007 -0.4265
10315TIP3   OH255139   0.605   4.926  12.484 -0.4848  0.3362  0.2127
10315TIP3    H155140   0.513   4.902  12.488 -0.4805  0.5037  2.3443
10315TIP3    H255141   0.621   4.975  12.565  0.9195  2.3809 -1.1909
10316TIP3   OH255142   2.178   1.071  13.419  0.0390  0.5172 -0.1397
10316TIP3    H155143   2.232   0.993  13.409  0.2972  0.6206  0.3978
10316TIP3    H255144   2.236   1.144  13.398  0.4305  0.6981  1.4073
10317TIP3   OH255145   4.612   7.398  11.825  0.6594  0.0269 -0.2133
10317TIP3    H155146   4.518   7.412  11.842  0.8235  0.4393  0.3836
10317TIP3    H255147   4.632   7.316  11.870 -0.0831 -1.7769 -2.9012
10318TIP3   OH255148   6.859   2.658  12.445  0.0075  0.7516 -0.8046
10318TIP3    H155149   6.925   2.611  12.496  0.5899  0.4138 -1.8467
10318TIP3    H255150   6.793   2.684  12.510  0.3977 -0.2227  0.0143
10319TIP3   OH255151   0.167   6.171  11.191  1.1752  0.3039 -0.1711
10319TIP3    H155152   0.244   6.137  11.237 -0.3096 -2.5766  0.3998
10319TIP3    H255153   0.093   6.126  11.232 -0.7973  2.4639 -1.1497
10320TIP3   OH255154   5.233   3.554  11.043  0.1918 -0.5792  0.4049
10320TIP3    H155155   5.156   3.497  11.052 -0.8868  0.1470 -2.7859
10320TIP3    H255156   5.219   3.622  11.109 -0.4463 -1.9274  1.7276
10321TIP3   OH255157   1.495   0.685  11.249  0.5871 -0.5449 -0.2521
10321TIP3    H155158   1.583   0.673  11.215  0.5376 -2.6480  0.1887
10321TIP3    H255159   1.497   0.769  11.294  2.0845 -0.1203 -1.0610
10322TIP3   OH255160   1.470   6.840  12.643 -0.0443 -0.3061  0.1499
10322TIP3    H155161   1.464   6.829  12.548  1.1649  2.1854 -0.3221
10322TIP3    H255162   1.564   6.845  12.660 -0.2510  2.1255  0.9840
10323TIP3   OH255163   1.504   3.053  12.292  0.0520 -0.4613  0.6743
10323TIP3    H155164   1.526   3.123  12.354 -0.1327 -0.6929  1.0106
10323TIP3    H255165   1.416   3.075  12.262 -0.5591 -1.2605  1.8163
10324TIP3   OH255166   4.569   2.712  12.847 -0.1012  0.1909  0.4035
10324TIP3    H155167   4.601   2.802  12.837 -0.4489  0.3529  0.7417
10324TIP3    H255168   4.594   2.688  12.936 -1.9067  0.7210  1.0873
10325TIP3   OH255169   5.855   4.991  11.398  1.0553  0.2683  0.1419
10325TIP3    H155170   5.869   4.943  11.479  3.3889  0.2872 -0.1725
10325TIP3    H255171   5.794   4.937  11.348 -0.7433  0.4502  1.9980
10326TIP3   OH255172   3.343   7.207  12.568 -0.2941 -0.4258  0.0218
10326TIP3    H155173   3.371   7.233  12.480 -2.1286 -0.5142 -0.6183
10326TIP3    H255174   3.345   7.288  12.619  1.2209 -0.4526  0.0657
10327TIP3   OH255175   3.965   7.106  10.849  0.0950  0.6141 -0.1945
10327TIP3    H155176   3.938   7.188  10.806 -0.5808 -0.8066 -2.6789
10327TIP3    H255177   3.884   7.069  10.882  0.3941  0.8848  0.8717
10328TIP3   OH255178   5.938   3.452  10.708 -0.5173 -0.0625  0.2333
10328TIP3    H155179   5.916   3.454  10.615 -0.2535 -0.2499  0.1691
10328TIP3    H255180   6.028   3.421  10.712 -0.7864 -0.8324  0.6009
10329TIP3   OH255181   3.168   4.434  10.973 -0.0034  0.4847 -0.5408
10329TIP3    H155182   3.092   4.433  10.915  0.1856 -0.5447 -0.7874
10329TIP3    H255183   3.232   4.488  10.926  0.7659 -1.6833 -2.1477
10330TIP3   OH255184   4.718   7.173  11.949  0.1084 -0.2359  0.6016
10330TIP3    H155185   4.691   7.101  11.892  0.5725 -0.1317  0.2359
10330TIP3    H255186   4.691   7.147  12.037 -1.4050 -0.0054  0.2281
10331TIP3   OH255187   3.867   6.261  10.927  0.0440 -1.0175 -0.0304
10331TIP3    H155188   3.873   6.179  10.878  0.7523 -0.2288 -1.3280
10331TIP3    H255189   3.919   6.323  10.876 -0.8174  0.3476  0.7015
10332TIP3   OH255190   4.544   1.363  12.034 -0.1477  0.5782 -0.1752
10332TIP3    H155191   4.585   1.428  12.091 -0.0455  0.2592  0.1166
10332TIP3    H255192   4.465   1.406  12.001 -1.7506 -0.2084  2.4046
10333TIP3   OH255193   1.795   1.562  11.702 -0.0021  0.5767  0.0710
10333TIP3    H155194   1.760   1.492  11.756  0.9584  0.9985  1.2846
10333TIP3    H255195   1.763   1.543  11.614 -1.8815  0.0571  0.8254
10334TIP3   OH255196   3.620   2.598  11.010  0.3041 -0.1035  0.3901
10334TIP3    H155197   3.713   2.621  11.007  0.0462  0.8515 -0.7915
10334TIP3    H255198   3.618   2.504  10.991  0.9693  0.0285 -0.3920
10335TIP3   OH255199   7.488   6.127  12.208  0.2195  0.1284 -0.9904
10335TIP3    H155200   7.405   6.093  12.174  0.7113 -0.5837 -1.4955
10335TIP3    H255201   7.505   6.075  12.286  1.3459 -1.3511 -2.1713
10336TIP3   OH255202   1.752   6.487  12.369  0.2489 -0.3428  0.1210
10336TIP3    H155203   1.739   6.578  12.398 -0.5541 -0.5206  0.3385
10336TIP3    H255204   1.712   6.484  12.283 -0.3688 -0.6706  0.4152
10337TIP3   OH255205   1.231   2.157  11.861  0.5975 -0.2537 -0.2213
10337TIP3    H155206   1.184   2.073  11.866 -0.3076  0.2310 -0.3383
10337TIP3    H255207   1.175   2.212  11.807  1.0470  0.5248  0.0953
10338TIP3   OH255208   3.460   5.426  11.661 -0.0375 -0.3612 -0.8590
10338TIP3    H155209   3.551   5.408  11.636  0.9486  0.5746  1.7275
10338TIP3    H255210   3.448   5.380  11.744 -0.7294  2.3641  0.6631
10339TIP3   OH255211   6.497   6.351  12.507  0.0669  0.8814  0.2100
10339TIP3    H155212   6.410   6.378  12.537  0.0900  0.0644  1.0604
10339TIP3    H255213   6.480   6.296  12.431 -0.2267  0.2005  0.7460
10340TIP3   OH255214   1.321   4.426  13.102  0.1832 -0.2153  0.6455
10340TIP3    H155215   1.387   4.492  13.126  0.7122 -0.9199  1.1815
10340TIP3    H255216   1.254   4.434  13.169 -0.6502  0.9851 -0.2954
10341TIP3   OH255217   6.031   3.282  12.972 -0.1903  0.2559  0.0816
10341TIP3    H155218   6.064   3.219  12.908  1.0471  0.7669  0.1741
10341TIP3    H255219   6.092   3.275  13.046 -0.9350  0.4756  0.7339
10342TIP3   OH255220   0.831   0.218  10.836 -1.0926 -0.0328  0.3435
10342TIP3    H155221   0.914   0.228  10.883 -0.7628  0.9884 -0.4438
10342TIP3    H255222   0.796   0.306  10.830 -1.5801 -0.2771 -0.5382
10343TIP3   OH255223   3.224   6.619  12.481  0.0227 -0.1094 -0.3296
10343TIP3    H155224   3.228   6.524  12.470 -0.7910 -0.1762 -0.0814
10343TIP3    H255225   3.179   6.632  12.565 -1.1603  0.5024 -1.0271
10344TIP3   OH255226   4.326   6.029  12.477  0.1404 -0.0906  0.1874
10344TIP3    H155227   4.323   5.934  12.470 -1.3336  0.0646 -2.1049
10344TIP3    H255228   4.369   6.058  12.397 -0.1131  1.2104  0.4979
10345TIP3   OH255229   0.119   7.062  11.324 -0.7125 -0.0573 -0.5137
10345TIP3    H155230   0.083   7.065  11.236  0.5604 -1.0453 -1.0880
10345TIP3    H255231   0.179   6.988  11.324 -0.6100 -0.0223  1.1577
10346TIP3   OH255232   2.678   7.390  13.733 -0.1722  0.0604  0.1929
10346TIP3    H155233   2.715   7.458  13.789  1.2130 -1.2575  0.9281
10346TIP3    H255234   2.626   7.438  13.668  1.0693  1.8316  0.4614
10347TIP3   OH255235   2.509   5.595  12.117  0.0292  0.0207 -0.3267
10347TIP3    H155236   2.455   5.655  12.065  0.5264  0.3944 -0.4240
10347TIP3    H255237   2.590   5.643  12.132 -0.4435  0.2880  1.5876
10348TIP3   OH255238   4.908   1.827  11.000  0.6396 -0.6677 -0.7258
10348TIP3    H155239   4.870   1.892  11.059  0.4545  0.0443 -1.5987
10348TIP3    H255240   5.002   1.846  11.000  0.4298  0.5598 -2.0609
10349TIP3   OH255241   6.606   7.656  10.619  0.1426  0.5032 -0.3981
10349TIP3    H155242   6.551   7.649  10.541  0.6587 -0.2622 -0.7036
10349TIP3    H255243   6.579   7.738  10.660 -1.8378 -0.2617 -0.0722
10350TIP3   OH255244   4.042   4.582  12.425 -0.3804  0.4083  0.3556
10350TIP3    H155245   3.986   4.559  12.499 -1.4158  0.4895 -0.3761
10350TIP3    H255246   3.983   4.628  12.364  0.2915 -0.2045 -0.7883
10351TIP3   OH255247   0.836   4.757  13.437 -0.3390  0.3201 -0.0059
10351TIP3    H155248   0.741   4.762  13.441 -0.3033  0.2402  1.2578
10351TIP3    H255249   0.867   4.831  13.488  0.2974  0.8079 -1.0694
10352TIP3   OH255250   4.699   0.881  12.839 -0.0819  0.5920 -0.0001
10352TIP3    H155251   4.771   0.924  12.885 -2.3559  2.9674  1.6001
10352TIP3    H255252   4.693   0.795  12.880  1.0184  0.8294  0.7178
10353TIP3   OH255253   1.648   5.208  11.738 -0.6949  0.0580  0.1596
10353TIP3    H155254   1.690   5.228  11.821  0.2405 -0.2124 -0.2357
10353TIP3    H255255   1.634   5.113  11.740  0.2489 -0.1014 -0.3986
10354TIP3   OH255256   1.402   5.943  12.619 -0.0366  0.3888 -0.1830
10354TIP3    H155257   1.370   5.894  12.695  0.5945  1.6371  0.9315
10354TIP3    H255258   1.351   5.909  12.546 -1.1504 -0.3914  0.9047
10355TIP3   OH255259   3.921   5.111  11.595  0.1063 -0.8149 -0.6590
10355TIP3    H155260   3.971   5.041  11.552  0.1014 -2.4345  1.7732
10355TIP3    H255261   3.934   5.096  11.688 -1.7839  1.0950 -0.0026
10356TIP3   OH255262   5.591   7.300  11.920  0.1486 -0.2592  0.4804
10356TIP3    H155263   5.582   7.207  11.940 -0.9680 -0.1467  0.5990
10356TIP3    H255264   5.667   7.306  11.863  1.3528 -1.0224  1.9385
10357TIP3   OH255265   4.927   4.803  12.870  0.1934  0.3586  0.4323
10357TIP3    H155266   4.888   4.779  12.954 -1.5897 -0.5439 -0.6057
10357TIP3    H255267   5.005   4.854  12.894 -0.4679  0.4535  2.6103
10358TIP3   OH255268   3.977   2.168  13.165  0.0130 -0.1513  0.4494
10358TIP3    H155269   3.962   2.091  13.111  0.4950 -0.9656  1.4306
10358TIP3    H255270   3.906   2.167  13.229 -1.0887  1.3255 -0.7074
10359TIP3   OH255271   7.059   0.034  11.426 -0.0381 -0.6086  0.5759
10359TIP3    H155272   6.972   0.034  11.386 -0.0211 -1.0399  0.5402
10359TIP3    H255273   7.101   0.113  11.390 -0.1347 -0.8171 -0.0163
10360TIP3   OH255274   6.967   3.566  10.994 -0.2470 -0.2355  0.5313
10360TIP3    H155275   6.885   3.519  11.008 -0.5882  0.4196  0.8094
10360TIP3    H255276   6.941   3.658  10.991  0.2580 -0.1193 -1.1003
10361TIP3   OH255277   3.982   0.022  11.297 -0.1863  0.0068 -0.3707
10361TIP3    H155278   3.991  -0.018  11.383  0.2252  0.7039 -0.0786
10361TIP3    H255279   4.001   0.115  11.311 -0.0720  0.1243 -1.2194
10362TIP3   OH255280   7.585   3.686  11.586 -0.5347  0.2890 -0.3851
10362TIP3    H155281   7.514   3.682  11.650  0.3389  0.2118  0.6080
10362TIP3    H255282   7.641   3.611  11.607 -0.4140  0.0389 -1.4906
10363TIP3   OH255283   5.262   5.530  11.619  0.0750  0.6545 -0.4739
10363TIP3    H155284   5.282   5.612  11.573 -0.3037  0.9971 -0.0461
10363TIP3    H255285   5.192   5.554  11.679 -0.3789 -0.1053 -0.6882
10364TIP3   OH255286   6.274   4.931  11.028 -0.1300 -0.1447  0.0008
10364TIP3    H155287   6.244   4.859  10.973 -1.2276 -0.7727  1.3434
10364TIP3    H255288   6.340   4.976  10.975 -0.9878 -0.8113 -1.7193
10365TIP3   OH255289   3.759   4.670  11.353 -0.1229  0.0752 -0.3355
10365TIP3    H155290   3.814   4.593  11.339  2.0750  1.2951  0.8695
10365TIP3    H255291   3.778   4.727  11.278  0.0433  0.3705 -0.0733
10366TIP3   OH255292   4.598   2.035  12.792 -0.0035 -0.3748  0.2712
10366TIP3    H155293   4.567   2.096  12.859  1.4122  0.5791  0.1013
10366TIP3    H255294   4.683   2.006  12.824 -0.5488 -2.1304  0.2342
10367TIP3   OH255295   2.398   3.315  11.395  0.0385 -1.0668  0.2880
10367TIP3    H155296   2.469   3.370  11.362 -0.3995 -1.2695 -1.0681
10367TIP3    H255297   2.338   3.375  11.437 -1.0944 -0.2325 -2.3163
10368TIP3   OH255298   6.809   5.668  11.979  0.2384 -0.7461  0.7139
10368TIP3    H155299   6.898   5.699  11.961  0.5421 -1.0563  1.5833
10368TIP3    H255300   6.785   5.712  12.061 -1.3160  1.1034 -0.6549
10369TIP3   OH255301   1.266   3.262  10.572  0.6668 -0.1370  0.0280
10369TIP3    H155302   1.226   3.176  10.582 -1.5791  0.8732  0.3182
10369TIP3    H255303   1.214   3.304  10.503  0.0743  1.8429  1.5831
10370TIP3   OH255304   0.871   3.215  11.344  0.5879 -1.3403 -0.1912
10370TIP3    H155305   0.870   3.150  11.415  0.5577 -2.0186 -0.8001
10370TIP3    H255306   0.934   3.180  11.281  0.9823 -0.4930 -0.2743
10371TIP3   OH255307   2.956   4.258  11.829  0.0191  0.1876  0.2379
10371TIP3    H155308   2.902   4.306  11.892 -0.8068  1.2820 -1.2360
10371TIP3    H255309   2.911   4.174  11.819 -0.4484  0.4228  0.3006
10372TIP3   OH255310   7.360   7.270  12.762 -0.3255 -0.0253 -0.5607
10372TIP3    H155311   7.294   7.203  12.780 -0.6502  0.3550 -0.3115
10372TIP3    H255312   7.315   7.353  12.780  0.1436  0.2469 -0.6335
10373TIP3   OH255313   4.175   3.035  13.374  0.9926 -0.2717 -0.1322
10373TIP3    H155314   4.233   3.101  13.411  0.4074  0.4946 -0.5738
10373TIP3    H255315   4.163   2.971  13.445 -1.1117  1.7914  1.4970
10374TIP3   OH255316   1.724   5.078  12.429 -0.7998  0.3398 -0.0866
10374TIP3    H155317   1.784   5.152  12.435 -0.3372  0.1562 -1.8578
10374TIP3    H255318   1.768   5.006  12.474  0.0252  0.4019 -0.7616
10375TIP3   OH255319   2.344   0.013  12.237 -0.3599 -0.3336  0.0462
10375TIP3    H155320   2.278   0.067  12.192 -0.7232 -0.3950  0.4992
10375TIP3    H255321   2.296  -0.027  12.310  0.1436 -0.5081  0.2816
10376TIP3   OH255322   0.614   5.559  10.787 -0.1845 -0.0661  0.0324
10376TIP3    H155323   0.679   5.615  10.829 -0.2898 -0.2155  0.4054
10376TIP3    H255324   0.641   5.470  10.809 -0.8505 -0.1131  0.7087
10377TIP3   OH255325   2.695   4.644  12.487  0.1737 -0.3740 -0.1427
10377TIP3    H155326   2.712   4.643  12.582 -2.9619 -0.3209  0.5128
10377TIP3    H255327   2.709   4.735  12.461 -0.1492 -0.1254  0.5337
10378TIP3   OH255328   6.457   0.706  12.825  0.5015  0.3771  0.3113
10378TIP3    H155329   6.491   0.649  12.894  1.1610  0.5820  0.1662
10378TIP3    H255330   6.403   0.770  12.871 -0.5040 -0.5393  0.4421
10379TIP3   OH255331   7.458   2.597  11.876 -0.1043  0.3972 -0.0640
10379TIP3    H155332   7.493   2.619  11.790  1.2370 -0.1814  0.3195
10379TIP3    H255333   7.389   2.662  11.891 -2.2998 -1.1102 -2.7066
10380TIP3   OH255334   2.499   4.208  11.060 -0.4315 -0.4718 -0.3829
10380TIP3    H155335   2.468   4.121  11.085  0.8065 -1.1722 -1.1781
10380TIP3    H255336   2.452   4.228  10.979 -0.3824 -0.6107 -0.4466
10381TIP3   OH255337   0.722   3.859  11.486 -0.4381 -0.0344 -0.1271
10381TIP3    H155338   0.639   3.859  11.439  0.0695 -0.9576 -1.0670
10381TIP3    H255339   0.788   3.880  11.419 -0.0163  2.0751  0.8620
10382TIP3   OH255340   3.086   1.151  10.608  0.4229  0.3596  0.3541
10382TIP3    H155341   2.991   1.142  10.601  0.6273 -1.8246 -0.2751
10382TIP3    H255342   3.109   1.219  10.543 -0.5346 -0.4631 -0.8871
10383TIP3   OH255343   2.371   4.960  12.537  0.2171  0.5534  0.1688
10383TIP3    H155344   2.413   4.904  12.472 -0.4371 -0.1920  0.3804
10383TIP3    H255345   2.365   4.906  12.615 -1.2272  0.6028  0.1188
10384TIP3   OH255346   6.930   5.303  12.923 -0.3545 -0.2434 -0.2203
10384TIP3    H155347   6.912   5.367  12.855  3.4189 -0.1740 -1.3940
10384TIP3    H255348   6.856   5.243  12.920 -1.3745  0.9834 -2.9019
10385TIP3   OH255349   1.906   1.030  11.111  0.0196 -0.3383  0.1246
10385TIP3    H155350   1.839   1.068  11.169  0.0442  0.9135 -0.6308
10385TIP3    H255351   1.943   1.105  11.065  0.9726 -1.1696 -0.5034
10386TIP3   OH255352   4.665   0.992  11.639 -0.1792 -0.0223  0.0904
10386TIP3    H155353   4.733   1.054  11.612 -0.8607  0.4271 -0.6465
10386TIP3    H255354   4.664   0.996  11.734  1.3656 -0.6272  0.1645
10387TIP3   OH255355   4.840   0.244  12.259 -0.0558 -0.7174 -0.3351
10387TIP3    H155356   4.849   0.321  12.317 -0.1660  0.2231 -1.5312
10387TIP3    H255357   4.838   0.170  12.319 -1.7221  0.3107  0.9865
10388TIP3   OH255358   2.107   5.284  11.898 -0.1471 -0.0354  0.1970
10388TIP3    H155359   2.126   5.376  11.916  2.0328 -0.4521  0.2573
10388TIP3    H255360   2.054   5.255  11.972  1.3565  0.5214  1.5575
10389TIP3   OH255361   3.477   6.970  12.606  0.6030 -0.1057 -0.4063
10389TIP3    H155362   3.528   6.973  12.687  0.9679 -0.1798 -0.6294
10389TIP3    H255363   3.437   7.057  12.600 -0.2963 -0.4449  0.3974
10390TIP3   OH255364   1.792   0.446  13.196 -0.3228  0.5416 -0.6869
10390TIP3    H155365   1.699   0.443  13.173 -0.4088 -0.8325 -0.2472
10390TIP3    H255366   1.794   0.430  13.290  0.3188  1.3652 -0.5508
10391TIP3   OH255367   6.320   3.938  12.794 -0.0083 -0.3795 -0.0627
10391TIP3    H155368   6.283   4.019  12.759  0.8669 -0.1075 -0.3872
10391TIP3    H255369   6.398   3.966  12.843 -0.3516 -0.9091  0.8235
10392TIP3   OH255370   2.257   0.005  11.355 -0.0231 -0.4764  0.9527
10392TIP3    H155371   2.162   0.013  11.347 -0.1782 -1.8748  1.1052
10392TIP3    H255372   2.276   0.027  11.446 -0.1094  0.3800  0.7765
10393TIP3   OH255373   4.975   2.263  10.657  0.3064  0.0075  0.1550
10393TIP3    H155374   5.050   2.258  10.598  0.1237  0.4752 -0.1201
10393TIP3    H255375   4.946   2.172  10.665 -0.4197  0.0410 -1.4799
10394TIP3   OH255376   5.805   7.338  11.730 -0.1254  0.0579  0.3616
10394TIP3    H155377   5.862   7.263  11.710 -1.1466 -0.8479  0.7145
10394TIP3    H255378   5.740   7.338  11.660 -0.4042  0.3296  0.6193
10395TIP3   OH255379   4.239   6.103  13.019 -0.0626 -0.1159  0.0992
10395TIP3    H155380   4.265   6.185  12.976  0.9271  0.4648  1.7307
10395TIP3    H255381   4.322   6.063  13.047 -0.5728 -1.3848 -0.1197
10396TIP3   OH255382   2.512   1.634  12.127  0.0057  0.3950 -1.4585
10396TIP3    H155383   2.571   1.634  12.203 -1.1736 -0.6196 -0.5127
10396TIP3    H255384   2.570   1.651  12.053  1.2023  1.3631 -0.3536
10397TIP3   OH255385   6.432   7.627  12.811  0.9946 -0.1691 -0.0500
10397TIP3    H155386   6.433   7.574  12.730  1.9743 -0.0632 -0.1235
10397TIP3    H255387   6.471   7.569  12.877 -1.1893 -0.8293  0.7595
10398TIP3   OH255388   4.131   0.544  11.142 -0.2859 -0.1175  0.1381
10398TIP3    H155389   4.177   0.523  11.060  0.0695 -1.2231  0.5919
10398TIP3    H255390   4.062   0.605  11.117 -0.3926 -0.6968 -1.0443
10399TIP3   OH255391   1.936   2.258  10.730 -0.1924  0.1773 -0.1789
10399TIP3    H155392   1.895   2.172  10.725  0.6438 -0.3271  1.1606
10399TIP3    H255393   1.862   2.319  10.737 -0.8710 -0.2121 -2.9826
10400TIP3   OH255394   0.556   4.019  10.665  0.0703 -0.8030  0.0494
10400TIP3    H155395   0.639   3.979  10.639  1.2361 -0.3632  2.7254
10400TIP3    H255396   0.491   3.950  10.653  0.7503 -1.0936 -2.2890
10401TIP3   OH255397   6.983   2.808  12.752 -0.1861  0.2669 -0.2282
10401TIP3    H155398   6.976   2.814  12.847 -1.6466  1.5577 -0.3804
10401TIP3    H255399   6.953   2.719  12.731  2.0993 -0.7751  0.6182
10402TIP3   OH255400   3.096   6.624  11.225  0.0463 -0.0045  0.4055
10402TIP3    H155401   3.083   6.542  11.274 -0.6693  0.8341  1.6992
10402TIP3    H255402   3.051   6.690  11.278 -2.1738  0.7391 -2.1529
10403TIP3   OH255403   0.849   0.389  13.264 -0.0579  0.6687 -0.0467
10403TIP3    H155404   0.916   0.418  13.202 -0.7411  0.1428 -1.0503
10403TIP3    H255405   0.899   0.363  13.342  0.9476  0.0108 -0.8812
10404TIP3   OH255406   3.999   7.588  11.543 -0.2365  0.3548  0.1754
10404TIP3    H155407   3.966   7.636  11.619 -2.1261  2.1308 -1.6595
10404TIP3    H255408   3.968   7.498  11.557 -1.3569  0.8481  1.0825
10405TIP3   OH255409   2.357   0.026  12.874  0.2222  0.2926 -0.7052
10405TIP3    H155410   2.368   0.039  12.968 -1.5346  0.5070 -0.4929
10405TIP3    H255411   2.436  -0.021  12.847  0.2902 -0.7088  1.0637
10406TIP3   OH255412   6.653   3.803  13.424 -0.0478 -0.5161 -0.0240
10406TIP3    H155413   6.691   3.876  13.375 -1.1380  0.6877  0.8759
10406TIP3    H255414   6.561   3.801  13.397 -0.1162 -1.3097  0.2479
10407TIP3   OH255415   2.512   6.065  11.377  0.1568 -0.3835  0.1782
10407TIP3    H155416   2.513   5.996  11.311  1.8180 -0.3095  0.0729
10407TIP3    H255417   2.551   6.025  11.454  1.6956  0.5600 -0.0629
10408TIP3   OH255418   0.548   1.776  11.536  0.2814 -0.5120 -0.7944
10408TIP3    H155419   0.590   1.784  11.622 -0.9361 -0.9366 -0.1354
10408TIP3    H255420   0.561   1.685  11.511 -0.2003 -0.6313 -0.6124
10409TIP3   OH255421   1.743   0.730  11.153  0.3091 -0.5272 -0.0446
10409TIP3    H155422   1.734   0.790  11.079  0.1461  1.5024  1.5371
10409TIP3    H255423   1.786   0.653  11.116 -0.3248  0.1375 -2.3608
10410TIP3   OH255424   5.458   6.910  10.774 -0.1299 -0.1738  0.0287
10410TIP3    H155425   5.504   6.994  10.777 -1.3031  0.4749  0.4197
10410TIP3    H255426   5.466   6.875  10.863  0.2852 -0.4410 -0.1116
10411TIP3   OH255427   5.138   2.605  11.453 -0.5659  0.4658  0.1742
10411TIP3    H155428   5.132   2.616  11.358  1.5693  1.0296  0.0523
10411TIP3    H255429   5.190   2.681  11.482  0.8008 -0.8930  1.4629
10412TIP3   OH255430   1.218   0.707  12.911 -0.0457  0.4851 -0.0621
10412TIP3    H155431   1.252   0.654  12.982  2.5502  1.5268 -0.4365
10412TIP3    H255432   1.222   0.797  12.943  1.6586  1.0376 -1.6080
10413TIP3   OH255433   7.472   1.210  11.896 -0.1403  0.2190  0.0650
10413TIP3    H155434   7.481   1.301  11.867 -1.6524  0.5587  0.5873
10413TIP3    H255435   7.562   1.182  11.915  0.2474  1.9449  0.9459
10414TIP3   OH255436   4.497   6.366  11.897  0.1582 -0.0175 -1.1010
10414TIP3    H155437   4.479   6.272  11.905 -0.6602  0.3210  1.8788
10414TIP3    H255438   4.553   6.387  11.972 -1.5960  2.2771 -0.3104
10415TIP3   OH255439   5.970   6.882  11.121  0.1098  0.8731  0.4276
10415TIP3    H155440   5.933   6.795  11.113 -0.5799  1.1552  0.4692
10415TIP3    H255441   6.001   6.887  11.212  1.3416  0.2221  0.0595
10416TIP3   OH255442   3.433   2.828  11.834  0.2899  0.4268 -0.1765
10416TIP3    H155443   3.519   2.793  11.858  1.3512  2.5630 -0.6718
10416TIP3    H255444   3.391   2.756  11.787  1.2215 -1.1555  1.2914
10417TIP3   OH255445   1.225   0.418  11.728  0.2157 -0.4324 -0.4915
10417TIP3    H155446   1.294   0.439  11.790  2.0735 -1.9534 -1.9508
10417TIP3    H255447   1.157   0.484  11.745  1.3873  0.2659  1.9026
10418TIP3   OH255448   4.238   4.630  12.235  0.2671  0.0392 -0.7684
10418TIP3    H155449   4.199   4.601  12.317 -3.6329  1.6177 -1.8549
10418TIP3    H255450   4.209   4.567  12.170  1.4235  0.0578 -1.3398
10419TIP3   OH255451   4.979   5.339  12.921 -0.4260 -0.1378  0.3464
10419TIP3    H155452   5.069   5.369  12.909  0.0632 -1.2563  0.9970
10419TIP3    H255453   4.934   5.365  12.841  1.0804 -1.6636 -1.0813
10420TIP3   OH255454   1.483   4.464  10.740  0.0279 -0.3319 -0.0411
10420TIP3    H155455   1.553   4.523  10.712  1.4594 -1.4199  1.0717
10420TIP3    H255456   1.444   4.432  10.659  2.2485 -1.3226 -0.7840
10421TIP3   OH255457   3.136   5.441  12.536 -0.1292 -0.1064 -0.3098
10421TIP3    H155458   3.108   5.506  12.472 -0.0083 -0.1527 -0.4098
10421TIP3    H255459   3.124   5.484  12.621 -4.2903 -1.4489 -0.0060
10422TIP3   OH255460   7.482   4.491  13.088  0.1774 -0.0445 -0.0209
10422TIP3    H155461   7.469   4.555  13.159 -0.7450  0.6204 -0.7715
10422TIP3    H255462   7.473   4.406  13.130  0.2572  0.3346  0.7786
10423TIP3   OH255463   3.609   2.140  12.458  0.0568  0.3829  0.6878
10423TIP3    H155464   3.577   2.227  12.434  0.6873  0.3751 -0.1990
10423TIP3    H255465   3.566   2.121  12.542  0.5442  1.8900  1.2978
10424TIP3   OH255466   4.064   6.199  13.192  0.0878 -0.3348  0.4102
10424TIP3    H155467   4.036   6.255  13.120 -0.1210  0.3121  0.9763
10424TIP3    H255468   4.139   6.151  13.158 -1.0289 -1.2984 -0.7868
10425TIP3   OH255469   0.222   1.416  11.879  0.0286  0.2859  0.5577
10425TIP3    H155470   0.302   1.461  11.907 -0.6950  1.3358  0.9696
10425TIP3    H255471   0.247   1.371  11.798  0.8528  1.1641  0.3130
10426TIP3   OH255472   5.399   7.429  12.398 -0.0529 -0.2860  0.4039
10426TIP3    H155473   5.396   7.522  12.422 -1.9497 -0.3508  0.5715
10426TIP3    H255474   5.411   7.429  12.303 -1.7410  0.1928  0.1691
10427TIP3   OH255475   0.630   2.801  11.180  0.5632 -0.1427 -0.5374
10427TIP3    H155476   0.604   2.884  11.219 -0.7501 -0.4616 -0.6888
10427TIP3    H255477   0.722   2.789  11.206  0.7650  1.3409 -0.5150
10428TIP3   OH255478   3.860   1.544  10.993 -0.3459  0.1004  0.4414
10428TIP3    H155479   3.852   1.451  11.017 -1.5971  0.1570  0.3024
10428TIP3    H255480   3.909   1.582  11.066 -0.6473 -0.4963  0.9767
10429TIP3   OH255481   7.083   4.900  10.250 -0.4835 -0.2001 -0.2138
10429TIP3    H155482   7.070   4.925  10.159 -0.8813  1.2449  0.2115
10429TIP3    H255483   6.996   4.871  10.279 -0.3155 -0.8457 -0.3290
10430TIP3   OH255484   0.470   1.181  12.432  0.5149  0.5130  0.5357
10430TIP3    H155485   0.512   1.097  12.415  1.1762  0.7227  1.0718
10430TIP3    H255486   0.382   1.158  12.461  0.3757  0.0489 -0.2261
10431TIP3   OH255487   1.789   6.543  12.776  0.4492  0.2742  0.0370
10431TIP3    H155488   1.878   6.542  12.809  0.4388 -0.9619  0.0492
10431TIP3    H255489   1.771   6.636  12.758  1.0337  0.7739  1.8768
10432TIP3   OH255490   3.948   5.615  11.606 -0.3337 -0.3607 -0.2023
10432TIP3    H155491   3.996   5.697  11.592 -1.8424  0.6926  0.5931
10432TIP3    H255492   4.010   5.547  11.578  1.1044  1.0055 -0.5186
10433TIP3   OH255493   5.797   5.691  10.702 -0.0131 -0.3154 -0.2181
10433TIP3    H155494   5.823   5.760  10.641  0.9094 -0.0014  0.5087
10433TIP3    H255495   5.752   5.738  10.773 -0.1859 -0.5670 -0.1604
10434TIP3   OH255496   0.353   1.665  12.781 -0.1151  0.6238 -0.4802
10434TIP3    H155497   0.440   1.671  12.820 -0.0350 -3.9029  0.5015
10434TIP3    H255498   0.369   1.635  12.691 -0.6654  2.0932 -1.1064
10435TIP3   OH255499   7.531   4.523  12.818 -0.6531 -0.1552  0.1243
10435TIP3    H155500   7.517   4.498  12.909  2.0191  0.0143  0.6772
10435TIP3    H255501   7.487   4.607  12.809 -0.8381 -0.1111  1.3191
10436TIP3   OH255502   0.175   7.118  11.011 -0.1665 -0.0157 -0.0556
10436TIP3    H155503   0.260   7.092  10.977  1.5868  0.5968  3.3760
10436TIP3    H255504   0.152   7.196  10.961  0.5475 -0.9933 -1.9939
10437TIP3   OH255505   3.532   3.201  10.519 -0.6873 -0.2448  0.4734
10437TIP3    H155506   3.439   3.226  10.518 -0.9023 -1.0135  0.2922
10437TIP3    H255507   3.537   3.127  10.458  0.3407  0.7598 -0.6962
10438TIP3   OH255508   7.457   4.576  10.576  0.5464 -0.2994  1.1272
10438TIP3    H155509   7.411   4.609  10.498 -0.5786 -2.1253  0.9592
10438TIP3    H255510   7.483   4.655  10.623  1.2467  0.8791 -1.0696
10439TIP3   OH255511   3.714   7.591  11.927  0.6918 -0.3260 -0.3789
10439TIP3    H155512   3.626   7.566  11.899  1.1511 -1.8667 -0.5169
10439TIP3    H255513   3.719   7.564  12.018  0.9032  0.0792 -0.2687
   7.68049   7.68049  30.00000
